 Gaussian 16, Revision A.03,

 ---------------------------------
 # opt=CalcAll B3LYP/6-31G* scf=qc
 ---------------------------------

 -------------------
 Title Card Required
 -------------------
 Symbolic Z-matrix:
 Charge =  0 Multiplicity = 1

 SCF Done:  E(RB3LYP) =  -1947.63343748     a.u. after   10 cycles
 SCF Done:  E(RB3LYP) =  -1947.66061898     a.u. after   19 cycles
 SCF Done:  E(RB3LYP) =  -1947.66711200     a.u. after   19 cycles
 SCF Done:  E(RB3LYP) =  -1947.67137792     a.u. after   17 cycles
 SCF Done:  E(RB3LYP) =  -1947.67309199     a.u. after   19 cycles
 SCF Done:  E(RB3LYP) =  -1947.67339806     a.u. after   15 cycles
 SCF Done:  E(RB3LYP) =  -1947.67343021     a.u. after   11 cycles
 SCF Done:  E(RB3LYP) =  -1947.67343349     a.u. after    6 cycles
 SCF Done:  E(RB3LYP) =  -1947.67343524     a.u. after    7 cycles
 SCF Done:  E(RB3LYP) =  -1947.67343538     a.u. after    4 cycles
 SCF Done:  E(RB3LYP) =  -1947.67343562     a.u. after    4 cycles
 SCF Done:  E(RB3LYP) =  -1947.67343570     a.u. after    4 cycles
 Optimization completed on the basis of negligible forces.
    -- Stationary point found.
 Normal termination of Gaussian 16 at Sat Aug 22 15:47:24 2020.

 ----------------------------------------------------------------------
 # freq B3LYP/6-31G* scf=qc volume NMR pop=NPA density=current Geom=All
 Check Guess=Read
 ----------------------------------------------------------------------

 Structure from the checkpoint file:  "azadicarboxylate_3_conf112.chk"
 -------------------
 Title Card Required
 -------------------
 Charge =  0 Multiplicity = 1

 SCF Done:  E(RB3LYP) =  -1947.67343570     a.u. after    1 cycles

      1  C    Isotropic =    63.6696   Anisotropy =   171.7810

      2  C    Isotropic =   121.7347   Anisotropy =    40.1442

      3  O    Isotropic =   141.4827   Anisotropy =   148.6739

      4  C    Isotropic =    34.1880   Anisotropy =    72.9083

      5  O    Isotropic =   -19.8113   Anisotropy =   480.6565

      6  N    Isotropic =  -341.9591   Anisotropy =   695.9742

      7  N    Isotropic =  -334.6783   Anisotropy =   689.5611

      8  C    Isotropic =    35.0059   Anisotropy =    80.6504

      9  O    Isotropic =   -19.4904   Anisotropy =   473.1633

     10  O    Isotropic =   137.4006   Anisotropy =   156.2852

     11  C    Isotropic =   121.6156   Anisotropy =    39.6000

     12  C    Isotropic =    63.5802   Anisotropy =   171.8001

     13  C    Isotropic =    64.0863   Anisotropy =   152.0729

     14  C    Isotropic =    67.3353   Anisotropy =   140.8380

     15  C    Isotropic =    51.0897   Anisotropy =   111.0305

     16  C    Isotropic =    66.6452   Anisotropy =   142.1944

     17  C    Isotropic =    62.6111   Anisotropy =   158.9587

     18  Cl   Isotropic =   717.9147   Anisotropy =   454.4731

     19  C    Isotropic =    62.6410   Anisotropy =   158.9877

     20  C    Isotropic =    66.5656   Anisotropy =   142.3747

     21  C    Isotropic =    51.0698   Anisotropy =   111.1490

     22  C    Isotropic =    67.3281   Anisotropy =   140.7853

     23  C    Isotropic =    64.1405   Anisotropy =   151.8602

     24  Cl   Isotropic =   717.7925   Anisotropy =   454.4880

     25  H    Isotropic =    27.7123   Anisotropy =     5.4423

     26  H    Isotropic =    26.4484   Anisotropy =     2.7048

     27  H    Isotropic =    26.5174   Anisotropy =     2.8142

     28  H    Isotropic =    27.6804   Anisotropy =     5.4105

     29  H    Isotropic =    24.9258   Anisotropy =     6.4067

     30  H    Isotropic =    25.0589   Anisotropy =     7.0194

     31  H    Isotropic =    25.0130   Anisotropy =     7.2497

     32  H    Isotropic =    24.3092   Anisotropy =     7.5599

     33  H    Isotropic =    24.3000   Anisotropy =     7.6046

     34  H    Isotropic =    24.9930   Anisotropy =     7.2661

     35  H    Isotropic =    25.0739   Anisotropy =     6.9963

     36  H    Isotropic =    24.9598   Anisotropy =     6.3990

  Exact polarizability: 314.432  46.437 144.182 -17.605  16.701 183.374
 Approx polarizability: 378.714  81.722 236.132 -32.357  39.715 332.410

                      1                      2                      3
                      A                      A                      A
 Frequencies --      2.4638                11.1280                18.5234
 Red. masses --     10.7527                13.7733                 9.3420
 Frc consts  --      0.0000                 0.0010                 0.0019
 IR Inten    --      0.0198                 0.2059                 0.3013

                      4                      5                      6
                      A                      A                      A
 Frequencies --     22.2966                26.8643                28.8062
 Red. masses --      9.7054                 4.5276                 5.2630
 Frc consts  --      0.0028                 0.0019                 0.0026
 IR Inten    --      0.1953                 0.1797                 1.2877

                      7                      8                      9
                      A                      A                      A
 Frequencies --     59.6850                60.2638                68.8462
 Red. masses --     12.8465                 8.4006                 6.6208
 Frc consts  --      0.0270                 0.0180                 0.0185
 IR Inten    --      0.0755                 0.8727                 0.7926

                     10                     11                     12
                      A                      A                      A
 Frequencies --     93.5527               100.0233               164.3747
 Red. masses --     10.8429                 9.5994                10.4497
 Frc consts  --      0.0559                 0.0566                 0.1664
 IR Inten    --      1.1548                 0.1794                 0.4767

                     13                     14                     15
                      A                      A                      A
 Frequencies --    172.1755               205.9758               223.2735
 Red. masses --      9.7490                 9.1194                 7.9959
 Frc consts  --      0.1703                 0.2280                 0.2348
 IR Inten    --      0.8908                 5.5827                 1.7608

                     16                     17                     18
                      A                      A                      A
 Frequencies --    246.6203               262.9089               295.7871
 Red. masses --     11.0592                 8.6349                 4.5146
 Frc consts  --      0.3963                 0.3517                 0.2327
 IR Inten    --      7.1890                 0.0372                 8.3632

                     19                     20                     21
                      A                      A                      A
 Frequencies --    303.2161               323.5677               356.0048
 Red. masses --      5.1700                 8.4251                 9.0619
 Frc consts  --      0.2801                 0.5197                 0.6767
 IR Inten    --      2.3610                 0.6181                 0.0964

                     22                     23                     24
                      A                      A                      A
 Frequencies --    376.8779               385.7986               409.9310
 Red. masses --      2.7537                 2.3723                 6.2244
 Frc consts  --      0.2304                 0.2080                 0.6163
 IR Inten    --      0.0868                 3.7697                71.3304

                     25                     26                     27
                      A                      A                      A
 Frequencies --    420.6493               420.8485               439.8788
 Red. masses --      3.0323                 3.0547                 6.2174
 Frc consts  --      0.3161                 0.3188                 0.7088
 IR Inten    --      0.0140                 2.0254                 1.7985

                     28                     29                     30
                      A                      A                      A
 Frequencies --    463.4351               508.6955               544.1220
 Red. masses --      5.1689                 5.3613                 4.2770
 Frc consts  --      0.6541                 0.8174                 0.7461
 IR Inten    --      1.8139                 0.3858                37.7502

                     31                     32                     33
                      A                      A                      A
 Frequencies --    573.4239               640.7622               646.4597
 Red. masses --      4.4726                 7.2274                 7.1112
 Frc consts  --      0.8665                 1.7483                 1.7510
 IR Inten    --      4.0288                12.1476                 1.1352

                     34                     35                     36
                      A                      A                      A
 Frequencies --    648.2177               651.1468               665.1339
 Red. masses --      6.5695                 8.5119                 4.8954
 Frc consts  --      1.6264                 2.1263                 1.2760
 IR Inten    --      0.4808                 0.5510                 7.9125

                     37                     38                     39
                      A                      A                      A
 Frequencies --    668.5140               737.4598               738.4316
 Red. masses --      5.5213                 4.2608                 4.2010
 Frc consts  --      1.4538                 1.3653                 1.3497
 IR Inten    --      0.2743                 0.8577                 7.1829

                     40                     41                     42
                      A                      A                      A
 Frequencies --    807.0165               821.2155               822.8195
 Red. masses --      8.0243                 2.7865                 2.7201
 Frc consts  --      3.0791                 1.1072                 1.0850
 IR Inten    --     17.1302                 2.4781                97.9178

                     43                     44                     45
                      A                      A                      A
 Frequencies --    828.5780               843.8063               844.0175
 Red. masses --      4.2822                 1.2986                 1.3142
 Frc consts  --      1.7322                 0.5447                 0.5516
 IR Inten    --      9.2149                 3.2041                 0.3065

                     46                     47                     48
                      A                      A                      A
 Frequencies --    857.0125               861.7670               872.7246
 Red. masses --      3.0516                 2.1707                 2.9984
 Frc consts  --      1.3205                 0.9498                 1.3455
 IR Inten    --    174.3394                 1.2500                 4.9878

                     49                     50                     51
                      A                      A                      A
 Frequencies --    938.1199               961.7552               963.2735
 Red. masses --      6.3540                 1.3937                 1.3930
 Frc consts  --      3.2947                 0.7595                 0.7615
 IR Inten    --      0.6716                16.6503                 0.1097

                     52                     53                     54
                      A                      A                      A
 Frequencies --    975.5924               976.9845               981.8719
 Red. masses --      1.5515                 1.3771                 2.8125
 Frc consts  --      0.8700                 0.7745                 1.5975
 IR Inten    --     54.1360                 0.7767               109.5148

                     55                     56                     57
                      A                      A                      A
 Frequencies --    984.7750              1024.6649              1026.0192
 Red. masses --      3.6861                 2.4417                 2.6309
 Frc consts  --      2.1061                 1.5105                 1.6318
 IR Inten    --     18.6289                29.1823                12.4585

                     58                     59                     60
                      A                      A                      A
 Frequencies --   1035.3246              1035.4812              1110.7457
 Red. masses --      3.8219                 3.7892                 3.1237
 Frc consts  --      2.4137                 2.3938                 2.2706
 IR Inten    --      8.6597                31.0528               150.9226

                     61                     62                     63
                      A                      A                      A
 Frequencies --   1111.0488              1146.3772              1146.4280
 Red. masses --      3.1251                 1.3243                 1.3242
 Frc consts  --      2.2729                 1.0254                 1.0254
 IR Inten    --      7.9547                 5.8965                 0.8548

                     64                     65                     66
                      A                      A                      A
 Frequencies --   1215.2196              1216.0419              1236.8334
 Red. masses --      1.1751                 1.1440                 4.7022
 Frc consts  --      1.0224                 0.9967                 4.2381
 IR Inten    --     77.4807                 0.5022              1441.8939

                     67                     68                     69
                      A                      A                      A
 Frequencies --   1239.9705              1240.3560              1268.8519
 Red. masses --      3.0654                 2.9748                 2.7873
 Frc consts  --      2.7769                 2.6965                 2.6440
 IR Inten    --     16.1921                41.7542                96.1191

                     70                     71                     72
                      A                      A                      A
 Frequencies --   1297.2411              1302.9345              1336.4148
 Red. masses --      1.4840                 1.8502                 1.8059
 Frc consts  --      1.4714                 1.8506                 1.9003
 IR Inten    --    113.4107                66.7549                 1.1029

                     73                     74                     75
                      A                      A                      A
 Frequencies --   1336.4854              1363.7098              1364.1691
 Red. masses --      1.8194                 2.1526                 2.1281
 Frc consts  --      1.9147                 2.3587                 2.3334
 IR Inten    --      1.1585                 7.4236                 7.4140

                     76                     77                     78
                      A                      A                      A
 Frequencies --   1418.6280              1420.2952              1456.2407
 Red. masses --      1.3599                 1.3644                 2.6036
 Frc consts  --      1.6125                 1.6216                 3.2531
 IR Inten    --     22.8006                19.3940                 3.5203

                     79                     80                     81
                      A                      A                      A
 Frequencies --   1456.2942              1517.8611              1518.4832
 Red. masses --      2.5997                 1.1174                 1.1189
 Frc consts  --      3.2485                 1.5168                 1.5201
 IR Inten    --     10.3242                15.8389                 7.4444

                     82                     83                     84
                      A                      A                      A
 Frequencies --   1541.4013              1541.5511              1630.9354
 Red. masses --      2.3069                 2.3028                 6.6802
 Frc consts  --      3.2293                 3.2241                10.4692
 IR Inten    --     87.0997                 6.9715                 0.1965

                     85                     86                     87
                      A                      A                      A
 Frequencies --   1630.9660              1655.8839              1655.9817
 Red. masses --      6.6786                 5.5926                 5.5935
 Frc consts  --     10.4671                 9.0349                 9.0375
 IR Inten    --      1.2460                34.4820                27.3749

                     88                     89                     90
                      A                      A                      A
 Frequencies --   1664.1470              1828.9821              1846.0600
 Red. masses --     13.9837                12.1669                12.1205
 Frc consts  --     22.8168                23.9801                24.3368
 IR Inten    --      0.0246                65.9320               376.0745

                     91                     92                     93
                      A                      A                      A
 Frequencies --   3110.5738              3112.1556              3167.8278
 Red. masses --      1.0577                 1.0578                 1.1109
 Frc consts  --      6.0299                 6.0363                 6.5681
 IR Inten    --     21.0382                19.2874                 4.0439

                     94                     95                     96
                      A                      A                      A
 Frequencies --   3169.4716              3189.6734              3189.8056
 Red. masses --      1.1109                 1.0897                 1.0897
 Frc consts  --      6.5749                 6.5319                 6.5323
 IR Inten    --      3.7487                 8.8601                 9.7572

                     97                     98                     99
                      A                      A                      A
 Frequencies --   3212.8040              3213.3978              3225.8127
 Red. masses --      1.0890                 1.0889                 1.0935
 Frc consts  --      6.6227                 6.6247                 6.7040
 IR Inten    --      0.9408                 0.9005                 3.6590

                    100                    101                    102
                      A                      A                      A
 Frequencies --   3225.9382              3228.6930              3228.8324
 Red. masses --      1.0935                 1.0949                 1.0949
 Frc consts  --      6.7045                 6.7246                 6.7255
 IR Inten    --      3.8393                 1.1891                 1.2060

 - Thermochemistry -
 -------------------
 Temperature   298.150 Kelvin.  Pressure   1.00000 Atm.
 Atom     1 has atomic number  6 and mass  12.00000

 Molecular mass:   366.01741 amu.
 Principal axes and moments of inertia in atomic units:
                           1         2         3
     Eigenvalues --  2366.77097********************
           X            0.99998  -0.00548   0.00105
           Y            0.00530   0.99164   0.12891
           Z           -0.00174  -0.12890   0.99166
 This molecule is an asymmetric top.
 Rotational symmetry number  1.
 Warning -- assumption of classical behavior for rotation
           may cause significant error
 Rotational temperatures (Kelvin)      0.03660     0.00214     0.00214
 Rotational constants (GHZ):           0.76253     0.04467     0.04451
 Zero-point vibrational energy     678524.8 (Joules/Mol)
                                  162.17132 (Kcal/Mol)
 Warning -- explicit consideration of  31 degrees of freedom as
           vibrations may cause significant error
 Vibrational temperatures:      3.54    16.01    26.65    32.08    38.65
          (Kelvin)             41.45    85.87    86.71    99.05   134.60
                              143.91   236.50   247.72   296.35   321.24
                              354.83   378.27   425.57   436.26   465.54
                              512.21   542.24   555.08   589.80   605.22
                              605.51   632.89   666.78   731.90   782.87
                              825.03   921.91   930.11   932.64   936.85
                              956.98   961.84  1061.04  1062.44  1161.12
                             1181.55  1183.85  1192.14  1214.05  1214.35
                             1233.05  1239.89  1255.66  1349.75  1383.75
                             1385.94  1403.66  1405.66  1412.69  1416.87
                             1474.26  1476.21  1489.60  1489.83  1598.12
                             1598.55  1649.38  1649.45  1748.43  1749.61
                             1779.53  1784.04  1784.60  1825.59  1866.44
                             1874.63  1922.80  1922.90  1962.07  1962.74
                             2041.09  2043.49  2095.21  2095.28  2183.86
                             2184.76  2217.73  2217.95  2346.55  2346.60
                             2382.45  2382.59  2394.34  2631.50  2656.07
                             4475.42  4477.70  4557.80  4560.16  4589.23
                             4589.42  4622.51  4623.36  4641.22  4641.41
                             4645.37  4645.57

 Zero-point correction=                           0.258436 (Hartree/Particle)
 Thermal correction to Energy=                    0.280410
 Thermal correction to Enthalpy=                  0.281354
 Thermal correction to Gibbs Free Energy=         0.197804
 Sum of electronic and zero-point Energies=          -1947.414999
 Sum of electronic and thermal Energies=             -1947.393026
 Sum of electronic and thermal Enthalpies=           -1947.392082
 Sum of electronic and thermal Free Energies=        -1947.475632

                     E (Thermal)             CV                S
                      KCal/Mol        Cal/Mol-Kelvin    Cal/Mol-Kelvin
 Total                  175.960             79.083            175.847
 Electronic               0.000              0.000              0.000
 Translational            0.889              2.981             43.586
 Rotational               0.889              2.981             36.604
 Vibrational            174.182             73.121             95.657
 Vibration     1          0.592              1.987             10.795
 Vibration     2          0.593              1.987              7.799
 Vibration     3          0.593              1.986              6.787
 Vibration     4          0.593              1.985              6.418
 Vibration     5          0.593              1.984              6.048
 Vibration     6          0.593              1.984              5.910
 Vibration     7          0.597              1.974              4.468
 Vibration     8          0.597              1.973              4.449
 Vibration     9          0.598              1.969              4.186
 Vibration    10          0.603              1.954              3.584
 Vibration    11          0.604              1.949              3.454
 Vibration    12          0.623              1.886              2.499
 Vibration    13          0.626              1.877              2.412
 Vibration    14          0.640              1.831              2.079
 Vibration    15          0.649              1.806              1.932
 Vibration    16          0.661              1.768              1.755
 Vibration    17          0.670              1.741              1.642
 Vibration    18          0.690              1.682              1.441
 Vibration    19          0.695              1.668              1.399
 Vibration    20          0.708              1.628              1.292
 Vibration    21          0.732              1.563              1.139
 Vibration    22          0.747              1.519              1.052
 Vibration    23          0.754              1.501              1.016
 Vibration    24          0.774              1.449              0.927
 Vibration    25          0.783              1.425              0.890
 Vibration    26          0.783              1.425              0.889
 Vibration    27          0.800              1.383              0.827
 Vibration    28          0.821              1.331              0.756
 Vibration    29          0.864              1.231              0.637
 Vibration    30          0.899              1.153              0.556
 Vibration    31          0.930              1.089              0.498

 Optimization completed on the basis of negligible forces.
    -- Stationary point found.
 Normal termination of Gaussian 16 at Sat Aug 22 15:57:16 2020.
 Gaussian 16:  ES64L-G16RevA.03 25-Dec-2016

 ----------------------------------------------------------------------
 # TD(NStates=10, Root=1) B3LYP/6-31G* scf=qc volume pop=NPA density=cu
 rrent Geom=AllCheck Guess=Read
 ----------------------------------------------------------------------

 Structure from the checkpoint file:  "azadicarboxylate_3_conf113.chk"
 -------------------
 Title Card Required
 -------------------
 Charge =  0 Multiplicity = 1

                         Standard orientation:
 ---------------------------------------------------------------------
 Center     Atomic      Atomic             Coordinates (Angstroms)
 Number     Number       Type             X           Y           Z
 ---------------------------------------------------------------------
      1          6           0        4.645936   -0.794438    0.864850
      2          6           0        3.368237   -1.346449    1.437442
      3          8           0        2.206277   -0.540749    1.046342
      4          6           0        1.608874   -0.884440   -0.092355
      5          8           0        1.895252   -1.780374   -0.846514
      6          7           0        0.579444    0.086135   -0.401166
      7          7           0       -0.560498   -0.299125   -0.085840
      8          6           0       -1.596306    0.624915   -0.515365
      9          8           0       -1.863669    0.832473   -1.672354
     10          8           0       -2.222078    1.080855    0.568466
     11          6           0       -3.372975    1.956317    0.330312
     12          6           0       -4.650900    1.171360    0.200360
     13          6           0       -5.406393    0.858720    1.337052
     14          6           0       -6.587525    0.126072    1.235174
     15          6           0       -7.012775   -0.296530   -0.024013
     16          6           0       -6.278675    0.000164   -1.172132
     17          6           0       -5.099283    0.733495   -1.052980
     18         17           0       -8.503402   -1.216099   -0.165931
     19          6           0        5.121868   -1.231561   -0.378645
     20          6           0        6.301085   -0.714701   -0.912617
     21          6           0        7.007458    0.248702   -0.192821
     22          6           0        6.554661    0.701529    1.046065
     23          6           0        5.373874    0.174568    1.566022
     24         17           0        8.497801    0.901511   -0.856263
     25          1           0        3.358549   -1.289521    2.526876
     26          1           0        3.190379   -2.375184    1.120088
     27          1           0       -3.169455    2.552205   -0.561025
     28          1           0       -3.386243    2.601146    1.210311
     29          1           0       -5.071164    1.192076    2.316180
     30          1           0       -7.172890   -0.112301    2.116629
     31          1           0       -6.626193   -0.337043   -2.142699
     32          1           0       -4.514503    0.959108   -1.939417
     33          1           0        4.558966   -1.973587   -0.936592
     34          1           0        6.669852   -1.054521   -1.874386
     35          1           0        7.118736    1.449709    1.592400
     36          1           0        5.017327    0.522854    2.532345
 ---------------------------------------------------------------------

 SCF Done:  E(RB3LYP) =  -1947.67343570     a.u. after    1 cycles

 Excitation energies and oscillator strengths:

 Excited State   1:      Singlet-A      2.7985 eV  443.05 nm  f=0.0002  <S**2>=0.000
      92 -> 95         0.43276
      94 -> 95         0.55106
 This state for optimization and/or second-order correction.
 Total Energy, E(TD-HF/TD-DFT) =  -1947.57059434
 Copying the excited state density for this state as the 1-particle RhoCI density.

 Excited State   2:      Singlet-A      3.9508 eV  313.82 nm  f=0.0069  <S**2>=0.000
      92 -> 95         0.12876
      93 -> 95         0.68090
      94 -> 95        -0.12752

 Excited State   3:      Singlet-A      3.9768 eV  311.77 nm  f=0.0387  <S**2>=0.000
      92 -> 95         0.53704
      93 -> 95        -0.17981
      94 -> 95        -0.42012

 Excited State   4:      Singlet-A      4.3885 eV  282.52 nm  f=0.0005  <S**2>=0.000
      91 -> 95         0.70477

 Excited State   5:      Singlet-A      4.4097 eV  281.17 nm  f=0.0003  <S**2>=0.000
      90 -> 95         0.70533

 Excited State   6:      Singlet-A      4.8578 eV  255.22 nm  f=0.0039  <S**2>=0.000
      87 -> 95        -0.20927
      89 -> 95         0.63914

 Excited State   7:      Singlet-A      5.0940 eV  243.39 nm  f=0.0805  <S**2>=0.000
      86 -> 95         0.49350
      88 -> 95        -0.44584
      89 -> 95         0.13048

 Excited State   8:      Singlet-A      5.2418 eV  236.53 nm  f=0.0005  <S**2>=0.000
      90 -> 96         0.41181
      90 -> 97         0.17606
      92 -> 98         0.19878
      93 -> 98        -0.36443
      94 -> 98        -0.34746

 Excited State   9:      Singlet-A      5.2494 eV  236.19 nm  f=0.0006  <S**2>=0.000
      91 -> 96        -0.18228
      91 -> 97         0.40793
      92 -> 99         0.18144
      93 -> 99         0.36806
      94 -> 99        -0.35472

 Excited State  10:      Singlet-A      5.3784 eV  230.52 nm  f=0.0007  <S**2>=0.000
      84 -> 95        -0.31605
      85 -> 95         0.43436
      92 -> 96        -0.16147
      92 ->100         0.12850
      94 -> 96        -0.33870
      94 ->100         0.17242

 The electronic state is 1-A.
 Alpha  occ. eigenvalues -- -101.55482-101.55458 -19.22030 -19.21951 -19.16477
 Alpha  occ. eigenvalues --  -19.16443 -14.43038 -14.42910 -10.36010 -10.35891
 Alpha  occ. eigenvalues --  -10.26888 -10.26851 -10.26414 -10.26384 -10.21772
 Alpha  occ. eigenvalues --  -10.21735 -10.21527 -10.21490 -10.21432 -10.21399
 Alpha  occ. eigenvalues --  -10.21310 -10.21276 -10.21143 -10.21105  -9.47115
 Alpha  occ. eigenvalues --   -9.47090  -7.23511  -7.23486  -7.22545  -7.22520
 Alpha  occ. eigenvalues --   -7.22507  -7.22482  -1.14451  -1.13261  -1.06702
 Alpha  occ. eigenvalues --   -1.04661  -1.04037  -0.90006  -0.89973  -0.85380
 Alpha  occ. eigenvalues --   -0.85205  -0.81462  -0.78511  -0.76945  -0.76910
 Alpha  occ. eigenvalues --   -0.76386  -0.71748  -0.69565  -0.63492  -0.63459
 Alpha  occ. eigenvalues --   -0.62873  -0.60674  -0.59242  -0.57327  -0.56096
 Alpha  occ. eigenvalues --   -0.53286  -0.52801  -0.51380  -0.50878  -0.49833
 Alpha  occ. eigenvalues --   -0.48957  -0.48923  -0.48341  -0.47938  -0.46795
 Alpha  occ. eigenvalues --   -0.45262  -0.44878  -0.44628  -0.44000  -0.43704
 Alpha  occ. eigenvalues --   -0.42321  -0.41999  -0.41004  -0.40340  -0.40175
 Alpha  occ. eigenvalues --   -0.38956  -0.38655  -0.38333  -0.37938  -0.36503
 Alpha  occ. eigenvalues --   -0.36452  -0.34021  -0.33948  -0.32684  -0.32636
 Alpha  occ. eigenvalues --   -0.31964  -0.31893  -0.31779  -0.31468  -0.27278
 Alpha  occ. eigenvalues --   -0.27241  -0.26163  -0.25581  -0.25038
 Alpha virt. eigenvalues --   -0.09276  -0.03287  -0.03138  -0.02287  -0.02249
 Alpha virt. eigenvalues --   -0.00113   0.00605   0.02346   0.02384   0.09545
 Alpha virt. eigenvalues --    0.09786   0.10674   0.10895   0.11916   0.12158

 Mulliken charges:
               1
     1  C    0.151141
     2  C   -0.157182
     3  O   -0.409148
     4  C    0.734753
     5  O   -0.410071
     6  N   -0.234132
     7  N   -0.241649
     8  C    0.738613
     9  O   -0.410944
    10  O   -0.412985
    11  C   -0.156764
    12  C    0.150786
    13  C   -0.165378
    14  C   -0.128181
    15  C   -0.062572
    16  C   -0.129139
    17  C   -0.172102
    18  Cl  -0.014071
    19  C   -0.172634
    20  C   -0.128974
    21  C   -0.062404
    22  C   -0.128078
    23  C   -0.165323
    24  Cl  -0.013132
    25  H    0.172522
    26  H    0.187222
    27  H    0.186123
    28  H    0.171904
    29  H    0.144454
    30  H    0.160600
    31  H    0.163526
    32  H    0.171363
    33  H    0.171923
    34  H    0.163982
    35  H    0.161051
    36  H    0.144902
 Sum of Mulliken charges =  -0.00000

 Dipole moment (field-independent basis, Debye):
    X=              0.1307    Y=              1.2677    Z=              3.5798  Tot=              3.7999
 Quadrupole moment (field-independent basis, Debye-Ang):
   XX=           -155.8877   YY=           -145.6544   ZZ=           -141.9753
   XY=            -12.2501   XZ=              4.1749   YZ=              1.4916

 Summary of Natural Population Analysis:

                                       Natural Population
                Natural  -----------------------------------------------
    Atom  No    Charge         Core      Valence    Rydberg      Total
 -----------------------------------------------------------------------
      C    1   -0.09458      1.99901     4.08117    0.01441     6.09458
      C    2   -0.12679      1.99913     4.10849    0.01917     6.12679
      O    3   -0.52100      1.99973     6.50895    0.01232     8.52100
      C    4    0.92220      1.99951     3.02732    0.05097     5.07780
      O    5   -0.54719      1.99977     6.52671    0.02071     8.54719
      N    6   -0.21320      1.99939     5.18748    0.02634     7.21320
      N    7   -0.21456      1.99939     5.18891    0.02626     7.21456
      C    8    0.91167      1.99951     3.03759    0.05122     5.08833
      O    9   -0.54482      1.99977     6.52436    0.02069     8.54482
      O   10   -0.52111      1.99973     6.50918    0.01220     8.52111
      C   11   -0.12665      1.99913     4.10823    0.01929     6.12665
      C   12   -0.09412      1.99901     4.08069    0.01442     6.09412
      C   13   -0.20035      1.99903     4.18824    0.01309     6.20035
      C   14   -0.24346      1.99893     4.22962    0.01491     6.24346
      C   15   -0.03603      1.99856     4.01571    0.02176     6.03603
      C   16   -0.24178      1.99894     4.22791    0.01494     6.24178
      C   17   -0.19914      1.99903     4.18683    0.01328     6.19914
     Cl   18    0.00253      9.99967     6.97850    0.01930    16.99747
      C   19   -0.19898      1.99903     4.18663    0.01331     6.19898
      C   20   -0.24166      1.99894     4.22778    0.01495     6.24166
      C   21   -0.03553      1.99856     4.01520    0.02178     6.03553
      C   22   -0.24339      1.99893     4.22954    0.01491     6.24339
      C   23   -0.19976      1.99903     4.18765    0.01308     6.19976
     Cl   24    0.00328      9.99967     6.97774    0.01931    16.99672
      H   25    0.24265      0.00000     0.75625    0.00110     0.75735
      H   26    0.24438      0.00000     0.75350    0.00212     0.75562
      H   27    0.24361      0.00000     0.75430    0.00209     0.75639
      H   28    0.24223      0.00000     0.75671    0.00106     0.75777
      H   29    0.24310      0.00000     0.75589    0.00101     0.75690
      H   30    0.25620      0.00000     0.74278    0.00102     0.74380
      H   31    0.25763      0.00000     0.74137    0.00100     0.74237
      H   32    0.25838      0.00000     0.74035    0.00127     0.74162
      H   33    0.25864      0.00000     0.74003    0.00133     0.74136
      H   34    0.25787      0.00000     0.74114    0.00100     0.74213
      H   35    0.25644      0.00000     0.74254    0.00102     0.74356
      H   36    0.24332      0.00000     0.75567    0.00101     0.75668
 =======================================================================
   * Total *   -0.00000     63.98138   123.52098    0.49764   188.00000

 Normal termination of Gaussian 16 at Sat Aug 22 16:07:33 2020.
