 Gaussian 16, Revision A.03,

 ---------------------------------
 # opt=CalcAll B3LYP/6-31G* scf=qc
 ---------------------------------

 -------------------
 Title Card Required
 -------------------
 Symbolic Z-matrix:
 Charge =  0 Multiplicity = 1

 SCF Done:  E(RB3LYP) =  -723.597979127     a.u. after   10 cycles
 SCF Done:  E(RB3LYP) =  -723.610902401     a.u. after   15 cycles
 SCF Done:  E(RB3LYP) =  -723.640133494     a.u. after   15 cycles
 SCF Done:  E(RB3LYP) =  -723.646560846     a.u. after   19 cycles
 SCF Done:  E(RB3LYP) =  -723.648564613     a.u. after   15 cycles
 SCF Done:  E(RB3LYP) =  -723.648920258     a.u. after   17 cycles
 SCF Done:  E(RB3LYP) =  -723.648952016     a.u. after    9 cycles
 SCF Done:  E(RB3LYP) =  -723.648955740     a.u. after    6 cycles
 SCF Done:  E(RB3LYP) =  -723.648956238     a.u. after    5 cycles
 SCF Done:  E(RB3LYP) =  -723.648956265     a.u. after    3 cycles
 SCF Done:  E(RB3LYP) =  -723.648956265     a.u. after    2 cycles
 Optimization completed.
    -- Stationary point found.
 Normal termination of Gaussian 16 at Sat Aug 22 14:02:10 2020.

 ----------------------------------------------------------------------
 # freq B3LYP/6-31G* scf=qc volume NMR pop=NPA density=current Geom=All
 Check Guess=Read
 ----------------------------------------------------------------------

 Structure from the checkpoint file:  "azadicarboxylate_2_conf112.chk"
 -------------------
 Title Card Required
 -------------------
 Charge =  0 Multiplicity = 1

 SCF Done:  E(RB3LYP) =  -723.648956265     a.u. after    1 cycles

      1  C    Isotropic =   168.6619   Anisotropy =    31.0705

      2  C    Isotropic =   118.4744   Anisotropy =    63.2955

      3  C    Isotropic =   168.2622   Anisotropy =    30.1776

      4  O    Isotropic =   126.5888   Anisotropy =   139.0511

      5  C    Isotropic =    35.4741   Anisotropy =    82.3783

      6  O    Isotropic =   -18.5394   Anisotropy =   472.7543

      7  N    Isotropic =  -330.9583   Anisotropy =   686.9711

      8  N    Isotropic =  -345.9347   Anisotropy =   700.9441

      9  C    Isotropic =    34.7537   Anisotropy =    70.9808

     10  O    Isotropic =   -27.6863   Anisotropy =   471.6526

     11  O    Isotropic =   138.2997   Anisotropy =   150.8860

     12  C    Isotropic =   113.2235   Anisotropy =    71.9937

     13  C    Isotropic =   169.5410   Anisotropy =    27.8496

     14  C    Isotropic =   170.3786   Anisotropy =    27.9028

     15  H    Isotropic =    31.0977   Anisotropy =     8.5403

     16  H    Isotropic =    30.9022   Anisotropy =     6.7054

     17  H    Isotropic =    30.1296   Anisotropy =     7.3592

     18  H    Isotropic =    27.0206   Anisotropy =     2.7462

     19  H    Isotropic =    30.7372   Anisotropy =     6.4793

     20  H    Isotropic =    31.1047   Anisotropy =     8.3569

     21  H    Isotropic =    30.7776   Anisotropy =     8.7071

     22  H    Isotropic =    27.5965   Anisotropy =     4.2458

     23  H    Isotropic =    29.7401   Anisotropy =     5.3038

     24  H    Isotropic =    30.7054   Anisotropy =     8.1751

     25  H    Isotropic =    31.1877   Anisotropy =     8.4461

     26  H    Isotropic =    29.5802   Anisotropy =     5.6256

     27  H    Isotropic =    31.1319   Anisotropy =     8.3326

     28  H    Isotropic =    30.5759   Anisotropy =     8.2344

  Exact polarizability: 154.981   0.058  98.022   1.612   0.523  85.998
 Approx polarizability: 175.184   3.285 155.210   0.659   1.888 126.368

                      1                      2                      3
                      A                      A                      A
 Frequencies --      8.1179                36.8992                41.8285
 Red. masses --      4.0101                 3.4570                 6.9674
 Frc consts  --      0.0002                 0.0028                 0.0072
 IR Inten    --      0.4184                 1.1379                 0.4336

                      4                      5                      6
                      A                      A                      A
 Frequencies --     45.6050                67.9420                86.8787
 Red. masses --      4.1759                 5.3627                 4.8398
 Frc consts  --      0.0051                 0.0146                 0.0215
 IR Inten    --      0.6307                 0.3087                 0.2285

                      7                      8                      9
                      A                      A                      A
 Frequencies --    109.0893               172.4707               185.3166
 Red. masses --      3.4736                 5.9286                 4.0066
 Frc consts  --      0.0244                 0.1039                 0.0811
 IR Inten    --      0.2419                 0.4705                 2.2439

                     10                     11                     12
                      A                      A                      A
 Frequencies --    213.6192               222.9623               230.9197
 Red. masses --      3.1025                 1.0857                 1.0900
 Frc consts  --      0.0834                 0.0318                 0.0342
 IR Inten    --      8.4977                 0.8105                 0.0726

                     13                     14                     15
                      A                      A                      A
 Frequencies --    246.8061               250.1589               268.6679
 Red. masses --      3.1420                 1.0784                 1.6100
 Frc consts  --      0.1128                 0.0398                 0.0685
 IR Inten    --      3.5522                 0.1786                 2.2058

                     16                     17                     18
                      A                      A                      A
 Frequencies --    312.8938               348.1933               404.6767
 Red. masses --      3.0634                 2.7796                 3.6482
 Frc consts  --      0.1767                 0.1986                 0.3520
 IR Inten    --      3.7920                 1.0825                 5.1390

                     19                     20                     21
                      A                      A                      A
 Frequencies --    417.6649               427.1384               467.5752
 Red. masses --      3.5455                 3.2999                 3.4269
 Frc consts  --      0.3644                 0.3547                 0.4414
 IR Inten    --      8.4330                16.7540                 4.9886

                     22                     23                     24
                      A                      A                      A
 Frequencies --    485.2406               532.8904               640.4909
 Red. masses --      3.1591                 4.6615                 5.6920
 Frc consts  --      0.4383                 0.7799                 1.3758
 IR Inten    --      4.2313                 4.4837                 2.4559

                     25                     26                     27
                      A                      A                      A
 Frequencies --    668.4045               792.6563               815.4337
 Red. masses --      9.0494                 5.8211                 7.8179
 Frc consts  --      2.3821                 2.1549                 3.0628
 IR Inten    --      1.7435                30.8616                23.0105

                     28                     29                     30
                      A                      A                      A
 Frequencies --    840.6996               855.8154               904.6647
 Red. masses --      3.3695                 7.0996                 3.2937
 Frc consts  --      1.4031                 3.0637                 1.5882
 IR Inten    --     11.2060                 8.4160                49.2015

                     31                     32                     33
                      A                      A                      A
 Frequencies --    929.1742               949.9518               950.3699
 Red. masses --      3.1586                 1.2811                 1.2539
 Frc consts  --      1.6067                 0.6812                 0.6673
 IR Inten    --      1.4887                 1.3663                 0.6224

                     34                     35                     36
                      A                      A                      A
 Frequencies --    957.2567               962.1644               976.8100
 Red. masses --      1.3118                 1.3694                 4.9048
 Frc consts  --      0.7082                 0.7469                 2.7574
 IR Inten    --      0.4135                 2.7145                 8.9699

                     37                     38                     39
                      A                      A                      A
 Frequencies --    993.3398              1145.8210              1168.3065
 Red. masses --      8.7210                 1.8485                 1.9217
 Frc consts  --      5.0701                 1.4299                 1.5454
 IR Inten    --      1.4033               238.8724               114.8688

                     40                     41                     42
                      A                      A                      A
 Frequencies --   1171.5770              1175.1213              1218.5147
 Red. masses --      2.1505                 2.0295                 1.9572
 Frc consts  --      1.7391                 1.6512                 1.7121
 IR Inten    --     10.8734                 8.6214                40.0123

                     43                     44                     45
                      A                      A                      A
 Frequencies --   1219.0839              1253.9997              1290.6761
 Red. masses --      1.9352                 5.4984                 6.4043
 Frc consts  --      1.6945                 5.0942                 6.2857
 IR Inten    --     10.6036              1104.8713               259.8989

                     46                     47                     48
                      A                      A                      A
 Frequencies --   1383.7015              1391.3348              1399.9957
 Red. masses --      1.4040                 1.3206                 1.2518
 Frc consts  --      1.5839                 1.5062                 1.4455
 IR Inten    --      6.8520                 3.2527                 4.4343

                     49                     50                     51
                      A                      A                      A
 Frequencies --   1421.1867              1430.7015              1433.1881
 Red. masses --      1.3097                 1.3277                 1.3398
 Frc consts  --      1.5585                 1.6012                 1.6214
 IR Inten    --     22.7032                18.5443                16.8049

                     52                     53                     54
                      A                      A                      A
 Frequencies --   1445.0184              1448.5956              1511.1668
 Red. masses --      1.2416                 1.2592                 1.0482
 Frc consts  --      1.5275                 1.5568                 1.4103
 IR Inten    --     17.8699                 7.2267                 0.1180

                     55                     56                     57
                      A                      A                      A
 Frequencies --   1511.7684              1516.6335              1522.1956
 Red. masses --      1.0543                 1.0440                 1.0470
 Frc consts  --      1.4196                 1.4149                 1.4293
 IR Inten    --      1.8376                 1.1957                16.2845

                     58                     59                     60
                      A                      A                      A
 Frequencies --   1525.6708              1526.6585              1540.0677
 Red. masses --      1.0508                 1.0485                 1.0495
 Frc consts  --      1.4411                 1.4398                 1.4666
 IR Inten    --      3.6297                 0.0676                 9.6931

                     61                     62                     63
                      A                      A                      A
 Frequencies --   1546.6601              1660.1035              1829.6838
 Red. masses --      1.0540                13.9892                12.3996
 Frc consts  --      1.4855                22.7150                24.4573
 IR Inten    --      7.3192                 0.1644                63.9917

                     64                     65                     66
                      A                      A                      A
 Frequencies --   1846.3228              3058.3477              3062.4466
 Red. masses --     12.2578                 1.0354                 1.0374
 Frc consts  --     24.6195                 5.7062                 5.7322
 IR Inten    --    456.4661                11.0736                15.7614

                     67                     68                     69
                      A                      A                      A
 Frequencies --   3062.8343              3066.5711              3095.8548
 Red. masses --      1.0360                 1.0382                 1.0866
 Frc consts  --      5.7260                 5.7524                 6.1360
 IR Inten    --     15.9340                10.8970                19.8898

                     70                     71                     72
                      A                      A                      A
 Frequencies --   3098.4776              3126.4525              3127.4281
 Red. masses --      1.0875                 1.1029                 1.1016
 Frc consts  --      6.1512                 6.3516                 6.3480
 IR Inten    --      1.7305                 2.4088                11.3724

                     73                     74                     75
                      A                      A                      A
 Frequencies --   3130.1044              3136.2377              3139.3868
 Red. masses --      1.1020                 1.1017                 1.1027
 Frc consts  --      6.3613                 6.3844                 6.4033
 IR Inten    --     32.9404                40.1368                23.8968

                     76                     77                     78
                      A                      A                      A
 Frequencies --   3148.5692              3161.9613              3166.6507
 Red. masses --      1.1026                 1.1022                 1.1011
 Frc consts  --      6.4404                 6.4926                 6.5053
 IR Inten    --     15.2261                 1.9411                19.8400

 - Thermochemistry -
 -------------------
 Temperature   298.150 Kelvin.  Pressure   1.00000 Atm.
 Atom     1 has atomic number  6 and mass  12.00000

 Molecular mass:   202.09536 amu.
 Principal axes and moments of inertia in atomic units:
                           1         2         3
     Eigenvalues --  1046.545287384.502617796.92123
           X            1.00000   0.00175   0.00106
           Y           -0.00175   0.99999  -0.00501
           Z           -0.00107   0.00501   0.99999
 This molecule is an asymmetric top.
 Rotational symmetry number  1.
 Warning -- assumption of classical behavior for rotation
           may cause significant error
 Rotational temperatures (Kelvin)      0.08276     0.01173     0.01111
 Rotational constants (GHZ):           1.72448     0.24440     0.23147
 Zero-point vibrational energy     597749.2 (Joules/Mol)
                                  142.86549 (Kcal/Mol)
 Warning -- explicit consideration of  23 degrees of freedom as
           vibrations may cause significant error
 Vibrational temperatures:     11.68    53.09    60.18    65.62    97.75
          (Kelvin)            125.00   156.96   248.15   266.63   307.35
                              320.79   332.24   355.10   359.92   386.55
                              450.18   500.97   582.24   600.93   614.56
                              672.74   698.15   766.71   921.52   961.68
                             1140.46  1173.23  1209.58  1231.33  1301.61
                             1336.87  1366.77  1367.37  1377.28  1384.34
                             1405.41  1429.19  1648.58  1680.93  1685.64
                             1690.74  1753.17  1753.99  1804.23  1857.00
                             1990.84  2001.82  2014.28  2044.77  2058.46
                             2062.04  2079.06  2084.21  2174.23  2175.10
                             2182.10  2190.10  2195.10  2196.52  2215.81
                             2225.30  2388.52  2632.51  2656.45  4400.28
                             4406.18  4406.74  4412.11  4454.24  4458.02
                             4498.27  4499.67  4503.52  4512.35  4516.88
                             4530.09  4549.36  4556.10

 Zero-point correction=                           0.227671 (Hartree/Particle)
 Thermal correction to Energy=                    0.243938
 Thermal correction to Enthalpy=                  0.244882
 Thermal correction to Gibbs Free Energy=         0.180589
 Sum of electronic and zero-point Energies=           -723.421286
 Sum of electronic and thermal Energies=              -723.405018
 Sum of electronic and thermal Enthalpies=            -723.404074
 Sum of electronic and thermal Free Energies=         -723.468367

                     E (Thermal)             CV                S
                      KCal/Mol        Cal/Mol-Kelvin    Cal/Mol-Kelvin
 Total                  153.074             56.285            135.317
 Electronic               0.000              0.000              0.000
 Translational            0.889              2.981             41.815
 Rotational               0.889              2.981             32.466
 Vibrational            151.296             50.323             61.036
 Vibration     1          0.593              1.987              8.425
 Vibration     2          0.594              1.982              5.419
 Vibration     3          0.594              1.980              5.171
 Vibration     4          0.595              1.979              4.999
 Vibration     5          0.598              1.969              4.212
 Vibration     6          0.601              1.958              3.729
 Vibration     7          0.606              1.942              3.285
 Vibration     8          0.626              1.876              2.408
 Vibration     9          0.631              1.860              2.274
 Vibration    10          0.644              1.820              2.013
 Vibration    11          0.649              1.806              1.935
 Vibration    12          0.653              1.794              1.872
 Vibration    13          0.661              1.768              1.753
 Vibration    14          0.663              1.762              1.729
 Vibration    15          0.673              1.731              1.605
 Vibration    16          0.701              1.649              1.347
 Vibration    17          0.726              1.579              1.174
 Vibration    18          0.770              1.460              0.946
 Vibration    19          0.781              1.432              0.900
 Vibration    20          0.789              1.411              0.868
 Vibration    21          0.825              1.322              0.744
 Vibration    22          0.841              1.283              0.696
 Vibration    23          0.888              1.177              0.581

 Optimization completed.
    -- Stationary point found.
 Normal termination of Gaussian 16 at Sat Aug 22 14:07:11 2020.
 Gaussian 16:  ES64L-G16RevA.03 25-Dec-2016

 ----------------------------------------------------------------------
 # TD(NStates=10, Root=1) B3LYP/6-31G* scf=qc volume pop=NPA density=cu
 rrent Geom=AllCheck Guess=Read
 ----------------------------------------------------------------------

 Structure from the checkpoint file:  "azadicarboxylate_2_conf113.chk"
 -------------------
 Title Card Required
 -------------------
 Charge =  0 Multiplicity = 1

                         Standard orientation:
 ---------------------------------------------------------------------
 Center     Atomic      Atomic             Coordinates (Angstroms)
 Number     Number       Type             X           Y           Z
 ---------------------------------------------------------------------
      1          6           0       -4.612680    0.211608   -0.963518
      2          6           0       -3.855851   -0.366937    0.225914
      3          6           0       -4.251171   -1.793408    0.575035
      4          8           0       -2.424873   -0.420325   -0.096811
      5          6           0       -1.725742    0.697505    0.089471
      6          8           0       -2.124689    1.770112    0.468262
      7          7           0       -0.361294    0.448938   -0.358321
      8          7           0        0.475270    0.705851    0.526342
      9          6           0        1.844072    0.582402    0.060328
     10          8           0        2.430827    1.523404   -0.413672
     11          8           0        2.292392   -0.631360    0.356978
     12          6           0        3.705627   -0.973432    0.111986
     13          6           0        4.026347   -0.944796   -1.378655
     14          6           0        4.633184   -0.127604    0.977947
     15          1           0       -5.685416    0.241421   -0.742321
     16          1           0       -4.460541   -0.406309   -1.855115
     17          1           0       -4.279895    1.231371   -1.175219
     18          1           0       -3.964484    0.290628    1.093131
     19          1           0       -4.099625   -2.459333   -0.281213
     20          1           0       -5.309240   -1.827002    0.855760
     21          1           0       -3.658485   -2.168281    1.415048
     22          1           0        3.726761   -2.008168    0.465226
     23          1           0        4.024906    0.076191   -1.766298
     24          1           0        3.298463   -1.539576   -1.939826
     25          1           0        5.018812   -1.380218   -1.540739
     26          1           0        4.642772    0.914467    0.651385
     27          1           0        5.651608   -0.525904    0.907384
     28          1           0        4.324573   -0.169495    2.027548
 ---------------------------------------------------------------------

 SCF Done:  E(RB3LYP) =  -723.648956265     a.u. after    1 cycles

 Excitation energies and oscillator strengths:

 Excited State   1:      Singlet-A      2.7656 eV  448.32 nm  f=0.0003  <S**2>=0.000
      54 -> 55         0.70095
 This state for optimization and/or second-order correction.
 Total Energy, E(TD-HF/TD-DFT) =  -723.547324096
 Copying the excited state density for this state as the 1-particle RhoCI density.

 Excited State   2:      Singlet-A      4.7269 eV  262.30 nm  f=0.0004  <S**2>=0.000
      52 -> 55         0.31425
      53 -> 55         0.60303

 Excited State   3:      Singlet-A      4.9980 eV  248.07 nm  f=0.0681  <S**2>=0.000
      50 -> 55         0.12229
      52 -> 55         0.59029
      53 -> 55        -0.33050

 Excited State   4:      Singlet-A      5.2987 eV  233.99 nm  f=0.0041  <S**2>=0.000
      50 -> 55         0.30806
      51 -> 55         0.62837

 Excited State   5:      Singlet-A      5.3795 eV  230.48 nm  f=0.0059  <S**2>=0.000
      50 -> 55         0.59314
      51 -> 55        -0.29797
      52 -> 55        -0.17735

 Excited State   6:      Singlet-A      5.5910 eV  221.76 nm  f=0.0217  <S**2>=0.000
      53 -> 56        -0.16936
      54 -> 56         0.66265

 Excited State   7:      Singlet-A      5.9221 eV  209.36 nm  f=0.0251  <S**2>=0.000
      50 -> 55        -0.11563
      54 -> 57         0.67136

 Excited State   8:      Singlet-A      6.3772 eV  194.42 nm  f=0.0001  <S**2>=0.000
      49 -> 55         0.68178

 Excited State   9:      Singlet-A      6.5069 eV  190.54 nm  f=0.0012  <S**2>=0.000
      44 -> 55        -0.10372
      45 -> 55        -0.12204
      48 -> 55         0.67363

 Excited State  10:      Singlet-A      6.7276 eV  184.29 nm  f=0.0114  <S**2>=0.000
      47 -> 55         0.17500
      52 -> 56        -0.30627
      53 -> 56         0.56329
      54 -> 56         0.16831

 The electronic state is 1-A.
 Alpha  occ. eigenvalues --  -19.20798 -19.20613 -19.15356 -19.15268 -14.41951
 Alpha  occ. eigenvalues --  -14.41740 -10.35049 -10.34721 -10.26571 -10.26088
 Alpha  occ. eigenvalues --  -10.19139 -10.18848 -10.18836 -10.18808  -1.13280
 Alpha  occ. eigenvalues --   -1.12066  -1.05547  -1.03635  -1.02893  -0.82300
 Alpha  occ. eigenvalues --   -0.80630  -0.76274  -0.70506  -0.70434  -0.66884
 Alpha  occ. eigenvalues --   -0.63047  -0.57433  -0.55755  -0.52290  -0.50766
 Alpha  occ. eigenvalues --   -0.50067  -0.48515  -0.47605  -0.46640  -0.46251
 Alpha  occ. eigenvalues --   -0.44357  -0.43134  -0.42680  -0.41414  -0.40633
 Alpha  occ. eigenvalues --   -0.40295  -0.39986  -0.39317  -0.38077  -0.37510
 Alpha  occ. eigenvalues --   -0.36910  -0.36474  -0.35412  -0.34813  -0.31523
 Alpha  occ. eigenvalues --   -0.31431  -0.30568  -0.30044  -0.24463
 Alpha virt. eigenvalues --   -0.08354   0.00727   0.02055   0.08592   0.08821
 Alpha virt. eigenvalues --    0.10478   0.10817   0.13301   0.13736   0.14504
 Alpha virt. eigenvalues --    0.14773   0.15565   0.16566   0.16934   0.17360

 Mulliken charges:
               1
     1  C   -0.459993
     2  C    0.117547
     3  C   -0.453340
     4  O   -0.432555
     5  C    0.739171
     6  O   -0.414012
     7  N   -0.248713
     8  N   -0.227771
     9  C    0.732116
    10  O   -0.412033
    11  O   -0.432942
    12  C    0.129501
    13  C   -0.470212
    14  C   -0.471936
    15  H    0.153481
    16  H    0.158854
    17  H    0.177302
    18  H    0.167157
    19  H    0.161672
    20  H    0.153916
    21  H    0.164676
    22  H    0.157258
    23  H    0.187714
    24  H    0.163754
    25  H    0.152947
    26  H    0.188007
    27  H    0.154829
    28  H    0.163608
 Sum of Mulliken charges =  -0.00000

 Dipole moment (field-independent basis, Debye):
    X=              0.0328    Y=             -3.6643    Z=              0.0649  Tot=              3.6651
 Quadrupole moment (field-independent basis, Debye-Ang):
   XX=            -56.1949   YY=            -88.5562   ZZ=            -81.2285
   XY=             -2.1530   XZ=              1.2369   YZ=             -0.4123

 Summary of Natural Population Analysis:

                                       Natural Population
                Natural  -----------------------------------------------
    Atom  No    Charge         Core      Valence    Rydberg      Total
 -----------------------------------------------------------------------
      C    1   -0.70435      1.99940     4.69641    0.00855     6.70435
      C    2    0.08156      1.99913     3.90187    0.01744     5.91844
      C    3   -0.69576      1.99939     4.68732    0.00904     6.69576
      O    4   -0.53783      1.99972     6.52555    0.01255     8.53783
      C    5    0.90407      1.99951     3.04464    0.05178     5.09593
      O    6   -0.54112      1.99977     6.52072    0.02062     8.54112
      N    7   -0.21600      1.99939     5.19043    0.02618     7.21600
      N    8   -0.21047      1.99939     5.18452    0.02656     7.21047
      C    9    0.91910      1.99952     3.02872    0.05266     5.08090
      O   10   -0.54557      1.99977     6.52534    0.02047     8.54557
      O   11   -0.53178      1.99972     6.52001    0.01204     8.53178
      C   12    0.08440      1.99912     3.89824    0.01824     5.91560
      C   13   -0.70935      1.99939     4.70195    0.00801     6.70935
      C   14   -0.71048      1.99939     4.70299    0.00810     6.71048
      H   15    0.24055      0.00000     0.75868    0.00077     0.75945
      H   16    0.23593      0.00000     0.76270    0.00136     0.76407
      H   17    0.25065      0.00000     0.74834    0.00100     0.74935
      H   18    0.24281      0.00000     0.75458    0.00261     0.75719
      H   19    0.23814      0.00000     0.76057    0.00129     0.76186
      H   20    0.24036      0.00000     0.75897    0.00066     0.75964
      H   21    0.24521      0.00000     0.75379    0.00100     0.75479
      H   22    0.24533      0.00000     0.75301    0.00166     0.75467
      H   23    0.25231      0.00000     0.74630    0.00139     0.74769
      H   24    0.24345      0.00000     0.75548    0.00107     0.75655
      H   25    0.24090      0.00000     0.75836    0.00074     0.75910
      H   26    0.25216      0.00000     0.74645    0.00139     0.74784
      H   27    0.24246      0.00000     0.75681    0.00072     0.75754
      H   28    0.24332      0.00000     0.75563    0.00105     0.75668
 =======================================================================
   * Total *   -0.00000     27.99262    79.69841    0.30898   108.00000

 Normal termination of Gaussian 16 at Sat Aug 22 14:12:43 2020.
