 Gaussian 16, Revision A.03,

 ---------------------------------
 # opt=CalcAll B3LYP/6-31G* scf=qc
 ---------------------------------

 -------------------
 Title Card Required
 -------------------
 Symbolic Z-matrix:
 Charge =  0 Multiplicity = 1

 SCF Done:  E(RB3LYP) =  -1947.64493550     a.u. after   10 cycles
 SCF Done:  E(RB3LYP) =  -1947.66731710     a.u. after   21 cycles
 SCF Done:  E(RB3LYP) =  -1947.67092331     a.u. after   27 cycles
 SCF Done:  E(RB3LYP) =  -1947.65583753     a.u. after   39 cycles
 SCF Done:  E(RB3LYP) =  -1947.66883135     a.u. after   23 cycles
 SCF Done:  E(RB3LYP) =  -1947.66970154     a.u. after   34 cycles
 SCF Done:  E(RB3LYP) =  -1947.66887186     a.u. after   28 cycles
 SCF Done:  E(RB3LYP) =  -1947.67019872     a.u. after   30 cycles
 SCF Done:  E(RB3LYP) =  -1947.66957042     a.u. after   28 cycles
 SCF Done:  E(RB3LYP) =  -1947.67040062     a.u. after   28 cycles
 SCF Done:  E(RB3LYP) =  -1947.67275589     a.u. after   19 cycles
 SCF Done:  E(RB3LYP) =  -1947.67331577     a.u. after   19 cycles
 SCF Done:  E(RB3LYP) =  -1947.67364527     a.u. after   15 cycles
 SCF Done:  E(RB3LYP) =  -1947.67351677     a.u. after   21 cycles
 SCF Done:  E(RB3LYP) =  -1947.67378200     a.u. after   14 cycles
 SCF Done:  E(RB3LYP) =  -1947.67380610     a.u. after    9 cycles
 SCF Done:  E(RB3LYP) =  -1947.67380617     a.u. after    3 cycles
 SCF Done:  E(RB3LYP) =  -1947.67380619     a.u. after    2 cycles
 Optimization completed.
    -- Stationary point found.
 Normal termination of Gaussian 16 at Sat Aug 22 22:33:17 2020.

 ----------------------------------------------------------------------
 # freq B3LYP/6-31G* scf=qc volume NMR pop=NPA density=current Geom=All
 Check Guess=Read
 ----------------------------------------------------------------------

 Structure from the checkpoint file:  "azadicarboxylate_3_conf182.chk"
 -------------------
 Title Card Required
 -------------------
 Charge =  0 Multiplicity = 1

 SCF Done:  E(RB3LYP) =  -1947.67380619     a.u. after    1 cycles

      1  C    Isotropic =    63.8384   Anisotropy =   171.8218

      2  C    Isotropic =   121.6453   Anisotropy =    40.5260

      3  O    Isotropic =   142.2780   Anisotropy =   137.5153

      4  C    Isotropic =    34.6731   Anisotropy =    77.0013

      5  O    Isotropic =   -19.7787   Anisotropy =   495.3509

      6  N    Isotropic =  -323.3252   Anisotropy =   674.9200

      7  N    Isotropic =  -323.3154   Anisotropy =   674.9145

      8  C    Isotropic =    34.6750   Anisotropy =    77.0249

      9  O    Isotropic =   -19.7817   Anisotropy =   495.3803

     10  O    Isotropic =   142.2796   Anisotropy =   137.4918

     11  C    Isotropic =   121.6450   Anisotropy =    40.5262

     12  C    Isotropic =    63.8390   Anisotropy =   171.8213

     13  C    Isotropic =    64.0374   Anisotropy =   152.6979

     14  C    Isotropic =    67.2412   Anisotropy =   141.0968

     15  C    Isotropic =    51.1202   Anisotropy =   111.0283

     16  C    Isotropic =    66.7533   Anisotropy =   142.0711

     17  C    Isotropic =    62.6757   Anisotropy =   158.1040

     18  Cl   Isotropic =   718.0368   Anisotropy =   454.6612

     19  C    Isotropic =    62.6758   Anisotropy =   158.1057

     20  C    Isotropic =    66.7531   Anisotropy =   142.0713

     21  C    Isotropic =    51.1204   Anisotropy =   111.0282

     22  C    Isotropic =    67.2416   Anisotropy =   141.0965

     23  C    Isotropic =    64.0375   Anisotropy =   152.6961

     24  Cl   Isotropic =   718.0364   Anisotropy =   454.6617

     25  H    Isotropic =    26.4906   Anisotropy =     2.5993

     26  H    Isotropic =    27.7214   Anisotropy =     5.5082

     27  H    Isotropic =    26.4907   Anisotropy =     2.5993

     28  H    Isotropic =    27.7214   Anisotropy =     5.5078

     29  H    Isotropic =    24.9635   Anisotropy =     6.4800

     30  H    Isotropic =    25.0721   Anisotropy =     6.9724

     31  H    Isotropic =    25.0165   Anisotropy =     7.3055

     32  H    Isotropic =    24.3592   Anisotropy =     7.4210

     33  H    Isotropic =    24.3591   Anisotropy =     7.4212

     34  H    Isotropic =    25.0165   Anisotropy =     7.3054

     35  H    Isotropic =    25.0721   Anisotropy =     6.9723

     36  H    Isotropic =    24.9635   Anisotropy =     6.4798

  Exact polarizability: 308.851  52.395 146.054   9.166 -18.252 184.152
 Approx polarizability: 371.727  94.632 231.324  12.381 -41.519 344.430

                      1                      2                      3
                      A                      A                      A
 Frequencies --      3.9883                11.5303                21.1407
 Red. masses --     11.1455                14.0314                 8.7949
 Frc consts  --      0.0001                 0.0011                 0.0023
 IR Inten    --      0.3168                 0.1121                 0.0000

                      4                      5                      6
                      A                      A                      A
 Frequencies --     24.3109                30.6863                41.9805
 Red. masses --      3.9661                 5.5021                11.3863
 Frc consts  --      0.0014                 0.0031                 0.0118
 IR Inten    --      0.2192                 0.0000                 0.0000

                      7                      8                      9
                      A                      A                      A
 Frequencies --     46.7051                66.0043                75.9881
 Red. masses --     10.7750                 8.6447                 6.9225
 Frc consts  --      0.0138                 0.0222                 0.0236
 IR Inten    --      2.8732                 0.0000                 3.9724

                     10                     11                     12
                      A                      A                      A
 Frequencies --     95.1166               102.7291               169.0150
 Red. masses --     10.9105                 9.6267                11.0010
 Frc consts  --      0.0582                 0.0599                 0.1852
 IR Inten    --      1.3817                 0.0000                 0.9288

                     13                     14                     15
                      A                      A                      A
 Frequencies --    175.0149               201.5614               213.5933
 Red. masses --     10.6931                 9.9778                 8.2381
 Frc consts  --      0.1930                 0.2388                 0.2214
 IR Inten    --      0.0000                 0.0000                15.0239

                     16                     17                     18
                      A                      A                      A
 Frequencies --    258.1481               260.4834               293.4714
 Red. masses --      8.3979                11.1213                 4.2656
 Frc consts  --      0.3297                 0.4446                 0.2165
 IR Inten    --      0.0000                 3.9691                 0.0000

                     19                     20                     21
                      A                      A                      A
 Frequencies --    299.4475               341.2958               353.8440
 Red. masses --      4.7692                 8.5146                10.2657
 Frc consts  --      0.2520                 0.5844                 0.7573
 IR Inten    --     15.3090                 8.1040                 0.0000

                     22                     23                     24
                      A                      A                      A
 Frequencies --    375.7631               384.5460               419.7000
 Red. masses --      2.6156                 2.3345                 3.4465
 Frc consts  --      0.2176                 0.2034                 0.3577
 IR Inten    --      0.0000                18.2271                 0.0000

                     25                     26                     27
                      A                      A                      A
 Frequencies --    420.4834               423.8169               431.1272
 Red. masses --      3.0378                 5.9545                 6.9236
 Frc consts  --      0.3164                 0.6302                 0.7582
 IR Inten    --      0.0334                 0.0000                36.7854

                     28                     29                     30
                      A                      A                      A
 Frequencies --    456.7030               516.3203               551.9896
 Red. masses --      4.8967                 3.9451                 4.0222
 Frc consts  --      0.6018                 0.6196                 0.7221
 IR Inten    --      0.0000                15.8297                 0.0000

                     31                     32                     33
                      A                      A                      A
 Frequencies --    600.4242               610.7322               642.7197
 Red. masses --      8.6134                 6.7828                 8.1444
 Frc consts  --      1.8295                 1.4906                 1.9822
 IR Inten    --      0.0005                33.0137                23.5359

                     34                     35                     36
                      A                      A                      A
 Frequencies --    648.0822               648.2549               665.1068
 Red. masses --      6.7773                 6.7939                 4.9235
 Frc consts  --      1.6771                 1.6821                 1.2832
 IR Inten    --      0.0000                 1.6395                 6.3724

                     37                     38                     39
                      A                      A                      A
 Frequencies --    665.8850               735.2645               738.8091
 Red. masses --      5.1159                 4.3132                 4.1371
 Frc consts  --      1.3365                 1.3738                 1.3305
 IR Inten    --      0.0000                 0.0000                10.3088

                     40                     41                     42
                      A                      A                      A
 Frequencies --    811.3402               819.9280               822.2751
 Red. masses --     10.6418                 2.7151                 2.5293
 Frc consts  --      4.1273                 1.0754                 1.0076
 IR Inten    --     13.3961                 0.0000                96.9124

                     43                     44                     45
                      A                      A                      A
 Frequencies --    829.9884               843.6390               843.7446
 Red. masses --      4.1537                 1.2795                 1.3045
 Frc consts  --      1.6859                 0.5365                 0.5472
 IR Inten    --      0.0000                 1.9590                 0.0000

                     46                     47                     48
                      A                      A                      A
 Frequencies --    859.7978               860.8266               882.8886
 Red. masses --      2.2830                 2.4202                 4.2219
 Frc consts  --      0.9944                 1.0567                 1.9390
 IR Inten    --      0.0000               143.4861                45.9681

                     49                     50                     51
                      A                      A                      A
 Frequencies --    912.1789               962.3668               963.8279
 Red. masses --      6.5967                 1.4217                 1.3548
 Frc consts  --      3.2340                 0.7758                 0.7415
 IR Inten    --      0.0000                25.3031                 0.0000

                     52                     53                     54
                      A                      A                      A
 Frequencies --    974.0221               975.5003               980.3627
 Red. masses --      1.5355                 1.3394                 2.8345
 Frc consts  --      0.8583                 0.7510                 1.6051
 IR Inten    --     57.0264                 0.0000               144.1990

                     55                     56                     57
                      A                      A                      A
 Frequencies --    989.5473              1024.4239              1025.9504
 Red. masses --      3.6760                 2.4144                 2.7727
 Frc consts  --      2.1208                 1.4929                 1.7195
 IR Inten    --      0.0000                38.7564                 0.0000

                     58                     59                     60
                      A                      A                      A
 Frequencies --   1035.3862              1035.4762              1110.7430
 Red. masses --      3.8142                 3.8237                 3.1245
 Frc consts  --      2.4091                 2.4155                 2.2712
 IR Inten    --     41.5537                 0.0000               153.5224

                     61                     62                     63
                      A                      A                      A
 Frequencies --   1111.0148              1146.3384              1146.3679
 Red. masses --      3.1256                 1.3244                 1.3243
 Frc consts  --      2.2731                 1.0254                 1.0254
 IR Inten    --      0.0003                 0.0001                 5.8256

                     64                     65                     66
                      A                      A                      A
 Frequencies --   1215.4846              1216.0029              1240.1102
 Red. masses --      1.1573                 1.1452                 3.2202
 Frc consts  --      1.0074                 0.9977                 2.9178
 IR Inten    --     40.1073                 0.0000               100.9285

                     67                     68                     69
                      A                      A                      A
 Frequencies --   1240.2398              1247.5116              1259.8121
 Red. masses --      3.0594                 4.0180                 3.8255
 Frc consts  --      2.7726                 3.6842                 3.5773
 IR Inten    --      0.0003              1429.5235                 0.0001

                     70                     71                     72
                      A                      A                      A
 Frequencies --   1295.9450              1297.3423              1336.4303
 Red. masses --      1.4988                 1.6086                 1.8098
 Frc consts  --      1.4831                 1.5952                 1.9044
 IR Inten    --    165.6668                 0.0001                 2.9337

                     73                     74                     75
                      A                      A                      A
 Frequencies --   1336.4676              1363.4274              1363.4804
 Red. masses --      1.8184                 2.1691                 2.1652
 Frc consts  --      1.9137                 2.3757                 2.3716
 IR Inten    --      0.0001                12.3982                 0.0001

                     76                     77                     78
                      A                      A                      A
 Frequencies --   1415.8951              1417.4265              1456.2096
 Red. masses --      1.3442                 1.3601                 2.6061
 Frc consts  --      1.5877                 1.6100                 3.2560
 IR Inten    --      0.0000                40.4397                14.5059

                     79                     80                     81
                      A                      A                      A
 Frequencies --   1456.2196              1518.2239              1518.4759
 Red. masses --      2.6058                 1.1173                 1.1199
 Frc consts  --      3.2557                 1.5173                 1.5215
 IR Inten    --      0.0028                23.5934                 0.0009

                     82                     83                     84
                      A                      A                      A
 Frequencies --   1541.5292              1541.6597              1631.0386
 Red. masses --      2.3089                 2.3033                 6.6823
 Frc consts  --      3.2326                 3.2254                10.4738
 IR Inten    --     93.8335                 0.0000                 1.2166

                     85                     86                     87
                      A                      A                      A
 Frequencies --   1631.0426              1654.6274              1656.0947
 Red. masses --      6.6816                13.6724                 5.5928
 Frc consts  --     10.4727                22.0544                 9.0375
 IR Inten    --      0.0034                 0.0000                60.4772

                     88                     89                     90
                      A                      A                      A
 Frequencies --   1656.1344              1833.4507              1847.6526
 Red. masses --      5.6439                12.2216                12.1636
 Frc consts  --      9.1206                24.2056                24.4655
 IR Inten    --      0.0005                 0.0001               467.5571

                     91                     92                     93
                      A                      A                      A
 Frequencies --   3112.5949              3112.6453              3170.0628
 Red. masses --      1.0578                 1.0578                 1.1109
 Frc consts  --      6.0380                 6.0382                 6.5776
 IR Inten    --     37.9154                 0.0083                 0.0354

                     94                     95                     96
                      A                      A                      A
 Frequencies --   3170.0752              3190.7300              3190.7374
 Red. masses --      1.1109                 1.0897                 1.0897
 Frc consts  --      6.5777                 6.5363                 6.5364
 IR Inten    --      7.0215                 0.0975                17.0211

                     97                     98                     99
                      A                      A                      A
 Frequencies --   3212.1115              3212.1159              3226.0843
 Red. masses --      1.0890                 1.0890                 1.0935
 Frc consts  --      6.6200                 6.6200                 6.7053
 IR Inten    --      2.3694                 0.0238                 4.3029

                    100                    101                    102
                      A                      A                      A
 Frequencies --   3226.0856              3228.4979              3228.4994
 Red. masses --      1.0935                 1.0948                 1.0948
 Frc consts  --      6.7053                 6.7235                 6.7235
 IR Inten    --      3.0415                 1.5188                 0.8383

 - Thermochemistry -
 -------------------
 Temperature   298.150 Kelvin.  Pressure   1.00000 Atm.
 Atom     1 has atomic number  6 and mass  12.00000

 Molecular mass:   366.01741 amu.
 Principal axes and moments of inertia in atomic units:
                           1         2         3
     Eigenvalues --  2417.96163********************
           X            0.99998  -0.00669   0.00049
           Y            0.00671   0.99687  -0.07871
           Z            0.00004   0.07871   0.99690
 This molecule is an asymmetric top.
 Rotational symmetry number  1.
 Warning -- assumption of classical behavior for rotation
           may cause significant error
 Rotational temperatures (Kelvin)      0.03582     0.00218     0.00217
 Rotational constants (GHZ):           0.74639     0.04548     0.04512
 Zero-point vibrational energy     678628.9 (Joules/Mol)
                                  162.19620 (Kcal/Mol)
 Warning -- explicit consideration of  32 degrees of freedom as
           vibrations may cause significant error
 Vibrational temperatures:      5.74    16.59    30.42    34.98    44.15
          (Kelvin)             60.40    67.20    94.97   109.33   136.85
                              147.80   243.17   251.81   290.00   307.31
                              371.42   374.78   422.24   430.84   491.05
                              509.10   540.64   553.28   603.85   604.98
                              609.78   620.30   657.09   742.87   794.19
                              863.88   878.71   924.73   932.45   932.69
                              956.94   958.06  1057.88  1062.98  1167.34
                             1179.69  1183.07  1194.17  1213.81  1213.96
                             1237.06  1238.54  1270.28  1312.42  1384.63
                             1386.73  1401.40  1403.53  1410.52  1423.74
                             1473.92  1476.11  1489.69  1489.82  1598.11
                             1598.50  1649.33  1649.37  1748.81  1749.56
                             1784.24  1784.43  1794.89  1812.59  1864.58
                             1866.59  1922.83  1922.88  1961.67  1961.74
                             2037.16  2039.36  2095.16  2095.18  2184.39
                             2184.75  2217.92  2218.10  2346.70  2346.71
                             2380.64  2382.75  2382.81  2637.93  2658.36
                             4478.33  4478.40  4561.01  4561.03  4590.75
                             4590.76  4621.51  4621.52  4641.62  4641.62
                             4645.09  4645.09

 Zero-point correction=                           0.258476 (Hartree/Particle)
 Thermal correction to Energy=                    0.280377
 Thermal correction to Enthalpy=                  0.281321
 Thermal correction to Gibbs Free Energy=         0.198972
 Sum of electronic and zero-point Energies=          -1947.415330
 Sum of electronic and thermal Energies=             -1947.393430
 Sum of electronic and thermal Enthalpies=           -1947.392485
 Sum of electronic and thermal Free Energies=        -1947.474834

                     E (Thermal)             CV                S
                      KCal/Mol        Cal/Mol-Kelvin    Cal/Mol-Kelvin
 Total                  175.939             79.069            173.317
 Electronic               0.000              0.000              0.000
 Translational            0.889              2.981             43.586
 Rotational               0.889              2.981             36.593
 Vibrational            174.162             73.108             93.138
 Vibration     1          0.593              1.987              9.838
 Vibration     2          0.593              1.987              7.728
 Vibration     3          0.593              1.985              6.524
 Vibration     4          0.593              1.985              6.247
 Vibration     5          0.594              1.984              5.785
 Vibration     6          0.595              1.980              5.163
 Vibration     7          0.595              1.979              4.952
 Vibration     8          0.597              1.970              4.269
 Vibration     9          0.599              1.965              3.992
 Vibration    10          0.603              1.953              3.552
 Vibration    11          0.605              1.947              3.402
 Vibration    12          0.625              1.881              2.446
 Vibration    13          0.627              1.873              2.381
 Vibration    14          0.638              1.838              2.119
 Vibration    15          0.644              1.820              2.013
 Vibration    16          0.667              1.749              1.674
 Vibration    17          0.669              1.745              1.659
 Vibration    18          0.688              1.686              1.454
 Vibration    19          0.692              1.675              1.420
 Vibration    20          0.721              1.593              1.206
 Vibration    21          0.730              1.567              1.149
 Vibration    22          0.747              1.522              1.056
 Vibration    23          0.753              1.503              1.021
 Vibration    24          0.782              1.427              0.893
 Vibration    25          0.783              1.426              0.890
 Vibration    26          0.786              1.418              0.879
 Vibration    27          0.792              1.402              0.855
 Vibration    28          0.815              1.346              0.776
 Vibration    29          0.871              1.214              0.619
 Vibration    30          0.907              1.135              0.540
 Vibration    31          0.959              1.031              0.449
 Vibration    32          0.970              1.009              0.432

 Optimization completed.
    -- Stationary point found.
 Normal termination of Gaussian 16 at Sat Aug 22 22:45:26 2020.
 Gaussian 16:  ES64L-G16RevA.03 25-Dec-2016

 ----------------------------------------------------------------------
 # TD(NStates=10, Root=1) B3LYP/6-31G* scf=qc volume pop=NPA density=cu
 rrent Geom=AllCheck Guess=Read
 ----------------------------------------------------------------------

 Structure from the checkpoint file:  "azadicarboxylate_3_conf183.chk"
 -------------------
 Title Card Required
 -------------------
 Charge =  0 Multiplicity = 1

                         Standard orientation:
 ---------------------------------------------------------------------
 Center     Atomic      Atomic             Coordinates (Angstroms)
 Number     Number       Type             X           Y           Z
 ---------------------------------------------------------------------
      1          6           0       -4.607984    1.209825    0.049249
      2          6           0       -3.337439    2.014428    0.107183
      3          8           0       -2.172565    1.217000   -0.292834
      4          6           0       -1.563752    0.537940    0.675542
      5          8           0       -1.834680    0.502694    1.850162
      6          7           0       -0.527958   -0.307334    0.117280
      7          7           0        0.528063    0.308362   -0.118269
      8          6           0        1.563851   -0.536918   -0.676534
      9          8           0        1.835150   -0.501226   -1.851056
     10          8           0        2.172197   -1.216553    0.291733
     11          6           0        3.336994   -2.014096   -0.108278
     12          6           0        4.607720   -1.209831   -0.049651
     13          6           0        5.334318   -1.122224    1.144155
     14          6           0        6.507592   -0.373734    1.217197
     15          6           0        6.954565    0.293320    0.076851
     16          6           0        6.249559    0.223600   -1.124431
     17          6           0        5.077358   -0.528641   -1.180507
     18         17           0        8.435782    1.235481    0.155016
     19          6           0       -5.077075    0.528895    1.180488
     20          6           0       -6.249098   -0.223669    1.125050
     21          6           0       -6.954480   -0.293976   -0.075977
     22          6           0       -6.508057    0.372812   -1.216693
     23          6           0       -5.334951    1.121630   -1.144288
     24         17           0       -8.435476   -1.236550   -0.153339
     25          1           0       -3.150824    2.410562    1.106581
     26          1           0       -3.343445    2.829552   -0.617845
     27          1           0        3.150569   -2.409774   -1.107892
     28          1           0        3.342590   -2.829520    0.616417
     29          1           0        4.982153   -1.645485    2.029757
     30          1           0        7.070466   -0.309520    2.142110
     31          1           0        6.613754    0.749098   -2.000617
     32          1           0        4.515009   -0.579205   -2.107892
     33          1           0       -4.514434    0.579918    2.107671
     34          1           0       -6.612869   -0.748967    2.001533
     35          1           0       -7.071219    0.308143   -2.141399
     36          1           0       -4.983213    1.644684   -2.030182
 ---------------------------------------------------------------------

 SCF Done:  E(RB3LYP) =  -1947.67380619     a.u. after    1 cycles

 Excitation energies and oscillator strengths:

 Excited State   1:      Singlet-A      2.9453 eV  420.95 nm  f=0.0000  <S**2>=0.000
      92 -> 95        -0.46329
      94 -> 95         0.52623
 This state for optimization and/or second-order correction.
 Total Energy, E(TD-HF/TD-DFT) =  -1947.56556714
 Copying the excited state density for this state as the 1-particle RhoCI density.

 Excited State   2:      Singlet-A      4.0336 eV  307.37 nm  f=0.0090  <S**2>=0.000
      93 -> 95         0.70534

 Excited State   3:      Singlet-A      4.0827 eV  303.68 nm  f=0.0000  <S**2>=0.000
      92 -> 95         0.52502
      94 -> 95         0.46948

 Excited State   4:      Singlet-A      4.4962 eV  275.75 nm  f=0.0010  <S**2>=0.000
      91 -> 95         0.70619

 Excited State   5:      Singlet-A      4.4977 eV  275.66 nm  f=0.0000  <S**2>=0.000
      90 -> 95         0.70525

 Excited State   6:      Singlet-A      5.0865 eV  243.75 nm  f=0.1308  <S**2>=0.000
      89 -> 95         0.68872

 Excited State   7:      Singlet-A      5.2216 eV  237.45 nm  f=0.0000  <S**2>=0.000
      84 -> 95        -0.26460
      86 -> 95         0.61021
      88 -> 95         0.12232
      94 -> 96         0.11573

 Excited State   8:      Singlet-A      5.2365 eV  236.77 nm  f=0.0000  <S**2>=0.000
      90 -> 96        -0.31578
      91 -> 97         0.31623
      92 -> 99         0.16105
      93 -> 98         0.36040
      94 -> 99         0.35977

 Excited State   9:      Singlet-A      5.2366 eV  236.77 nm  f=0.0008  <S**2>=0.000
      90 -> 97         0.31493
      91 -> 96        -0.31725
      92 -> 98         0.16102
      93 -> 99         0.36007
      94 -> 98         0.35972

 Excited State  10:      Singlet-A      5.4280 eV  228.42 nm  f=0.0000  <S**2>=0.000
      84 -> 95        -0.26800
      86 -> 95        -0.25000
      92 -> 96        -0.23666
      92 ->100         0.11908
      94 -> 96         0.49493
      94 ->100        -0.17021

 The electronic state is 1-A.
 Alpha  occ. eigenvalues -- -101.55479-101.55479 -19.22028 -19.22028 -19.16438
 Alpha  occ. eigenvalues --  -19.16438 -14.43027 -14.42977 -10.35997 -10.35997
 Alpha  occ. eigenvalues --  -10.26832 -10.26832 -10.26405 -10.26405 -10.21752
 Alpha  occ. eigenvalues --  -10.21752 -10.21490 -10.21490 -10.21407 -10.21407
 Alpha  occ. eigenvalues --  -10.21312 -10.21312 -10.21155 -10.21155  -9.47112
 Alpha  occ. eigenvalues --   -9.47112  -7.23508  -7.23508  -7.22542  -7.22542
 Alpha  occ. eigenvalues --   -7.22504  -7.22504  -1.14520  -1.13277  -1.06428
 Alpha  occ. eigenvalues --   -1.04718  -1.04303  -0.90000  -0.89989  -0.85371
 Alpha  occ. eigenvalues --   -0.85198  -0.81379  -0.78400  -0.76935  -0.76931
 Alpha  occ. eigenvalues --   -0.76463  -0.71546  -0.69761  -0.63480  -0.63477
 Alpha  occ. eigenvalues --   -0.62736  -0.60806  -0.59341  -0.57560  -0.56410
 Alpha  occ. eigenvalues --   -0.53298  -0.52813  -0.51651  -0.50323  -0.50182
 Alpha  occ. eigenvalues --   -0.48965  -0.48683  -0.48367  -0.48026  -0.46823
 Alpha  occ. eigenvalues --   -0.45290  -0.44853  -0.44633  -0.44008  -0.43693
 Alpha  occ. eigenvalues --   -0.42396  -0.41820  -0.40849  -0.40329  -0.40193
 Alpha  occ. eigenvalues --   -0.38945  -0.38622  -0.38389  -0.37924  -0.36479
 Alpha  occ. eigenvalues --   -0.36462  -0.34030  -0.33947  -0.32596  -0.32564
 Alpha  occ. eigenvalues --   -0.32354  -0.31876  -0.31847  -0.30991  -0.27269
 Alpha  occ. eigenvalues --   -0.27262  -0.26380  -0.25568  -0.25102
 Alpha virt. eigenvalues --   -0.08912  -0.03344  -0.03255  -0.02274  -0.02273
 Alpha virt. eigenvalues --   -0.00001   0.00063   0.02339   0.02349   0.09620
 Alpha virt. eigenvalues --    0.09798   0.10774   0.10916   0.11842   0.12107

 Mulliken charges:
               1
     1  C    0.150006
     2  C   -0.155748
     3  O   -0.407048
     4  C    0.736352
     5  O   -0.418280
     6  N   -0.240534
     7  N   -0.240540
     8  C    0.736351
     9  O   -0.418305
    10  O   -0.407058
    11  C   -0.155742
    12  C    0.150004
    13  C   -0.164091
    14  C   -0.128173
    15  C   -0.062234
    16  C   -0.129209
    17  C   -0.171540
    18  Cl  -0.012990
    19  C   -0.171544
    20  C   -0.129209
    21  C   -0.062235
    22  C   -0.128173
    23  C   -0.164093
    24  Cl  -0.012988
    25  H    0.186761
    26  H    0.173828
    27  H    0.186759
    28  H    0.173826
    29  H    0.147078
    30  H    0.161698
    31  H    0.163305
    32  H    0.170840
    33  H    0.170842
    34  H    0.163306
    35  H    0.161699
    36  H    0.147078
 Sum of Mulliken charges =  -0.00000

 Dipole moment (field-independent basis, Debye):
    X=             -0.0013    Y=             -0.0006    Z=             -0.0004  Tot=              0.0015
 Quadrupole moment (field-independent basis, Debye-Ang):
   XX=           -154.0997   YY=           -141.1530   ZZ=           -146.1381
   XY=            -18.1474   XZ=              4.7931   YZ=             -3.7437

 Summary of Natural Population Analysis:

                                       Natural Population
                Natural  -----------------------------------------------
    Atom  No    Charge         Core      Valence    Rydberg      Total
 -----------------------------------------------------------------------
      C    1   -0.09396      1.99901     4.08057    0.01439     6.09396
      C    2   -0.12587      1.99912     4.10755    0.01920     6.12587
      O    3   -0.52123      1.99973     6.50917    0.01234     8.52123
      C    4    0.92266      1.99950     3.02724    0.05059     5.07734
      O    5   -0.55358      1.99977     6.53313    0.02069     8.55358
      N    6   -0.21864      1.99938     5.19296    0.02630     7.21864
      N    7   -0.21864      1.99938     5.19295    0.02630     7.21864
      C    8    0.92265      1.99950     3.02726    0.05059     5.07735
      O    9   -0.55360      1.99977     6.53315    0.02069     8.55360
      O   10   -0.52124      1.99973     6.50918    0.01234     8.52124
      C   11   -0.12587      1.99912     4.10755    0.01920     6.12587
      C   12   -0.09396      1.99901     4.08057    0.01439     6.09396
      C   13   -0.19858      1.99903     4.18643    0.01311     6.19858
      C   14   -0.24328      1.99893     4.22943    0.01492     6.24328
      C   15   -0.03501      1.99856     4.01468    0.02177     6.03501
      C   16   -0.24234      1.99894     4.22847    0.01494     6.24234
      C   17   -0.19859      1.99903     4.18619    0.01337     6.19859
     Cl   18    0.00344      9.99967     6.97759    0.01930    16.99656
      C   19   -0.19859      1.99903     4.18619    0.01337     6.19859
      C   20   -0.24234      1.99894     4.22847    0.01494     6.24234
      C   21   -0.03501      1.99856     4.01468    0.02177     6.03501
      C   22   -0.24328      1.99893     4.22943    0.01492     6.24328
      C   23   -0.19858      1.99903     4.18643    0.01311     6.19858
     Cl   24    0.00344      9.99967     6.97759    0.01930    16.99656
      H   25    0.24426      0.00000     0.75363    0.00211     0.75574
      H   26    0.24372      0.00000     0.75511    0.00116     0.75628
      H   27    0.24426      0.00000     0.75363    0.00211     0.75574
      H   28    0.24372      0.00000     0.75511    0.00116     0.75628
      H   29    0.24443      0.00000     0.75456    0.00101     0.75557
      H   30    0.25676      0.00000     0.74222    0.00101     0.74324
      H   31    0.25752      0.00000     0.74148    0.00100     0.74248
      H   32    0.25831      0.00000     0.74030    0.00139     0.74169
      H   33    0.25831      0.00000     0.74030    0.00139     0.74169
      H   34    0.25752      0.00000     0.74148    0.00100     0.74248
      H   35    0.25677      0.00000     0.74222    0.00101     0.74323
      H   36    0.24443      0.00000     0.75456    0.00101     0.75557
 =======================================================================
   * Total *    0.00000     63.98135   123.52146    0.49719   188.00000

 Normal termination of Gaussian 16 at Sat Aug 22 22:58:27 2020.
