 Gaussian 16, Revision A.03,

 ---------------------------------
 # opt=CalcAll B3LYP/6-31G* scf=qc
 ---------------------------------

 -------------------
 Title Card Required
 -------------------
 Symbolic Z-matrix:
 Charge =  0 Multiplicity = 1

 SCF Done:  E(RB3LYP) =  -1947.64253394     a.u. after    9 cycles
 SCF Done:  E(RB3LYP) =  -1947.66379735     a.u. after   21 cycles
 SCF Done:  E(RB3LYP) =  -1947.67079968     a.u. after   19 cycles
 SCF Done:  E(RB3LYP) =  -1947.67298926     a.u. after   19 cycles
 SCF Done:  E(RB3LYP) =  -1947.67353919     a.u. after   17 cycles
 SCF Done:  E(RB3LYP) =  -1947.67364445     a.u. after   15 cycles
 SCF Done:  E(RB3LYP) =  -1947.67368264     a.u. after   13 cycles
 SCF Done:  E(RB3LYP) =  -1947.67296749     a.u. after   21 cycles
 SCF Done:  E(RB3LYP) =  -1947.67377357     a.u. after   14 cycles
 SCF Done:  E(RB3LYP) =  -1947.67380574     a.u. after    7 cycles
 SCF Done:  E(RB3LYP) =  -1947.67380613     a.u. after    5 cycles
 SCF Done:  E(RB3LYP) =  -1947.67380617     a.u. after    2 cycles
 SCF Done:  E(RB3LYP) =  -1947.67380619     a.u. after    2 cycles
 Optimization completed.
    -- Stationary point found.
 Normal termination of Gaussian 16 at Sat Aug 22 16:20:48 2020.

 ----------------------------------------------------------------------
 # freq B3LYP/6-31G* scf=qc volume NMR pop=NPA density=current Geom=All
 Check Guess=Read
 ----------------------------------------------------------------------

 Structure from the checkpoint file:  "azadicarboxylate_3_conf302.chk"
 -------------------
 Title Card Required
 -------------------
 Charge =  0 Multiplicity = 1

 SCF Done:  E(RB3LYP) =  -1947.67380619     a.u. after    1 cycles

      1  C    Isotropic =    63.8386   Anisotropy =   171.8214

      2  C    Isotropic =   121.6451   Anisotropy =    40.5265

      3  O    Isotropic =   142.2786   Anisotropy =   137.4933

      4  C    Isotropic =    34.6744   Anisotropy =    77.0234

      5  O    Isotropic =   -19.7824   Anisotropy =   495.3808

      6  N    Isotropic =  -323.3225   Anisotropy =   674.9239

      7  N    Isotropic =  -323.3214   Anisotropy =   674.9233

      8  C    Isotropic =    34.6747   Anisotropy =    77.0260

      9  O    Isotropic =   -19.7826   Anisotropy =   495.3844

     10  O    Isotropic =   142.2789   Anisotropy =   137.4908

     11  C    Isotropic =   121.6451   Anisotropy =    40.5264

     12  C    Isotropic =    63.8388   Anisotropy =   171.8213

     13  C    Isotropic =    64.0375   Anisotropy =   152.6969

     14  C    Isotropic =    67.2414   Anisotropy =   141.0966

     15  C    Isotropic =    51.1203   Anisotropy =   111.0283

     16  C    Isotropic =    66.7532   Anisotropy =   142.0712

     17  C    Isotropic =    62.6758   Anisotropy =   158.1046

     18  Cl   Isotropic =   718.0364   Anisotropy =   454.6617

     19  C    Isotropic =    62.6758   Anisotropy =   158.1049

     20  C    Isotropic =    66.7531   Anisotropy =   142.0713

     21  C    Isotropic =    51.1203   Anisotropy =   111.0283

     22  C    Isotropic =    67.2415   Anisotropy =   141.0966

     23  C    Isotropic =    64.0375   Anisotropy =   152.6965

     24  Cl   Isotropic =   718.0363   Anisotropy =   454.6619

     25  H    Isotropic =    26.4906   Anisotropy =     2.5992

     26  H    Isotropic =    27.7214   Anisotropy =     5.5080

     27  H    Isotropic =    26.4906   Anisotropy =     2.5992

     28  H    Isotropic =    27.7214   Anisotropy =     5.5080

     29  H    Isotropic =    24.9635   Anisotropy =     6.4799

     30  H    Isotropic =    25.0721   Anisotropy =     6.9723

     31  H    Isotropic =    25.0165   Anisotropy =     7.3055

     32  H    Isotropic =    24.3591   Anisotropy =     7.4211

     33  H    Isotropic =    24.3591   Anisotropy =     7.4212

     34  H    Isotropic =    25.0165   Anisotropy =     7.3055

     35  H    Isotropic =    25.0721   Anisotropy =     6.9723

     36  H    Isotropic =    24.9635   Anisotropy =     6.4799

  Exact polarizability: 308.849 -52.396 146.048  -9.156 -18.245 184.160
 Approx polarizability: 371.723 -94.634 231.311 -12.360 -41.501 344.450

                      1                      2                      3
                      A                      A                      A
 Frequencies --      3.9939                11.5303                21.1419
 Red. masses --     11.1454                14.0314                 8.7960
 Frc consts  --      0.0001                 0.0011                 0.0023
 IR Inten    --      0.3168                 0.1121                 0.0000

                      4                      5                      6
                      A                      A                      A
 Frequencies --     24.3115                30.6851                42.0008
 Red. masses --      3.9661                 5.5022                11.3816
 Frc consts  --      0.0014                 0.0031                 0.0118
 IR Inten    --      0.2192                 0.0000                 0.0000

                      7                      8                      9
                      A                      A                      A
 Frequencies --     46.7069                66.0231                75.9896
 Red. masses --     10.7750                 8.6455                 6.9224
 Frc consts  --      0.0138                 0.0222                 0.0236
 IR Inten    --      2.8733                 0.0000                 3.9736

                     10                     11                     12
                      A                      A                      A
 Frequencies --     95.1184               102.7315               169.0165
 Red. masses --     10.9105                 9.6267                11.0010
 Frc consts  --      0.0582                 0.0599                 0.1852
 IR Inten    --      1.3819                 0.0000                 0.9287

                     13                     14                     15
                      A                      A                      A
 Frequencies --    175.0210               201.5592               213.5918
 Red. masses --     10.6937                 9.9778                 8.2381
 Frc consts  --      0.1930                 0.2388                 0.2214
 IR Inten    --      0.0000                 0.0000                15.0243

                     16                     17                     18
                      A                      A                      A
 Frequencies --    258.1460               260.4874               293.4730
 Red. masses --      8.3976                11.1212                 4.2657
 Frc consts  --      0.3297                 0.4446                 0.2165
 IR Inten    --      0.0000                 3.9690                 0.0000

                     19                     20                     21
                      A                      A                      A
 Frequencies --    299.4482               341.2962               353.8507
 Red. masses --      4.7692                 8.5146                10.2654
 Frc consts  --      0.2520                 0.5844                 0.7573
 IR Inten    --     15.3080                 8.1038                 0.0000

                     22                     23                     24
                      A                      A                      A
 Frequencies --    375.7646               384.5465               419.7015
 Red. masses --      2.6155                 2.3345                 3.4454
 Frc consts  --      0.2176                 0.2034                 0.3576
 IR Inten    --      0.0000                18.2267                 0.0000

                     25                     26                     27
                      A                      A                      A
 Frequencies --    420.4836               423.8222               431.1281
 Red. masses --      3.0378                 5.9584                 6.9236
 Frc consts  --      0.3164                 0.6306                 0.7582
 IR Inten    --      0.0334                 0.0000                36.7858

                     28                     29                     30
                      A                      A                      A
 Frequencies --    456.7009               516.3204               551.9881
 Red. masses --      4.8969                 3.9451                 4.0220
 Frc consts  --      0.6018                 0.6196                 0.7220
 IR Inten    --      0.0000                15.8298                 0.0000

                     31                     32                     33
                      A                      A                      A
 Frequencies --    600.4350               610.7330               642.7243
 Red. masses --      8.6136                 6.7824                 8.1446
 Frc consts  --      1.8297                 1.4905                 1.9823
 IR Inten    --      0.0000                33.0120                23.5390

                     34                     35                     36
                      A                      A                      A
 Frequencies --    648.0824               648.2550               665.1070
 Red. masses --      6.7773                 6.7939                 4.9235
 Frc consts  --      1.6771                 1.6821                 1.2832
 IR Inten    --      0.0000                 1.6400                 6.3716

                     37                     38                     39
                      A                      A                      A
 Frequencies --    665.8857               735.2643               738.8095
 Red. masses --      5.1159                 4.3132                 4.1371
 Frc consts  --      1.3365                 1.3738                 1.3305
 IR Inten    --      0.0000                 0.0000                10.3084

                     40                     41                     42
                      A                      A                      A
 Frequencies --    811.3384               819.9292               822.2752
 Red. masses --     10.6422                 2.7148                 2.5293
 Frc consts  --      4.1275                 1.0753                 1.0076
 IR Inten    --     13.4005                 0.0000                96.9090

                     43                     44                     45
                      A                      A                      A
 Frequencies --    829.9903               843.6395               843.7451
 Red. masses --      4.1543                 1.2795                 1.3045
 Frc consts  --      1.6861                 0.5365                 0.5472
 IR Inten    --      0.0000                 1.9597                 0.0000

                     46                     47                     48
                      A                      A                      A
 Frequencies --    859.7973               860.8269               882.8906
 Red. masses --      2.2830                 2.4202                 4.2220
 Frc consts  --      0.9944                 1.0566                 1.9390
 IR Inten    --      0.0000               143.4819                45.9652

                     49                     50                     51
                      A                      A                      A
 Frequencies --    912.1668               962.3670               963.8279
 Red. masses --      6.5961                 1.4217                 1.3548
 Frc consts  --      3.2336                 0.7758                 0.7415
 IR Inten    --      0.0000                25.3016                 0.0000

                     52                     53                     54
                      A                      A                      A
 Frequencies --    974.0232               975.5015               980.3637
 Red. masses --      1.5355                 1.3394                 2.8343
 Frc consts  --      0.8583                 0.7510                 1.6050
 IR Inten    --     57.0324                 0.0000               144.1860

                     55                     56                     57
                      A                      A                      A
 Frequencies --    989.5534              1024.4246              1025.9519
 Red. masses --      3.6758                 2.4144                 2.7729
 Frc consts  --      2.1207                 1.4929                 1.7197
 IR Inten    --      0.0000                38.7589                 0.0000

                     58                     59                     60
                      A                      A                      A
 Frequencies --   1035.3863              1035.4765              1110.7431
 Red. masses --      3.8142                 3.8236                 3.1245
 Frc consts  --      2.4091                 2.4155                 2.2712
 IR Inten    --     41.5526                 0.0000               153.5212

                     61                     62                     63
                      A                      A                      A
 Frequencies --   1111.0149              1146.3385              1146.3679
 Red. masses --      3.1256                 1.3244                 1.3243
 Frc consts  --      2.2731                 1.0254                 1.0254
 IR Inten    --      0.0000                 0.0000                 5.8258

                     64                     65                     66
                      A                      A                      A
 Frequencies --   1215.4846              1216.0030              1240.1103
 Red. masses --      1.1573                 1.1452                 3.2202
 Frc consts  --      1.0074                 0.9977                 2.9178
 IR Inten    --     40.1055                 0.0000               100.9327

                     67                     68                     69
                      A                      A                      A
 Frequencies --   1240.2399              1247.5108              1259.8116
 Red. masses --      3.0594                 4.0181                 3.8258
 Frc consts  --      2.7726                 3.6843                 3.5776
 IR Inten    --      0.0000              1429.4478                 0.0000

                     70                     71                     72
                      A                      A                      A
 Frequencies --   1295.9443              1297.3410              1336.4303
 Red. masses --      1.4988                 1.6086                 1.8098
 Frc consts  --      1.4831                 1.5951                 1.9044
 IR Inten    --    165.6439                 0.0000                 2.9339

                     73                     74                     75
                      A                      A                      A
 Frequencies --   1336.4676              1363.4272              1363.4801
 Red. masses --      1.8184                 2.1691                 2.1652
 Frc consts  --      1.9137                 2.3757                 2.3716
 IR Inten    --      0.0000                12.3974                 0.0000

                     76                     77                     78
                      A                      A                      A
 Frequencies --   1415.8934              1417.4253              1456.2097
 Red. masses --      1.3441                 1.3601                 2.6061
 Frc consts  --      1.5877                 1.6100                 3.2560
 IR Inten    --      0.0000                40.4363                14.5090

                     79                     80                     81
                      A                      A                      A
 Frequencies --   1456.2196              1518.2244              1518.4764
 Red. masses --      2.6058                 1.1173                 1.1199
 Frc consts  --      3.2557                 1.5173                 1.5215
 IR Inten    --      0.0000                23.5938                 0.0000

                     82                     83                     84
                      A                      A                      A
 Frequencies --   1541.5292              1541.6597              1631.0386
 Red. masses --      2.3089                 2.3033                 6.6823
 Frc consts  --      3.2326                 3.2254                10.4738
 IR Inten    --     93.8338                 0.0000                 1.2199

                     85                     86                     87
                      A                      A                      A
 Frequencies --   1631.0425              1654.6139              1656.0947
 Red. masses --      6.6816                13.6773                 5.5928
 Frc consts  --     10.4727                22.0620                 9.0375
 IR Inten    --      0.0000                 0.0000                60.4766

                     88                     89                     90
                      A                      A                      A
 Frequencies --   1656.1343              1833.4526              1847.6514
 Red. masses --      5.6431                12.2216                12.1636
 Frc consts  --      9.1192                24.2057                24.4655
 IR Inten    --      0.0000                 0.0000               467.5651

                     91                     92                     93
                      A                      A                      A
 Frequencies --   3112.5954              3112.6457              3170.0634
 Red. masses --      1.0578                 1.0578                 1.1109
 Frc consts  --      6.0380                 6.0382                 6.5776
 IR Inten    --     37.9226                 0.0000                 0.0003

                     94                     95                     96
                      A                      A                      A
 Frequencies --   3170.0757              3190.7301              3190.7374
 Red. masses --      1.1109                 1.0897                 1.0897
 Frc consts  --      6.5777                 6.5363                 6.5364
 IR Inten    --      7.0561                 0.0023                17.1162

                     97                     98                     99
                      A                      A                      A
 Frequencies --   3212.1111              3212.1154              3226.0846
 Red. masses --      1.0890                 1.0890                 1.0935
 Frc consts  --      6.6200                 6.6200                 6.7053
 IR Inten    --      2.3931                 0.0000                 6.9225

                    100                    101                    102
                      A                      A                      A
 Frequencies --   3226.0848              3228.4984              3228.4988
 Red. masses --      1.0935                 1.0948                 1.0948
 Frc consts  --      6.7053                 6.7235                 6.7235
 IR Inten    --      0.4217                 2.3385                 0.0188

 - Thermochemistry -
 -------------------
 Temperature   298.150 Kelvin.  Pressure   1.00000 Atm.
 Atom     1 has atomic number  6 and mass  12.00000

 Molecular mass:   366.01741 amu.
 Principal axes and moments of inertia in atomic units:
                           1         2         3
     Eigenvalues --  2418.00602********************
           X            0.99998   0.00669  -0.00049
           Y           -0.00671   0.99687  -0.07871
           Z           -0.00004   0.07871   0.99690
 This molecule is an asymmetric top.
 Rotational symmetry number  1.
 Warning -- assumption of classical behavior for rotation
           may cause significant error
 Rotational temperatures (Kelvin)      0.03582     0.00218     0.00217
 Rotational constants (GHZ):           0.74638     0.04548     0.04512
 Zero-point vibrational energy     678629.4 (Joules/Mol)
                                  162.19631 (Kcal/Mol)
 Warning -- explicit consideration of  32 degrees of freedom as
           vibrations may cause significant error
 Vibrational temperatures:      5.75    16.59    30.42    34.98    44.15
          (Kelvin)             60.43    67.20    94.99   109.33   136.85
                              147.81   243.18   251.82   290.00   307.31
                              371.41   374.78   422.24   430.84   491.05
                              509.11   540.64   553.28   603.86   604.98
                              609.79   620.30   657.09   742.87   794.19
                              863.89   878.71   924.74   932.45   932.69
                              956.94   958.06  1057.88  1062.98  1167.34
                             1179.70  1183.07  1194.17  1213.81  1213.96
                             1237.06  1238.54  1270.28  1312.40  1384.63
                             1386.73  1401.40  1403.53  1410.52  1423.75
                             1473.92  1476.12  1489.69  1489.82  1598.11
                             1598.50  1649.33  1649.37  1748.81  1749.56
                             1784.24  1784.43  1794.89  1812.59  1864.57
                             1866.58  1922.83  1922.88  1961.67  1961.74
                             2037.15  2039.36  2095.16  2095.18  2184.39
                             2184.75  2217.92  2218.10  2346.70  2346.71
                             2380.62  2382.75  2382.81  2637.93  2658.36
                             4478.33  4478.40  4561.01  4561.03  4590.75
                             4590.76  4621.51  4621.52  4641.62  4641.62
                             4645.09  4645.09

 Zero-point correction=                           0.258476 (Hartree/Particle)
 Thermal correction to Energy=                    0.280377
 Thermal correction to Enthalpy=                  0.281321
 Thermal correction to Gibbs Free Energy=         0.198974
 Sum of electronic and zero-point Energies=          -1947.415330
 Sum of electronic and thermal Energies=             -1947.393430
 Sum of electronic and thermal Enthalpies=           -1947.392485
 Sum of electronic and thermal Free Energies=        -1947.474832

                     E (Thermal)             CV                S
                      KCal/Mol        Cal/Mol-Kelvin    Cal/Mol-Kelvin
 Total                  175.939             79.069            173.313
 Electronic               0.000              0.000              0.000
 Translational            0.889              2.981             43.586
 Rotational               0.889              2.981             36.593
 Vibrational            174.162             73.107             93.134
 Vibration     1          0.593              1.987              9.835
 Vibration     2          0.593              1.987              7.728
 Vibration     3          0.593              1.985              6.524
 Vibration     4          0.593              1.985              6.247
 Vibration     5          0.594              1.984              5.785
 Vibration     6          0.595              1.980              5.162
 Vibration     7          0.595              1.979              4.952
 Vibration     8          0.597              1.970              4.269
 Vibration     9          0.599              1.965              3.992
 Vibration    10          0.603              1.953              3.552
 Vibration    11          0.605              1.947              3.402
 Vibration    12          0.625              1.881              2.446
 Vibration    13          0.627              1.873              2.381
 Vibration    14          0.638              1.838              2.119
 Vibration    15          0.644              1.820              2.013
 Vibration    16          0.667              1.749              1.674
 Vibration    17          0.669              1.745              1.659
 Vibration    18          0.688              1.686              1.454
 Vibration    19          0.692              1.675              1.420
 Vibration    20          0.721              1.593              1.206
 Vibration    21          0.730              1.567              1.149
 Vibration    22          0.747              1.522              1.056
 Vibration    23          0.753              1.503              1.021
 Vibration    24          0.782              1.427              0.893
 Vibration    25          0.783              1.426              0.890
 Vibration    26          0.786              1.418              0.879
 Vibration    27          0.792              1.402              0.855
 Vibration    28          0.815              1.346              0.776
 Vibration    29          0.871              1.214              0.619
 Vibration    30          0.907              1.135              0.540
 Vibration    31          0.959              1.031              0.449
 Vibration    32          0.970              1.009              0.432

 Optimization completed.
    -- Stationary point found.
 Normal termination of Gaussian 16 at Sat Aug 22 16:30:15 2020.
 Gaussian 16:  ES64L-G16RevA.03 25-Dec-2016

 ----------------------------------------------------------------------
 # TD(NStates=10, Root=1) B3LYP/6-31G* scf=qc volume pop=NPA density=cu
 rrent Geom=AllCheck Guess=Read
 ----------------------------------------------------------------------

 Structure from the checkpoint file:  "azadicarboxylate_3_conf303.chk"
 -------------------
 Title Card Required
 -------------------
 Charge =  0 Multiplicity = 1

                         Standard orientation:
 ---------------------------------------------------------------------
 Center     Atomic      Atomic             Coordinates (Angstroms)
 Number     Number       Type             X           Y           Z
 ---------------------------------------------------------------------
      1          6           0       -4.607809   -1.209831   -0.049258
      2          6           0       -3.337178   -2.014284   -0.107393
      3          8           0       -2.172336   -1.216728    0.292460
      4          6           0       -1.563752   -0.537578   -0.675997
      5          8           0       -1.834864   -0.502346   -1.850576
      6          7           0       -0.527948    0.307810   -0.117929
      7          7           0        0.527965   -0.307909    0.118047
      8          6           0        1.563768    0.537480    0.676112
      9          8           0        1.834923    0.502201    1.850679
     10          8           0        2.172298    1.216691   -0.292337
     11          6           0        3.337136    2.014256    0.107510
     12          6           0        4.607783    1.209834    0.049300
     13          6           0        5.334520    1.121769   -1.144387
     14          6           0        6.507719    0.373123   -1.217045
     15          6           0        6.954473   -0.293623   -0.076433
     16          6           0        6.249325   -0.223443    1.124738
     17          6           0        5.077202    0.528950    1.180429
     18         17           0        8.435592   -1.235978   -0.154116
     19          6           0       -5.077163   -0.528964   -1.180426
     20          6           0       -6.249270    0.223458   -1.124803
     21          6           0       -6.954469    0.293684    0.076336
     22          6           0       -6.507780   -0.373044    1.216983
     23          6           0       -5.334596   -1.121719    1.144395
     24         17           0       -8.435568    1.236077    0.153930
     25          1           0       -3.150667   -2.410383   -1.106825
     26          1           0       -3.342980   -2.829419    0.617625
     27          1           0        3.150649    2.410310    1.106964
     28          1           0        3.342894    2.829421   -0.617475
     29          1           0        4.982526    1.644790   -2.030199
     30          1           0        7.070703    0.308554   -2.141867
     31          1           0        6.613350   -0.748705    2.001136
     32          1           0        4.514744    0.579872    2.107728
     33          1           0       -4.514666   -0.579923   -2.107699
     34          1           0       -6.613245    0.748707   -2.001231
     35          1           0       -7.070802   -0.308438    2.141780
     36          1           0       -4.982652   -1.644726    2.030235
 ---------------------------------------------------------------------

 SCF Done:  E(RB3LYP) =  -1947.67380619     a.u. after    1 cycles

 Excitation energies and oscillator strengths:

 Excited State   1:      Singlet-A      2.9453 eV  420.96 nm  f=0.0000  <S**2>=0.000
      92 -> 95         0.46332
      94 -> 95         0.52620
 This state for optimization and/or second-order correction.
 Total Energy, E(TD-HF/TD-DFT) =  -1947.56556965
 Copying the excited state density for this state as the 1-particle RhoCI density.

 Excited State   2:      Singlet-A      4.0335 eV  307.39 nm  f=0.0090  <S**2>=0.000
      93 -> 95         0.70534

 Excited State   3:      Singlet-A      4.0825 eV  303.69 nm  f=0.0000  <S**2>=0.000
      92 -> 95         0.52499
      94 -> 95        -0.46951

 Excited State   4:      Singlet-A      4.4960 eV  275.76 nm  f=0.0010  <S**2>=0.000
      91 -> 95         0.70622

 Excited State   5:      Singlet-A      4.4975 eV  275.67 nm  f=0.0000  <S**2>=0.000
      90 -> 95         0.70528

 Excited State   6:      Singlet-A      5.0864 eV  243.76 nm  f=0.1308  <S**2>=0.000
      89 -> 95         0.68871

 Excited State   7:      Singlet-A      5.2213 eV  237.46 nm  f=0.0000  <S**2>=0.000
      84 -> 95         0.26412
      86 -> 95         0.61053
      88 -> 95        -0.12236
      94 -> 96        -0.11542

 Excited State   8:      Singlet-A      5.2365 eV  236.77 nm  f=0.0000  <S**2>=0.000
      90 -> 96         0.31880
      91 -> 97         0.31866
      92 -> 99         0.16139
      93 -> 98         0.36729
      94 -> 99        -0.36058

 Excited State   9:      Singlet-A      5.2366 eV  236.77 nm  f=0.0008  <S**2>=0.000
      90 -> 97         0.31735
      91 -> 96         0.32026
      92 -> 98         0.16136
      93 -> 99         0.36696
      94 -> 98        -0.36052

 Excited State  10:      Singlet-A      5.4280 eV  228.42 nm  f=0.0000  <S**2>=0.000
      84 -> 95        -0.26904
      86 -> 95         0.24960
      92 -> 96         0.23663
      92 ->100        -0.11902
      94 -> 96         0.49465
      94 ->100        -0.17011

 The electronic state is 1-A.
 Alpha  occ. eigenvalues -- -101.55479-101.55479 -19.22028 -19.22028 -19.16438
 Alpha  occ. eigenvalues --  -19.16438 -14.43027 -14.42977 -10.35997 -10.35996
 Alpha  occ. eigenvalues --  -10.26832 -10.26832 -10.26405 -10.26405 -10.21752
 Alpha  occ. eigenvalues --  -10.21752 -10.21490 -10.21490 -10.21407 -10.21407
 Alpha  occ. eigenvalues --  -10.21312 -10.21312 -10.21155 -10.21155  -9.47112
 Alpha  occ. eigenvalues --   -9.47112  -7.23508  -7.23508  -7.22542  -7.22542
 Alpha  occ. eigenvalues --   -7.22504  -7.22504  -1.14520  -1.13277  -1.06427
 Alpha  occ. eigenvalues --   -1.04718  -1.04303  -0.90000  -0.89989  -0.85371
 Alpha  occ. eigenvalues --   -0.85198  -0.81379  -0.78400  -0.76935  -0.76932
 Alpha  occ. eigenvalues --   -0.76463  -0.71546  -0.69761  -0.63480  -0.63477
 Alpha  occ. eigenvalues --   -0.62736  -0.60806  -0.59341  -0.57560  -0.56410
 Alpha  occ. eigenvalues --   -0.53298  -0.52813  -0.51651  -0.50323  -0.50182
 Alpha  occ. eigenvalues --   -0.48965  -0.48683  -0.48367  -0.48026  -0.46823
 Alpha  occ. eigenvalues --   -0.45290  -0.44853  -0.44633  -0.44008  -0.43693
 Alpha  occ. eigenvalues --   -0.42396  -0.41820  -0.40848  -0.40329  -0.40194
 Alpha  occ. eigenvalues --   -0.38945  -0.38622  -0.38389  -0.37924  -0.36479
 Alpha  occ. eigenvalues --   -0.36462  -0.34030  -0.33947  -0.32596  -0.32564
 Alpha  occ. eigenvalues --   -0.32353  -0.31876  -0.31847  -0.30991  -0.27269
 Alpha  occ. eigenvalues --   -0.27262  -0.26380  -0.25568  -0.25102
 Alpha virt. eigenvalues --   -0.08912  -0.03344  -0.03255  -0.02274  -0.02273
 Alpha virt. eigenvalues --   -0.00000   0.00063   0.02339   0.02349   0.09620
 Alpha virt. eigenvalues --    0.09798   0.10774   0.10916   0.11842   0.12107

 Mulliken charges:
               1
     1  C    0.150005
     2  C   -0.155744
     3  O   -0.407056
     4  C    0.736352
     5  O   -0.418301
     6  N   -0.240527
     7  N   -0.240528
     8  C    0.736352
     9  O   -0.418304
    10  O   -0.407057
    11  C   -0.155743
    12  C    0.150005
    13  C   -0.164092
    14  C   -0.128173
    15  C   -0.062235
    16  C   -0.129209
    17  C   -0.171542
    18  Cl  -0.012989
    19  C   -0.171542
    20  C   -0.129209
    21  C   -0.062235
    22  C   -0.128173
    23  C   -0.164092
    24  Cl  -0.012988
    25  H    0.186761
    26  H    0.173827
    27  H    0.186761
    28  H    0.173827
    29  H    0.147079
    30  H    0.161698
    31  H    0.163306
    32  H    0.170842
    33  H    0.170843
    34  H    0.163306
    35  H    0.161699
    36  H    0.147078
 Sum of Mulliken charges =  -0.00000

 Dipole moment (field-independent basis, Debye):
    X=             -0.0001    Y=              0.0001    Z=              0.0000  Tot=              0.0002
 Quadrupole moment (field-independent basis, Debye-Ang):
   XX=           -154.0998   YY=           -141.1543   ZZ=           -146.1376
   XY=             18.1460   XZ=             -4.7961   YZ=             -3.7445

 Summary of Natural Population Analysis:

                                       Natural Population
                Natural  -----------------------------------------------
    Atom  No    Charge         Core      Valence    Rydberg      Total
 -----------------------------------------------------------------------
      C    1   -0.09396      1.99901     4.08057    0.01439     6.09396
      C    2   -0.12587      1.99912     4.10755    0.01920     6.12587
      O    3   -0.52124      1.99973     6.50917    0.01234     8.52124
      C    4    0.92265      1.99950     3.02726    0.05059     5.07735
      O    5   -0.55360      1.99977     6.53315    0.02069     8.55360
      N    6   -0.21862      1.99938     5.19294    0.02630     7.21862
      N    7   -0.21862      1.99938     5.19294    0.02630     7.21862
      C    8    0.92265      1.99950     3.02726    0.05059     5.07735
      O    9   -0.55360      1.99977     6.53315    0.02069     8.55360
      O   10   -0.52124      1.99973     6.50917    0.01234     8.52124
      C   11   -0.12587      1.99912     4.10755    0.01920     6.12587
      C   12   -0.09396      1.99901     4.08057    0.01439     6.09396
      C   13   -0.19858      1.99903     4.18643    0.01311     6.19858
      C   14   -0.24328      1.99893     4.22943    0.01492     6.24328
      C   15   -0.03501      1.99856     4.01468    0.02177     6.03501
      C   16   -0.24234      1.99894     4.22847    0.01494     6.24234
      C   17   -0.19859      1.99903     4.18619    0.01337     6.19859
     Cl   18    0.00344      9.99967     6.97759    0.01930    16.99656
      C   19   -0.19859      1.99903     4.18619    0.01337     6.19859
      C   20   -0.24234      1.99894     4.22847    0.01494     6.24234
      C   21   -0.03501      1.99856     4.01468    0.02177     6.03501
      C   22   -0.24328      1.99893     4.22943    0.01492     6.24328
      C   23   -0.19858      1.99903     4.18643    0.01311     6.19858
     Cl   24    0.00344      9.99967     6.97759    0.01930    16.99656
      H   25    0.24426      0.00000     0.75363    0.00211     0.75574
      H   26    0.24372      0.00000     0.75511    0.00116     0.75628
      H   27    0.24426      0.00000     0.75363    0.00211     0.75574
      H   28    0.24372      0.00000     0.75511    0.00116     0.75628
      H   29    0.24443      0.00000     0.75456    0.00101     0.75557
      H   30    0.25677      0.00000     0.74222    0.00101     0.74323
      H   31    0.25752      0.00000     0.74148    0.00100     0.74248
      H   32    0.25831      0.00000     0.74030    0.00139     0.74169
      H   33    0.25831      0.00000     0.74030    0.00139     0.74169
      H   34    0.25752      0.00000     0.74148    0.00100     0.74248
      H   35    0.25677      0.00000     0.74222    0.00101     0.74323
      H   36    0.24443      0.00000     0.75456    0.00101     0.75557
 =======================================================================
   * Total *    0.00000     63.98135   123.52146    0.49719   188.00000

 Normal termination of Gaussian 16 at Sat Aug 22 16:40:45 2020.
