 Gaussian 16, Revision A.03,

 ---------------------------------
 # opt=CalcAll B3LYP/6-31G* scf=qc
 ---------------------------------

 -------------------
 Title Card Required
 -------------------
 Symbolic Z-matrix:
 Charge =  0 Multiplicity = 1

 SCF Done:  E(RB3LYP) =  -723.595248956     a.u. after   10 cycles
 SCF Done:  E(RB3LYP) =  -723.609017790     a.u. after   15 cycles
 SCF Done:  E(RB3LYP) =  -723.639878159     a.u. after   15 cycles
 SCF Done:  E(RB3LYP) =  -723.645204973     a.u. after   23 cycles
 SCF Done:  E(RB3LYP) =  -723.648704775     a.u. after   27 cycles
 SCF Done:  E(RB3LYP) =  -723.648906790     a.u. after   15 cycles
 SCF Done:  E(RB3LYP) =  -723.648912336     a.u. after    6 cycles
 SCF Done:  E(RB3LYP) =  -723.648913352     a.u. after    5 cycles
 SCF Done:  E(RB3LYP) =  -723.648914319     a.u. after    4 cycles
 SCF Done:  E(RB3LYP) =  -723.648914502     a.u. after    2 cycles
 SCF Done:  E(RB3LYP) =  -723.648917375     a.u. after    9 cycles
 SCF Done:  E(RB3LYP) =  -723.648916857     a.u. after    5 cycles
 Optimization completed on the basis of negligible forces.
    -- Stationary point found.
 Normal termination of Gaussian 16 at Sat Aug 22 14:16:28 2020.

 ----------------------------------------------------------------------
 # freq B3LYP/6-31G* scf=qc volume NMR pop=NPA density=current Geom=All
 Check Guess=Read
 ----------------------------------------------------------------------

 Structure from the checkpoint file:  "azadicarboxylate_2_conf182.chk"
 -------------------
 Title Card Required
 -------------------
 Charge =  0 Multiplicity = 1

 SCF Done:  E(RB3LYP) =  -723.648916857     a.u. after    1 cycles

      1  C    Isotropic =   169.6127   Anisotropy =    27.8390

      2  C    Isotropic =   113.3384   Anisotropy =    72.1292

      3  C    Isotropic =   170.6041   Anisotropy =    27.5745

      4  O    Isotropic =   139.5286   Anisotropy =   142.8049

      5  C    Isotropic =    35.5060   Anisotropy =    79.1640

      6  O    Isotropic =   -27.5952   Anisotropy =   481.7749

      7  N    Isotropic =  -321.9168   Anisotropy =   670.1314

      8  N    Isotropic =  -319.8275   Anisotropy =   667.9957

      9  C    Isotropic =    34.8992   Anisotropy =    76.9813

     10  O    Isotropic =   -19.6471   Anisotropy =   492.6196

     11  O    Isotropic =   135.3971   Anisotropy =   117.0301

     12  C    Isotropic =   118.6367   Anisotropy =    64.7055

     13  C    Isotropic =   168.9696   Anisotropy =    30.6433

     14  C    Isotropic =   168.2448   Anisotropy =    30.2746

     15  H    Isotropic =    31.1974   Anisotropy =     8.5098

     16  H    Isotropic =    29.7395   Anisotropy =     5.3984

     17  H    Isotropic =    30.7031   Anisotropy =     8.0879

     18  H    Isotropic =    27.6414   Anisotropy =     4.2772

     19  H    Isotropic =    29.5979   Anisotropy =     5.6249

     20  H    Isotropic =    31.1536   Anisotropy =     8.3622

     21  H    Isotropic =    30.6354   Anisotropy =     8.1433

     22  H    Isotropic =    26.9431   Anisotropy =     2.6832

     23  H    Isotropic =    30.9833   Anisotropy =     6.6124

     24  H    Isotropic =    30.1777   Anisotropy =     7.3369

     25  H    Isotropic =    31.1341   Anisotropy =     8.6290

     26  H    Isotropic =    30.8125   Anisotropy =     6.3958

     27  H    Isotropic =    31.1220   Anisotropy =     8.4770

     28  H    Isotropic =    30.7655   Anisotropy =     8.6490

  Exact polarizability: 150.923   2.421  98.748  -2.600   0.962  87.616
 Approx polarizability: 173.637   3.327 155.745  -7.070   8.724 127.697

                      1                      2                      3
                      A                      A                      A
 Frequencies --      9.3658                33.1806                44.6295
 Red. masses --      4.0697                 4.1109                 4.6157
 Frc consts  --      0.0002                 0.0027                 0.0054
 IR Inten    --      0.0230                 1.0680                 0.8214

                      4                      5                      6
                      A                      A                      A
 Frequencies --     49.4776                57.9815                82.7704
 Red. masses --      5.4073                 4.1861                 4.9493
 Frc consts  --      0.0078                 0.0083                 0.0200
 IR Inten    --      0.8078                 0.1350                 0.4950

                      7                      8                      9
                      A                      A                      A
 Frequencies --    111.2294               185.6080               195.6296
 Red. masses --      3.4917                 4.4395                 3.8070
 Frc consts  --      0.0255                 0.0901                 0.0858
 IR Inten    --      0.2770                 3.0271                 2.7281

                     10                     11                     12
                      A                      A                      A
 Frequencies --    204.7395               222.9995               231.4610
 Red. masses --      5.5270                 1.0423                 1.0924
 Frc consts  --      0.1365                 0.0305                 0.0345
 IR Inten    --      2.8260                 0.1509                 0.0799

                     13                     14                     15
                      A                      A                      A
 Frequencies --    238.6100               250.6552               265.6669
 Red. masses --      4.8733                 1.0515                 1.3484
 Frc consts  --      0.1635                 0.0389                 0.0561
 IR Inten    --      4.4462                 0.0021                 1.6930

                     16                     17                     18
                      A                      A                      A
 Frequencies --    311.3712               351.5779               410.4794
 Red. masses --      3.1443                 2.5773                 3.5234
 Frc consts  --      0.1796                 0.1877                 0.3498
 IR Inten    --      5.9686                 0.6932                 3.4515

                     19                     20                     21
                      A                      A                      A
 Frequencies --    419.4714               426.9507               473.0102
 Red. masses --      3.3955                 3.8957                 2.8365
 Frc consts  --      0.3520                 0.4184                 0.3739
 IR Inten    --     15.9085                13.9302                 1.0468

                     22                     23                     24
                      A                      A                      A
 Frequencies --    479.4866               585.0212               603.6315
 Red. masses --      3.2323                 6.4147                10.7516
 Frc consts  --      0.4378                 1.2935                 2.3082
 IR Inten    --     13.4129                 3.3141                 1.4306

                     25                     26                     27
                      A                      A                      A
 Frequencies --    643.1953               799.3378               815.2719
 Red. masses --      5.0358                 5.1655                11.1997
 Frc consts  --      1.2274                 1.9446                 4.3859
 IR Inten    --      4.9716                26.9275                29.9830

                     28                     29                     30
                      A                      A                      A
 Frequencies --    834.2279               860.1774               906.0645
 Red. masses --      3.4377                 6.5436                 3.2318
 Frc consts  --      1.4096                 2.8526                 1.5632
 IR Inten    --      8.2423                 2.7571                46.9832

                     31                     32                     33
                      A                      A                      A
 Frequencies --    922.9553               950.1019               951.0357
 Red. masses --      3.2148                 1.2834                 1.2454
 Frc consts  --      1.6135                 0.6826                 0.6637
 IR Inten    --      0.1413                 1.3331                 0.6533

                     34                     35                     36
                      A                      A                      A
 Frequencies --    957.2691               962.2484               971.0314
 Red. masses --      1.3106                 1.4118                 4.5625
 Frc consts  --      0.7076                 0.7702                 2.5347
 IR Inten    --      0.4963                 3.8238                 3.8592

                     37                     38                     39
                      A                      A                      A
 Frequencies --    999.4694              1143.8963              1168.2480
 Red. masses --      8.3735                 1.8432                 1.9259
 Frc consts  --      4.9283                 1.4210                 1.5487
 IR Inten    --     14.9388               237.6956               106.2533

                     40                     41                     42
                      A                      A                      A
 Frequencies --   1171.8062              1175.4440              1217.8055
 Red. masses --      2.1499                 2.0359                 1.9963
 Frc consts  --      1.7394                 1.6574                 1.7443
 IR Inten    --     13.3353                 8.8476                66.7343

                     43                     44                     45
                      A                      A                      A
 Frequencies --   1219.1193              1245.5417              1290.8496
 Red. masses --      1.9320                 5.2544                 6.0705
 Frc consts  --      1.6918                 4.8027                 5.9598
 IR Inten    --      6.8626               978.9886               273.9376

                     46                     47                     48
                      A                      A                      A
 Frequencies --   1384.8647              1391.4652              1397.8832
 Red. masses --      1.4074                 1.3202                 1.2536
 Frc consts  --      1.5903                 1.5061                 1.4433
 IR Inten    --      9.1542                 3.2454                 4.0425

                     49                     50                     51
                      A                      A                      A
 Frequencies --   1420.3323              1430.6585              1433.9862
 Red. masses --      1.3024                 1.3283                 1.3439
 Frc consts  --      1.5480                 1.6018                 1.6282
 IR Inten    --     17.9084                18.8275                18.6951

                     52                     53                     54
                      A                      A                      A
 Frequencies --   1444.9593              1448.6127              1511.1413
 Red. masses --      1.2412                 1.2567                 1.0481
 Frc consts  --      1.5269                 1.5538                 1.4101
 IR Inten    --     18.2414                 6.8312                 0.1137

                     55                     56                     57
                      A                      A                      A
 Frequencies --   1511.9448              1516.6265              1522.3480
 Red. masses --      1.0542                 1.0441                 1.0469
 Frc consts  --      1.4199                 1.4150                 1.4294
 IR Inten    --      1.8239                 1.1983                16.3332

                     58                     59                     60
                      A                      A                      A
 Frequencies --   1525.7808              1526.7440              1539.8535
 Red. masses --      1.0506                 1.0485                 1.0494
 Frc consts  --      1.4411                 1.4399                 1.4660
 IR Inten    --      3.8713                 0.0816                 9.9084

                     61                     62                     63
                      A                      A                      A
 Frequencies --   1546.7246              1656.9138              1833.9813
 Red. masses --      1.0540                13.9830                12.3654
 Frc consts  --      1.4856                22.6178                24.5046
 IR Inten    --      7.1630                 0.1977                55.2296

                     64                     65                     66
                      A                      A                      A
 Frequencies --   1851.4143              3058.3149              3062.4514
 Red. masses --     12.3477                 1.0354                 1.0374
 Frc consts  --     24.9370                 5.7060                 5.7323
 IR Inten    --    507.1011                10.6590                16.0800

                     67                     68                     69
                      A                      A                      A
 Frequencies --   3062.7760              3066.5607              3095.7555
 Red. masses --      1.0360                 1.0383                 1.0866
 Frc consts  --      5.7256                 5.7525                 6.1355
 IR Inten    --     15.2777                10.9127                19.5361

                     70                     71                     72
                      A                      A                      A
 Frequencies --   3102.4756              3126.3751              3127.2752
 Red. masses --      1.0880                 1.1029                 1.1016
 Frc consts  --      6.1700                 6.3515                 6.3477
 IR Inten    --      0.9721                 1.8415                12.1764

                     73                     74                     75
                      A                      A                      A
 Frequencies --   3130.0931              3136.3666              3140.6206
 Red. masses --      1.1020                 1.1013                 1.1027
 Frc consts  --      6.3611                 6.3828                 6.4084
 IR Inten    --     32.2232                41.9814                20.6955

                     76                     77                     78
                      A                      A                      A
 Frequencies --   3147.3425              3162.2522              3166.9009
 Red. masses --      1.1026                 1.1021                 1.1010
 Frc consts  --      6.4354                 6.4934                 6.5060
 IR Inten    --     16.5502                 1.9318                19.2493

 - Thermochemistry -
 -------------------
 Temperature   298.150 Kelvin.  Pressure   1.00000 Atm.
 Atom     1 has atomic number  6 and mass  12.00000

 Molecular mass:   202.09536 amu.
 Principal axes and moments of inertia in atomic units:
                           1         2         3
     Eigenvalues --  1144.352347070.004787452.35729
           X            0.99999  -0.00425   0.00167
           Y            0.00434   0.99822  -0.05941
           Z           -0.00141   0.05942   0.99823
 This molecule is an asymmetric top.
 Rotational symmetry number  1.
 Warning -- assumption of classical behavior for rotation
           may cause significant error
 Rotational temperatures (Kelvin)      0.07569     0.01225     0.01162
 Rotational constants (GHZ):           1.57709     0.25527     0.24217
 Zero-point vibrational energy     597725.5 (Joules/Mol)
                                  142.85982 (Kcal/Mol)
 Warning -- explicit consideration of  24 degrees of freedom as
           vibrations may cause significant error
 Vibrational temperatures:     13.48    47.74    64.21    71.19    83.42
          (Kelvin)            119.09   160.03   267.05   281.47   294.57
                              320.85   333.02   343.31   360.64   382.24
                              447.99   505.84   590.59   603.53   614.29
                              680.56   689.87   841.72   868.49   925.41
                             1150.07  1172.99  1200.27  1237.60  1303.62
                             1327.93  1366.98  1368.33  1377.30  1384.46
                             1397.10  1438.01  1645.81  1680.85  1685.97
                             1691.20  1752.15  1754.04  1792.06  1857.24
                             1992.51  2002.01  2011.24  2043.54  2058.40
                             2063.19  2078.97  2084.23  2174.20  2175.35
                             2182.09  2190.32  2195.26  2196.64  2215.51
                             2225.39  2383.93  2638.69  2663.77  4400.23
                             4406.18  4406.65  4412.10  4454.10  4463.77
                             4498.16  4499.45  4503.51  4512.53  4518.65
                             4528.32  4549.78  4556.46

 Zero-point correction=                           0.227662 (Hartree/Particle)
 Thermal correction to Energy=                    0.243924
 Thermal correction to Enthalpy=                  0.244868
 Thermal correction to Gibbs Free Energy=         0.180634
 Sum of electronic and zero-point Energies=           -723.421255
 Sum of electronic and thermal Energies=              -723.404993
 Sum of electronic and thermal Enthalpies=            -723.404049
 Sum of electronic and thermal Free Energies=         -723.468282

                     E (Thermal)             CV                S
                      KCal/Mol        Cal/Mol-Kelvin    Cal/Mol-Kelvin
 Total                  153.065             56.287            135.191
 Electronic               0.000              0.000              0.000
 Translational            0.889              2.981             41.815
 Rotational               0.889              2.981             32.467
 Vibrational            151.287             50.326             60.910
 Vibration     1          0.593              1.987              8.141
 Vibration     2          0.594              1.983              5.630
 Vibration     3          0.595              1.980              5.042
 Vibration     4          0.595              1.978              4.838
 Vibration     5          0.596              1.974              4.525
 Vibration     6          0.600              1.961              3.824
 Vibration     7          0.607              1.940              3.247
 Vibration     8          0.632              1.860              2.271
 Vibration     9          0.636              1.846              2.174
 Vibration    10          0.640              1.833              2.090
 Vibration    11          0.649              1.806              1.935
 Vibration    12          0.653              1.793              1.868
 Vibration    13          0.657              1.781              1.813
 Vibration    14          0.663              1.762              1.726
 Vibration    15          0.671              1.736              1.624
 Vibration    16          0.700              1.652              1.355
 Vibration    17          0.728              1.572              1.159
 Vibration    18          0.775              1.447              0.925
 Vibration    19          0.782              1.428              0.894
 Vibration    20          0.789              1.412              0.869
 Vibration    21          0.830              1.310              0.729
 Vibration    22          0.836              1.296              0.711
 Vibration    23          0.942              1.064              0.476
 Vibration    24          0.962              1.024              0.443

 Optimization completed on the basis of negligible forces.
    -- Stationary point found.
 Normal termination of Gaussian 16 at Sat Aug 22 14:21:18 2020.
 Gaussian 16:  ES64L-G16RevA.03 25-Dec-2016

 ----------------------------------------------------------------------
 # TD(NStates=10, Root=1) B3LYP/6-31G* scf=qc volume pop=NPA density=cu
 rrent Geom=AllCheck Guess=Read
 ----------------------------------------------------------------------

 Structure from the checkpoint file:  "azadicarboxylate_2_conf183.chk"
 -------------------
 Title Card Required
 -------------------
 Charge =  0 Multiplicity = 1

                         Standard orientation:
 ---------------------------------------------------------------------
 Center     Atomic      Atomic             Coordinates (Angstroms)
 Number     Number       Type             X           Y           Z
 ---------------------------------------------------------------------
      1          6           0        4.118855   -0.055903    1.478576
      2          6           0        3.568119    0.929347    0.453133
      3          6           0        4.378640    1.025391   -0.835140
      4          8           0        2.146946    0.657262    0.168414
      5          6           0        1.795838   -0.482201   -0.416056
      6          8           0        2.484630   -1.404128   -0.776070
      7          7           0        0.373653   -0.453241   -0.712565
      8          7           0       -0.330533   -0.789143    0.257427
      9          6           0       -1.741570   -0.870598   -0.068344
     10          8           0       -2.278631   -1.927352   -0.287511
     11          8           0       -2.297147    0.334292    0.029128
     12          6           0       -3.755757    0.408317   -0.141656
     13          6           0       -4.429899    0.069294    1.181892
     14          6           0       -4.037160    1.818292   -0.636876
     15          1           0        5.108128    0.282647    1.806596
     16          1           0        4.214665   -1.058135    1.055501
     17          1           0        3.466510   -0.101144    2.356551
     18          1           0        3.496179    1.921027    0.908450
     19          1           0        4.476829    0.050709   -1.317796
     20          1           0        5.380517    1.402410   -0.600891
     21          1           0        3.908528    1.724152   -1.534774
     22          1           0       -4.025113   -0.331620   -0.900199
     23          1           0       -4.116744    0.768306    1.965020
     24          1           0       -4.182580   -0.949297    1.493499
     25          1           0       -5.517974    0.137692    1.072811
     26          1           0       -3.726223    2.560759    0.105877
     27          1           0       -5.110345    1.939906   -0.818655
     28          1           0       -3.503009    2.017046   -1.570878
 ---------------------------------------------------------------------

 SCF Done:  E(RB3LYP) =  -723.648916857     a.u. after    1 cycles

 Excitation energies and oscillator strengths:

 Excited State   1:      Singlet-A      2.9492 eV  420.40 nm  f=0.0033  <S**2>=0.000
      54 -> 55         0.69894
 This state for optimization and/or second-order correction.
 Total Energy, E(TD-HF/TD-DFT) =  -723.540535021
 Copying the excited state density for this state as the 1-particle RhoCI density.

 Excited State   2:      Singlet-A      5.0507 eV  245.48 nm  f=0.0486  <S**2>=0.000
      52 -> 55        -0.10722
      53 -> 55         0.67998

 Excited State   3:      Singlet-A      5.1649 eV  240.05 nm  f=0.0098  <S**2>=0.000
      52 -> 55         0.67741
      53 -> 55         0.11243
      54 -> 56        -0.10839

 Excited State   4:      Singlet-A      5.4184 eV  228.82 nm  f=0.0076  <S**2>=0.000
      51 -> 55         0.69432

 Excited State   5:      Singlet-A      5.4511 eV  227.45 nm  f=0.0012  <S**2>=0.000
      50 -> 55         0.69258
      54 -> 56         0.10551

 Excited State   6:      Singlet-A      5.6052 eV  221.20 nm  f=0.0031  <S**2>=0.000
      50 -> 55        -0.10328
      53 -> 56        -0.14368
      54 -> 56         0.62772
      54 -> 57         0.19731

 Excited State   7:      Singlet-A      5.6851 eV  218.09 nm  f=0.0176  <S**2>=0.000
      52 -> 56        -0.11423
      52 -> 57         0.12239
      54 -> 56        -0.18912
      54 -> 57         0.64760

 Excited State   8:      Singlet-A      6.5356 eV  189.71 nm  f=0.0060  <S**2>=0.000
      48 -> 55         0.22330
      49 -> 55         0.65115

 Excited State   9:      Singlet-A      6.6462 eV  186.55 nm  f=0.0005  <S**2>=0.000
      44 -> 55         0.10730
      45 -> 55         0.12377
      48 -> 55         0.62382
      49 -> 55        -0.23129

 Excited State  10:      Singlet-A      6.7582 eV  183.46 nm  f=0.0142  <S**2>=0.000
      53 -> 56         0.55266
      53 -> 57         0.34775
      54 -> 56         0.14210
      54 -> 57         0.11485

 The electronic state is 1-A.
 Alpha  occ. eigenvalues --  -19.20816 -19.20761 -19.15312 -19.15282 -14.41951
 Alpha  occ. eigenvalues --  -14.41900 -10.35023 -10.34894 -10.26564 -10.26156
 Alpha  occ. eigenvalues --  -10.19177 -10.18953 -10.18878 -10.18791  -1.13371
 Alpha  occ. eigenvalues --   -1.12103  -1.05339  -1.03646  -1.03245  -0.82278
 Alpha  occ. eigenvalues --   -0.80594  -0.76419  -0.70589  -0.70440  -0.66651
 Alpha  occ. eigenvalues --   -0.63145  -0.57922  -0.56299  -0.52335  -0.50855
 Alpha  occ. eigenvalues --   -0.49904  -0.48301  -0.47979  -0.46630  -0.46424
 Alpha  occ. eigenvalues --   -0.44379  -0.43113  -0.42039  -0.41663  -0.41067
 Alpha  occ. eigenvalues --   -0.40451  -0.39630  -0.39420  -0.38126  -0.37602
 Alpha  occ. eigenvalues --   -0.36801  -0.36490  -0.35441  -0.34877  -0.31493
 Alpha  occ. eigenvalues --   -0.31393  -0.30604  -0.30189  -0.24587
 Alpha virt. eigenvalues --   -0.07773   0.00630   0.01099   0.08598   0.08759
 Alpha virt. eigenvalues --    0.10494   0.10643   0.13221   0.13731   0.14414
 Alpha virt. eigenvalues --    0.14765   0.15611   0.16492   0.16900   0.17280

 Mulliken charges:
               1
     1  C   -0.470231
     2  C    0.129358
     3  C   -0.471818
     4  O   -0.432086
     5  C    0.737077
     6  O   -0.413122
     7  N   -0.243036
     8  N   -0.248767
     9  C    0.736135
    10  O   -0.413315
    11  O   -0.424044
    12  C    0.116666
    13  C   -0.459982
    14  C   -0.454105
    15  H    0.152683
    16  H    0.188061
    17  H    0.164124
    18  H    0.157193
    19  H    0.187888
    20  H    0.154884
    21  H    0.163000
    22  H    0.168763
    23  H    0.159658
    24  H    0.176791
    25  H    0.155305
    26  H    0.162106
    27  H    0.154444
    28  H    0.166369
 Sum of Mulliken charges =  -0.00000

 Dipole moment (field-independent basis, Debye):
    X=             -0.0697    Y=              3.8787    Z=              1.2035  Tot=              4.0617
 Quadrupole moment (field-independent basis, Debye-Ang):
   XX=            -58.3737   YY=            -88.7784   ZZ=            -80.9673
   XY=              0.7577   XZ=              2.9388   YZ=             -2.6299

 Summary of Natural Population Analysis:

                                       Natural Population
                Natural  -----------------------------------------------
    Atom  No    Charge         Core      Valence    Rydberg      Total
 -----------------------------------------------------------------------
      C    1   -0.70937      1.99939     4.70199    0.00799     6.70937
      C    2    0.08470      1.99912     3.89793    0.01824     5.91530
      C    3   -0.71048      1.99939     4.70299    0.00810     6.71048
      O    4   -0.53242      1.99972     6.52068    0.01201     8.53242
      C    5    0.92085      1.99951     3.02735    0.05228     5.07915
      O    6   -0.54316      1.99977     6.52291    0.02049     8.54316
      N    7   -0.22476      1.99939     5.19874    0.02663     7.22476
      N    8   -0.22769      1.99938     5.20192    0.02639     7.22769
      C    9    0.92321      1.99951     3.02627    0.05101     5.07679
      O   10   -0.54207      1.99977     6.52165    0.02065     8.54207
      O   11   -0.53770      1.99972     6.52525    0.01273     8.53770
      C   12    0.08182      1.99912     3.90166    0.01740     5.91818
      C   13   -0.70455      1.99939     4.69662    0.00853     6.70455
      C   14   -0.69615      1.99939     4.68769    0.00906     6.69615
      H   15    0.24072      0.00000     0.75853    0.00074     0.75928
      H   16    0.25251      0.00000     0.74614    0.00135     0.74749
      H   17    0.24370      0.00000     0.75523    0.00106     0.75630
      H   18    0.24540      0.00000     0.75293    0.00168     0.75460
      H   19    0.25210      0.00000     0.74645    0.00145     0.74790
      H   20    0.24257      0.00000     0.75670    0.00072     0.75743
      H   21    0.24297      0.00000     0.75597    0.00105     0.75703
      H   22    0.24391      0.00000     0.75342    0.00267     0.75609
      H   23    0.23640      0.00000     0.76223    0.00137     0.76360
      H   24    0.25025      0.00000     0.74865    0.00110     0.74975
      H   25    0.24197      0.00000     0.75730    0.00073     0.75803
      H   26    0.23833      0.00000     0.76038    0.00129     0.76167
      H   27    0.24075      0.00000     0.75858    0.00066     0.75925
      H   28    0.24616      0.00000     0.75287    0.00097     0.75384
 =======================================================================
   * Total *    0.00000     27.99258    79.69905    0.30837   108.00000

 Normal termination of Gaussian 16 at Sat Aug 22 14:27:27 2020.
