 Gaussian 16, Revision A.03,

 ---------------------------------
 # opt=CalcAll B3LYP/6-31G* scf=qc
 ---------------------------------

 -------------------
 Title Card Required
 -------------------
 Symbolic Z-matrix:
 Charge =  0 Multiplicity = 1

 SCF Done:  E(RB3LYP) =  -1028.37908024     a.u. after   10 cycles
 SCF Done:  E(RB3LYP) =  -1028.42963477     a.u. after   19 cycles
 SCF Done:  E(RB3LYP) =  -1028.42078441     a.u. after   19 cycles
 SCF Done:  E(RB3LYP) =  -1028.45191745     a.u. after   20 cycles
 SCF Done:  E(RB3LYP) =  -1028.46670754     a.u. after   19 cycles
 SCF Done:  E(RB3LYP) =  -1028.47327713     a.u. after   21 cycles
 SCF Done:  E(RB3LYP) =  -1028.48017173     a.u. after   21 cycles
 SCF Done:  E(RB3LYP) =  -1028.48172766     a.u. after   17 cycles
 SCF Done:  E(RB3LYP) =  -1028.48203730     a.u. after   19 cycles
 SCF Done:  E(RB3LYP) =  -1028.48207882     a.u. after   13 cycles
 SCF Done:  E(RB3LYP) =  -1028.48189547     a.u. after   21 cycles
 SCF Done:  E(RB3LYP) =  -1028.48225671     a.u. after   13 cycles
 SCF Done:  E(RB3LYP) =  -1028.48227732     a.u. after    7 cycles
 SCF Done:  E(RB3LYP) =  -1028.48227765     a.u. after    4 cycles
 SCF Done:  E(RB3LYP) =  -1028.48227768     a.u. after    3 cycles
 SCF Done:  E(RB3LYP) =  -1028.48227769     a.u. after    2 cycles
 Optimization completed.
    -- Stationary point found.
 Normal termination of Gaussian 16 at Sat Aug 22 18:36:31 2020.

 ----------------------------------------------------------------------
 # freq B3LYP/6-31G* scf=qc volume NMR pop=NPA density=current Geom=All
 Check Guess=Read
 ----------------------------------------------------------------------

 Structure from the checkpoint file:  "azadicarboxylate_4_conf82.chk"
 -------------------
 Title Card Required
 -------------------
 Charge =  0 Multiplicity = 1

 SCF Done:  E(RB3LYP) =  -1028.48227769     a.u. after    1 cycles

      1  C    Isotropic =    62.0329   Anisotropy =   173.1201

      2  C    Isotropic =   120.6803   Anisotropy =    39.4604

      3  O    Isotropic =   141.8563   Anisotropy =   142.2972

      4  C    Isotropic =    34.6736   Anisotropy =    83.6909

      5  O    Isotropic =   -19.3301   Anisotropy =   490.2322

      6  N    Isotropic =  -323.1679   Anisotropy =   674.9309

      7  N    Isotropic =  -323.1673   Anisotropy =   674.9305

      8  C    Isotropic =    34.6736   Anisotropy =    83.6914

      9  O    Isotropic =   -19.3297   Anisotropy =   490.2330

     10  O    Isotropic =   141.8563   Anisotropy =   142.2971

     11  C    Isotropic =   120.6804   Anisotropy =    39.4604

     12  C    Isotropic =    62.0328   Anisotropy =   173.1201

     13  C    Isotropic =    65.2524   Anisotropy =   155.2028

     14  C    Isotropic =    68.3864   Anisotropy =   165.3335

     15  C    Isotropic =    66.9506   Anisotropy =   170.9962

     16  C    Isotropic =    67.5243   Anisotropy =   167.2709

     17  C    Isotropic =    63.9454   Anisotropy =   163.4080

     18  C    Isotropic =    65.2525   Anisotropy =   155.2030

     19  C    Isotropic =    68.3864   Anisotropy =   165.3335

     20  C    Isotropic =    66.9506   Anisotropy =   170.9962

     21  C    Isotropic =    67.5244   Anisotropy =   167.2708

     22  C    Isotropic =    63.9452   Anisotropy =   163.4081

     23  H    Isotropic =    27.6514   Anisotropy =     5.1794

     24  H    Isotropic =    26.4033   Anisotropy =     2.5420

     25  H    Isotropic =    26.4033   Anisotropy =     2.5419

     26  H    Isotropic =    27.6514   Anisotropy =     5.1794

     27  H    Isotropic =    24.9528   Anisotropy =     6.7208

     28  H    Isotropic =    24.9470   Anisotropy =     4.6092

     29  H    Isotropic =    24.9186   Anisotropy =     4.1928

     30  H    Isotropic =    24.8959   Anisotropy =     4.9596

     31  H    Isotropic =    24.3801   Anisotropy =     8.0043

     32  H    Isotropic =    24.9528   Anisotropy =     6.7208

     33  H    Isotropic =    24.9470   Anisotropy =     4.6092

     34  H    Isotropic =    24.9186   Anisotropy =     4.1928

     35  H    Isotropic =    24.8959   Anisotropy =     4.9596

     36  H    Isotropic =    24.3800   Anisotropy =     8.0043

  Exact polarizability: 221.551  39.972 147.119  -0.001   0.001 181.547
 Approx polarizability: 267.012  70.147 245.460  -0.003   0.004 330.803

                      1                      2                      3
                      A                      A                      A
 Frequencies --      6.2391                16.7694                23.1208
 Red. masses --      5.6953                 6.7090                 4.5033
 Frc consts  --      0.0001                 0.0011                 0.0014
 IR Inten    --      0.1514                 0.4547                 0.3561

                      4                      5                      6
                      A                      A                      A
 Frequencies --     24.0421                29.7086                51.8242
 Red. masses --      4.1369                 6.2267                 9.5763
 Frc consts  --      0.0014                 0.0032                 0.0152
 IR Inten    --      0.0414                 0.0651                 0.1920

                      7                      8                      9
                      A                      A                      A
 Frequencies --     60.6719                69.4426                79.6357
 Red. masses --      9.1555                 6.6137                 5.6800
 Frc consts  --      0.0199                 0.0188                 0.0212
 IR Inten    --      1.1425                 2.8492                 0.1481

                     10                     11                     12
                      A                      A                      A
 Frequencies --    134.2185               152.8342               210.8338
 Red. masses --      7.7993                 5.8621                 7.0393
 Frc consts  --      0.0828                 0.0807                 0.1844
 IR Inten    --      1.4003                 0.0227                 2.4421

                     13                     14                     15
                      A                      A                      A
 Frequencies --    235.9683               242.8987               253.0421
 Red. masses --      6.5527                 7.5378                11.3676
 Frc consts  --      0.2150                 0.2620                 0.4288
 IR Inten    --      1.6573                 6.0566                 1.4025

                     16                     17                     18
                      A                      A                      A
 Frequencies --    301.4177               328.6907               360.2746
 Red. masses --      7.7827                 4.5031                 2.2430
 Frc consts  --      0.4166                 0.2866                 0.1715
 IR Inten    --      6.6228                 0.0139                 3.2021

                     19                     20                     21
                      A                      A                      A
 Frequencies --    380.6087               417.1069               417.1621
 Red. masses --      2.2537                 2.9684                 2.9687
 Frc consts  --      0.1924                 0.3043                 0.3044
 IR Inten    --      6.9781                 0.1211                 0.0011

                     22                     23                     24
                      A                      A                      A
 Frequencies --    438.2834               491.6976               503.9538
 Red. masses --      4.9842                 4.0870                 4.7637
 Frc consts  --      0.5641                 0.5822                 0.7128
 IR Inten    --     19.9657                 0.2308                41.6928

                     25                     26                     27
                      A                      A                      A
 Frequencies --    574.2450               580.4537               602.1817
 Red. masses --     10.5269                 6.5645                 5.7764
 Frc consts  --      2.0452                 1.3031                 1.2341
 IR Inten    --      0.8018                 0.0141                26.6736

                     28                     29                     30
                      A                      A                      A
 Frequencies --    635.4513               635.6490               644.5213
 Red. masses --      6.3993                 6.3088                 5.6212
 Frc consts  --      1.5225                 1.5019                 1.3758
 IR Inten    --      0.8874                 0.0032                 2.7492

                     31                     32                     33
                      A                      A                      A
 Frequencies --    657.9850               713.6328               714.3481
 Red. masses --      6.0291                 1.8113                 1.7628
 Frc consts  --      1.5379                 0.5435                 0.5300
 IR Inten    --      4.0149                59.3205                 2.0616

                     34                     35                     36
                      A                      A                      A
 Frequencies --    772.1005               774.4655               806.8183
 Red. masses --      2.0916                 2.1404                10.2704
 Frc consts  --      0.7347                 0.7564                 3.9390
 IR Inten    --     76.7353                 0.2764                29.9373

                     37                     38                     39
                      A                      A                      A
 Frequencies --    827.6608               839.3412               839.8744
 Red. masses --      5.0585                 3.9057                 3.7900
 Frc consts  --      2.0416                 1.6212                 1.5752
 IR Inten    --      1.2182                24.3415                 0.3155

                     40                     41                     42
                      A                      A                      A
 Frequencies --    864.0116               864.0581               870.7835
 Red. masses --      1.2482                 1.2470                 4.7781
 Frc consts  --      0.5490                 0.5485                 2.1347
 IR Inten    --      0.0911                 0.0711                69.0622

                     43                     44                     45
                      A                      A                      A
 Frequencies --    919.6959               939.5707               944.3265
 Red. masses --      4.5724                 1.4881                 1.6923
 Frc consts  --      2.2787                 0.7740                 0.8891
 IR Inten    --      0.0445                21.1339                 0.0050

                     46                     47                     48
                      A                      A                      A
 Frequencies --    973.0884               974.5158               974.5647
 Red. masses --      3.9674                 1.3551                 1.3782
 Frc consts  --      2.2134                 0.7582                 0.7713
 IR Inten    --    124.0657                 0.3220                 8.3369

                     49                     50                     51
                      A                      A                      A
 Frequencies --    991.1793              1002.8402              1002.8875
 Red. masses --      3.8758                 1.2797                 1.2873
 Frc consts  --      2.2434                 0.7583                 0.7628
 IR Inten    --      5.2727                 0.0243                 0.3840

                     52                     53                     54
                      A                      A                      A
 Frequencies --   1018.3743              1018.8165              1021.3274
 Red. masses --      3.5748                 3.9814                 4.0547
 Frc consts  --      2.1843                 2.4349                 2.4919
 IR Inten    --      9.7256                 8.9681                 7.0988

                     55                     56                     57
                      A                      A                      A
 Frequencies --   1022.2636              1059.0401              1059.0620
 Red. masses --      3.1032                 2.2302                 2.2307
 Frc consts  --      1.9107                 1.4737                 1.4742
 IR Inten    --      4.7643                 2.2702                 0.0075

                     58                     59                     60
                      A                      A                      A
 Frequencies --   1123.5263              1123.7278              1194.8943
 Red. masses --      1.5181                 1.5191                 1.1026
 Frc consts  --      1.1291                 1.1302                 0.9275
 IR Inten    --      4.2120                 0.3220                 0.0453

                     61                     62                     63
                      A                      A                      A
 Frequencies --   1194.8987              1214.9544              1216.2869
 Red. masses --      1.1026                 1.2295                 1.1400
 Frc consts  --      0.9275                 1.0693                 0.9936
 IR Inten    --      0.0047               162.6625                 0.3835

                     64                     65                     66
                      A                      A                      A
 Frequencies --   1228.1100              1240.1295              1240.2613
 Red. masses --      4.0375                 3.0052                 2.9145
 Frc consts  --      3.5878                 2.7230                 2.6415
 IR Inten    --   1151.8337                 0.7318                13.6447

                     67                     68                     69
                      A                      A                      A
 Frequencies --   1267.7976              1297.0742              1302.9316
 Red. masses --      2.6980                 1.4002                 1.7839
 Frc consts  --      2.5550                 1.3879                 1.7843
 IR Inten    --    106.3514                72.0735                78.9760

                     70                     71                     72
                      A                      A                      A
 Frequencies --   1365.1269              1365.1421              1375.2654
 Red. masses --      4.1635                 4.1465                 1.2652
 Frc consts  --      4.5715                 4.5529                 1.4099
 IR Inten    --      0.6211                 4.8290                 5.4217

                     73                     74                     75
                      A                      A                      A
 Frequencies --   1375.3999              1416.8363              1417.8609
 Red. masses --      1.2667                 1.3407                 1.3763
 Frc consts  --      1.4118                 1.5857                 1.6301
 IR Inten    --      0.0277                35.2008                 4.0815

                     76                     77                     78
                      A                      A                      A
 Frequencies --   1504.8888              1504.8992              1516.7051
 Red. masses --      2.2026                 2.2021                 1.1160
 Frc consts  --      2.9389                 2.9384                 1.5126
 IR Inten    --      0.5350                13.7274                22.5623

                     79                     80                     81
                      A                      A                      A
 Frequencies --   1516.9602              1547.9976              1548.0422
 Red. masses --      1.1179                 2.2135                 2.2114
 Frc consts  --      1.5157                 3.1251                 3.1224
 IR Inten    --      0.0015                 9.3358                 0.2106

                     82                     83                     84
                      A                      A                      A
 Frequencies --   1646.3480              1646.3641              1653.5498
 Red. masses --      5.4980                 5.5003                13.9401
 Frc consts  --      8.7801                 8.7839                22.4569
 IR Inten    --      0.4159                 1.1521                 0.4911

                     85                     86                     87
                      A                      A                      A
 Frequencies --   1666.1406              1666.1640              1832.6373
 Red. masses --      5.5113                 5.5098                12.1567
 Frc consts  --      9.0142                 9.0119                24.0558
 IR Inten    --      0.9270                 0.0868                87.5945

                     88                     89                     90
                      A                      A                      A
 Frequencies --   1848.4773              3107.2505              3107.3425
 Red. masses --     12.1146                 1.0575                 1.0575
 Frc consts  --     24.3886                 6.0157                 6.0162
 IR Inten    --    402.1289                31.5336                11.7467

                     91                     92                     93
                      A                      A                      A
 Frequencies --   3165.0604              3165.0885              3179.0101
 Red. masses --      1.1107                 1.1107                 1.0867
 Frc consts  --      6.5557                 6.5558                 6.4706
 IR Inten    --      0.1513                 8.3531                 4.9568

                     94                     95                     96
                      A                      A                      A
 Frequencies --   3179.0237              3187.6365              3187.6431
 Red. masses --      1.0867                 1.0876                 1.0876
 Frc consts  --      6.4706                 6.5113                 6.5114
 IR Inten    --      5.9397                 4.4024                 1.1415

                     97                     98                     99
                      A                      A                      A
 Frequencies --   3198.1793              3198.1933              3207.8102
 Red. masses --      1.0914                 1.0914                 1.0949
 Frc consts  --      6.5771                 6.5772                 6.6379
 IR Inten    --      4.0693                41.3409                37.6284

                    100                    101                    102
                      A                      A                      A
 Frequencies --   3207.8392              3215.7570              3215.7670
 Red. masses --      1.0949                 1.0963                 1.0963
 Frc consts  --      6.6380                 6.6793                 6.6794
 IR Inten    --      9.7336                 9.1670                 5.9668

 - Thermochemistry -
 -------------------
 Temperature   298.150 Kelvin.  Pressure   1.00000 Atm.
 Atom     1 has atomic number  6 and mass  12.00000

 Molecular mass:   298.09536 amu.
 Principal axes and moments of inertia in atomic units:
                           1         2         3
     Eigenvalues --  2351.56233********************
           X            0.99999   0.00345  -0.00000
           Y           -0.00345   0.99999   0.00001
           Z            0.00000  -0.00001   1.00000
 This molecule is an asymmetric top.
 Rotational symmetry number  1.
 Warning -- assumption of classical behavior for rotation
           may cause significant error
 Rotational temperatures (Kelvin)      0.03683     0.00442     0.00440
 Rotational constants (GHZ):           0.76746     0.09216     0.09158
 Zero-point vibrational energy     729426.5 (Joules/Mol)
                                  174.33711 (Kcal/Mol)
 Warning -- explicit consideration of  27 degrees of freedom as
           vibrations may cause significant error
 Vibrational temperatures:      8.98    24.13    33.27    34.59    42.74
          (Kelvin)             74.56    87.29    99.91   114.58   193.11
                              219.89   303.34   339.51   349.48   364.07
                              433.67   472.91   518.35   547.61   600.12
                              600.20   630.59   707.44   725.08   826.21
                              835.14   866.41   914.27   914.56   927.32
                              946.69  1026.76  1027.79  1110.88  1114.28
                             1160.83  1190.82  1207.62  1208.39  1243.12
                             1243.19  1252.86  1323.24  1351.83  1358.68
                             1400.06  1402.11  1402.18  1426.09  1442.86
                             1442.93  1465.21  1465.85  1469.46  1470.81
                             1523.72  1523.75  1616.50  1616.79  1719.19
                             1719.19  1748.05  1749.97  1766.98  1784.27
                             1784.46  1824.08  1866.20  1874.63  1964.11
                             1964.14  1978.70  1978.89  2038.51  2039.99
                             2165.20  2165.21  2182.20  2182.57  2227.22
                             2227.29  2368.73  2368.75  2379.09  2397.20
                             2397.24  2636.76  2659.55  4470.64  4470.77
                             4553.82  4553.86  4573.89  4573.91  4586.30
                             4586.31  4601.47  4601.49  4615.32  4615.37
                             4626.76  4626.77

 Zero-point correction=                           0.277824 (Hartree/Particle)
 Thermal correction to Energy=                    0.297258
 Thermal correction to Enthalpy=                  0.298202
 Thermal correction to Gibbs Free Energy=         0.222749
 Sum of electronic and zero-point Energies=          -1028.204454
 Sum of electronic and thermal Energies=             -1028.185019
 Sum of electronic and thermal Enthalpies=           -1028.184075
 Sum of electronic and thermal Free Energies=        -1028.259529

                     E (Thermal)             CV                S
                      KCal/Mol        Cal/Mol-Kelvin    Cal/Mol-Kelvin
 Total                  186.532             71.316            158.805
 Electronic               0.000              0.000              0.000
 Translational            0.889              2.981             42.974
 Rotational               0.889              2.981             35.161
 Vibrational            184.755             65.354             80.671
 Vibration     1          0.593              1.987              8.948
 Vibration     2          0.593              1.986              6.984
 Vibration     3          0.593              1.985              6.346
 Vibration     4          0.593              1.985              6.269
 Vibration     5          0.593              1.984              5.849
 Vibration     6          0.596              1.977              4.747
 Vibration     7          0.597              1.973              4.435
 Vibration     8          0.598              1.969              4.169
 Vibration     9          0.600              1.963              3.900
 Vibration    10          0.613              1.919              2.885
 Vibration    11          0.619              1.900              2.637
 Vibration    12          0.643              1.824              2.036
 Vibration    13          0.655              1.786              1.833
 Vibration    14          0.659              1.774              1.782
 Vibration    15          0.664              1.758              1.709
 Vibration    16          0.693              1.671              1.409
 Vibration    17          0.712              1.618              1.267
 Vibration    18          0.735              1.554              1.121
 Vibration    19          0.750              1.512              1.037
 Vibration    20          0.780              1.433              0.902
 Vibration    21          0.780              1.433              0.902
 Vibration    22          0.798              1.387              0.832
 Vibration    23          0.847              1.268              0.679
 Vibration    24          0.859              1.241              0.648
 Vibration    25          0.931              1.087              0.496
 Vibration    26          0.937              1.074              0.485
 Vibration    27          0.960              1.027              0.446

 Optimization completed.
    -- Stationary point found.
 Normal termination of Gaussian 16 at Sat Aug 22 18:48:30 2020.
 Gaussian 16:  ES64L-G16RevA.03 25-Dec-2016

 ----------------------------------------------------------------------
 # TD(NStates=10, Root=1) B3LYP/6-31G* scf=qc volume pop=NPA density=cu
 rrent Geom=AllCheck Guess=Read
 ----------------------------------------------------------------------

 Structure from the checkpoint file:  "azadicarboxylate_4_conf83.chk"
 -------------------
 Title Card Required
 -------------------
 Charge =  0 Multiplicity = 1

                         Standard orientation:
 ---------------------------------------------------------------------
 Center     Atomic      Atomic             Coordinates (Angstroms)
 Number     Number       Type             X           Y           Z
 ---------------------------------------------------------------------
      1          6           0       -4.371965    0.651522    0.474814
      2          6           0       -3.280378    1.655489    0.731984
      3          8           0       -1.947488    1.054739    0.598692
      4          6           0       -1.387869    1.123623   -0.606559
      5          8           0       -1.834278    1.617072   -1.612275
      6          7           0       -0.029236    0.621797   -0.554740
      7          7           0        0.029236   -0.621876   -0.554686
      8          6           0        1.387869   -1.123703   -0.606461
      9          8           0        1.834275   -1.617252   -1.612130
     10          8           0        1.947497   -1.054694    0.598779
     11          6           0        3.280391   -1.655425    0.732124
     12          6           0        4.371970   -0.651472    0.474868
     13          6           0        4.892437    0.108399    1.529802
     14          6           0        5.898827    1.045970    1.298743
     15          6           0        6.394376    1.231701    0.006717
     16          6           0        5.880709    0.478283   -1.051058
     17          6           0        4.874500   -0.459298   -0.819423
     18          6           0       -4.892434   -0.108260    1.529812
     19          6           0       -5.898832   -1.045841    1.298832
     20          6           0       -6.394388   -1.231674    0.006823
     21          6           0       -5.880719   -0.478344   -1.051015
     22          6           0       -4.874502    0.459248   -0.819459
     23          1           0       -3.295701    2.010160    1.763872
     24          1           0       -3.335954    2.503414    0.046828
     25          1           0        3.335972   -2.503408    0.047042
     26          1           0        3.295715   -2.010006    1.764042
     27          1           0        4.507647   -0.037001    2.536737
     28          1           0        6.296870    1.628331    2.125270
     29          1           0        7.179993    1.960256   -0.175026
     30          1           0        6.264806    0.619626   -2.057599
     31          1           0        4.465897   -1.039844   -1.641325
     32          1           0       -4.507640    0.037219    2.536734
     33          1           0       -6.296876   -1.628133    2.125408
     34          1           0       -7.180010   -1.960237   -0.174859
     35          1           0       -6.264820   -0.619766   -2.057543
     36          1           0       -4.465897    1.039724   -1.641409
 ---------------------------------------------------------------------

 SCF Done:  E(RB3LYP) =  -1028.48227769     a.u. after    1 cycles

 Excitation energies and oscillator strengths:

 Excited State   1:      Singlet-A      2.9343 eV  422.54 nm  f=0.0024  <S**2>=0.000
      74 -> 79         0.29078
      78 -> 79         0.63460
 This state for optimization and/or second-order correction.
 Total Energy, E(TD-HF/TD-DFT) =  -1028.37444506
 Copying the excited state density for this state as the 1-particle RhoCI density.

 Excited State   2:      Singlet-A      4.1798 eV  296.63 nm  f=0.0000  <S**2>=0.000
      75 -> 79        -0.30850
      77 -> 79         0.63451

 Excited State   3:      Singlet-A      4.1812 eV  296.53 nm  f=0.0245  <S**2>=0.000
      74 -> 79         0.47775
      76 -> 79        -0.44962
      78 -> 79        -0.25797

 Excited State   4:      Singlet-A      4.2198 eV  293.81 nm  f=0.0011  <S**2>=0.000
      75 -> 79         0.63456
      77 -> 79         0.30978

 Excited State   5:      Singlet-A      4.2215 eV  293.70 nm  f=0.0169  <S**2>=0.000
      74 -> 79         0.42333
      76 -> 79         0.54262
      78 -> 79        -0.15807

 Excited State   6:      Singlet-A      5.0126 eV  247.35 nm  f=0.0753  <S**2>=0.000
      73 -> 79         0.68667

 Excited State   7:      Singlet-A      5.1986 eV  238.49 nm  f=0.0000  <S**2>=0.000
      71 -> 79         0.10232
      72 -> 79         0.68527

 Excited State   8:      Singlet-A      5.4043 eV  229.42 nm  f=0.0029  <S**2>=0.000
      74 -> 82         0.23741
      75 -> 81         0.20899
      75 -> 83         0.25876
      76 -> 80         0.37526
      77 -> 81         0.30814
      77 -> 83        -0.18149
      78 -> 82        -0.23795

 Excited State   9:      Singlet-A      5.4045 eV  229.41 nm  f=0.0002  <S**2>=0.000
      74 -> 83         0.23922
      75 -> 80         0.21230
      75 -> 82         0.26010
      76 -> 81         0.37153
      77 -> 80         0.31347
      77 -> 82        -0.18016
      78 -> 83        -0.23668

 Excited State  10:      Singlet-A      5.4411 eV  227.87 nm  f=0.0027  <S**2>=0.000
      71 -> 79         0.68531
      72 -> 79        -0.11043

 The electronic state is 1-A.
 Alpha  occ. eigenvalues --  -19.21244 -19.21244 -19.15645 -19.15645 -14.42197
 Alpha  occ. eigenvalues --  -14.42146 -10.35204 -10.35204 -10.25916 -10.25916
 Alpha  occ. eigenvalues --  -10.20468 -10.20468 -10.19880 -10.19880 -10.19758
 Alpha  occ. eigenvalues --  -10.19758 -10.19663 -10.19663 -10.19547 -10.19547
 Alpha  occ. eigenvalues --  -10.19483 -10.19483  -1.13710  -1.12460  -1.05579
 Alpha  occ. eigenvalues --   -1.03876  -1.03558  -0.86303  -0.86224  -0.80983
 Alpha  occ. eigenvalues --   -0.78579  -0.76525  -0.75040  -0.75039  -0.71506
 Alpha  occ. eigenvalues --   -0.69561  -0.62204  -0.61385  -0.61308  -0.60187
 Alpha  occ. eigenvalues --   -0.58735  -0.56338  -0.55473  -0.52519  -0.52216
 Alpha  occ. eigenvalues --   -0.50450  -0.49968  -0.49070  -0.48045  -0.47244
 Alpha  occ. eigenvalues --   -0.46787  -0.46726  -0.45125  -0.44226  -0.43187
 Alpha  occ. eigenvalues --   -0.42890  -0.42557  -0.42197  -0.41846  -0.39888
 Alpha  occ. eigenvalues --   -0.39762  -0.37944  -0.37938  -0.36537  -0.36454
 Alpha  occ. eigenvalues --   -0.36025  -0.35872  -0.34562  -0.34561  -0.31777
 Alpha  occ. eigenvalues --   -0.31776  -0.31099  -0.30607  -0.25944  -0.25657
 Alpha  occ. eigenvalues --   -0.25592  -0.25571  -0.24704
 Alpha virt. eigenvalues --   -0.08230  -0.01751  -0.01724  -0.00669  -0.00660
 Alpha virt. eigenvalues --    0.00590   0.01122   0.08958   0.08983   0.11203
 Alpha virt. eigenvalues --    0.11235   0.12141   0.12250   0.13206   0.13248

 Mulliken charges:
               1
     1  C    0.151964
     2  C   -0.157958
     3  O   -0.409125
     4  C    0.739134
     5  O   -0.417165
     6  N   -0.239160
     7  N   -0.239160
     8  C    0.739134
     9  O   -0.417166
    10  O   -0.409126
    11  C   -0.157958
    12  C    0.151965
    13  C   -0.168459
    14  C   -0.128538
    15  C   -0.123707
    16  C   -0.129418
    17  C   -0.175823
    18  C   -0.168459
    19  C   -0.128538
    20  C   -0.123707
    21  C   -0.129418
    22  C   -0.175822
    23  H    0.169307
    24  H    0.184417
    25  H    0.184417
    26  H    0.169307
    27  H    0.133029
    28  H    0.135266
    29  H    0.135873
    30  H    0.138601
    31  H    0.161763
    32  H    0.133029
    33  H    0.135266
    34  H    0.135873
    35  H    0.138601
    36  H    0.161763
 Sum of Mulliken charges =  -0.00000

 Dipole moment (field-independent basis, Debye):
    X=             -0.0000    Y=              0.0002    Z=              3.3538  Tot=              3.3538
 Quadrupole moment (field-independent basis, Debye-Ang):
   XX=            -94.9143   YY=           -120.4348   ZZ=           -121.9737
   XY=              4.3467   XZ=             -0.0002   YZ=             -0.0002

 Summary of Natural Population Analysis:

                                       Natural Population
                Natural  -----------------------------------------------
    Atom  No    Charge         Core      Valence    Rydberg      Total
 -----------------------------------------------------------------------
      C    1   -0.09163      1.99901     4.07810    0.01452     6.09163
      C    2   -0.12392      1.99912     4.10575    0.01906     6.12392
      O    3   -0.52308      1.99973     6.51109    0.01226     8.52308
      C    4    0.92181      1.99950     3.02849    0.05020     5.07819
      O    5   -0.55004      1.99977     6.52955    0.02072     8.55004
      N    6   -0.21615      1.99938     5.19034    0.02643     7.21615
      N    7   -0.21615      1.99938     5.19034    0.02643     7.21615
      C    8    0.92180      1.99950     3.02849    0.05020     5.07820
      O    9   -0.55004      1.99977     6.52955    0.02072     8.55004
      O   10   -0.52308      1.99973     6.51109    0.01226     8.52308
      C   11   -0.12392      1.99912     4.10575    0.01906     6.12392
      C   12   -0.09162      1.99901     4.07810    0.01452     6.09162
      C   13   -0.21281      1.99903     4.20065    0.01314     6.21281
      C   14   -0.23067      1.99910     4.21774    0.01383     6.23067
      C   15   -0.22290      1.99910     4.21032    0.01348     6.22290
      C   16   -0.22831      1.99910     4.21536    0.01384     6.22831
      C   17   -0.21200      1.99903     4.19962    0.01335     6.21200
      C   18   -0.21281      1.99903     4.20065    0.01314     6.21281
      C   19   -0.23067      1.99910     4.21774    0.01383     6.23067
      C   20   -0.22290      1.99910     4.21032    0.01348     6.22290
      C   21   -0.22831      1.99910     4.21536    0.01384     6.22831
      C   22   -0.21200      1.99903     4.19962    0.01335     6.21200
      H   23    0.24060      0.00000     0.75825    0.00115     0.75940
      H   24    0.24223      0.00000     0.75557    0.00220     0.75777
      H   25    0.24223      0.00000     0.75557    0.00220     0.75777
      H   26    0.24060      0.00000     0.75825    0.00115     0.75940
      H   27    0.23599      0.00000     0.76295    0.00106     0.76401
      H   28    0.23920      0.00000     0.75995    0.00085     0.76080
      H   29    0.23877      0.00000     0.76040    0.00082     0.76123
      H   30    0.24079      0.00000     0.75837    0.00083     0.75921
      H   31    0.25211      0.00000     0.74653    0.00135     0.74789
      H   32    0.23599      0.00000     0.76295    0.00106     0.76401
      H   33    0.23920      0.00000     0.75995    0.00085     0.76080
      H   34    0.23877      0.00000     0.76040    0.00082     0.76123
      H   35    0.24079      0.00000     0.75837    0.00083     0.75921
      H   36    0.25211      0.00000     0.74653    0.00135     0.74789
 =======================================================================
   * Total *    0.00000     43.98374   111.57807    0.43819   156.00000

 Normal termination of Gaussian 16 at Sat Aug 22 19:00:41 2020.
