 Gaussian 16, Revision A.03,

 ---------------------------------
 # opt=CalcAll B3LYP/6-31G* scf=qc
 ---------------------------------

 -------------------
 Title Card Required
 -------------------
 Symbolic Z-matrix:
 Charge =  0 Multiplicity = 1

 SCF Done:  E(RB3LYP) =  -723.622521009     a.u. after   10 cycles
 SCF Done:  E(RB3LYP) =  -723.646056037     a.u. after   23 cycles
 SCF Done:  E(RB3LYP) =  -723.650228770     a.u. after   17 cycles
 SCF Done:  E(RB3LYP) =  -723.652002327     a.u. after   17 cycles
 SCF Done:  E(RB3LYP) =  -723.652274108     a.u. after   15 cycles
 SCF Done:  E(RB3LYP) =  -723.652294930     a.u. after    5 cycles
 SCF Done:  E(RB3LYP) =  -723.652295482     a.u. after    4 cycles
 SCF Done:  E(RB3LYP) =  -723.652295613     a.u. after    3 cycles
 SCF Done:  E(RB3LYP) =  -723.652295623     a.u. after    2 cycles
 Optimization completed.
    -- Stationary point found.
 Normal termination of Gaussian 16 at Sat Aug 22 13:44:21 2020.

 ----------------------------------------------------------------------
 # freq B3LYP/6-31G* scf=qc volume NMR pop=NPA density=current Geom=All
 Check Guess=Read
 ----------------------------------------------------------------------

 Structure from the checkpoint file:  "azadicarboxylate_2_conf212.chk"
 -------------------
 Title Card Required
 -------------------
 Charge =  0 Multiplicity = 1

 SCF Done:  E(RB3LYP) =  -723.652295623     a.u. after    1 cycles

      1  C    Isotropic =   168.3093   Anisotropy =    31.3049

      2  C    Isotropic =   118.3939   Anisotropy =    64.4924

      3  C    Isotropic =   168.2808   Anisotropy =    30.0191

      4  O    Isotropic =   134.7135   Anisotropy =   113.9803

      5  C    Isotropic =    35.1686   Anisotropy =    85.6687

      6  O    Isotropic =   -21.3330   Anisotropy =   496.7497

      7  N    Isotropic =  -322.8246   Anisotropy =   675.1503

      8  N    Isotropic =  -325.0939   Anisotropy =   677.2881

      9  C    Isotropic =    34.9862   Anisotropy =    78.5930

     10  O    Isotropic =   -19.9679   Anisotropy =   494.5210

     11  O    Isotropic =   135.5538   Anisotropy =   116.7542

     12  C    Isotropic =   118.5302   Anisotropy =    64.9397

     13  C    Isotropic =   168.2617   Anisotropy =    30.2363

     14  C    Isotropic =   168.9977   Anisotropy =    30.5540

     15  H    Isotropic =    31.1664   Anisotropy =     8.7517

     16  H    Isotropic =    31.0493   Anisotropy =     6.6421

     17  H    Isotropic =    30.3617   Anisotropy =     7.1506

     18  H    Isotropic =    26.9782   Anisotropy =     2.6950

     19  H    Isotropic =    30.7952   Anisotropy =     6.4904

     20  H    Isotropic =    31.0998   Anisotropy =     8.4483

     21  H    Isotropic =    30.7080   Anisotropy =     8.4182

     22  H    Isotropic =    26.9343   Anisotropy =     2.7638

     23  H    Isotropic =    30.8140   Anisotropy =     6.3823

     24  H    Isotropic =    30.7581   Anisotropy =     8.6258

     25  H    Isotropic =    31.1174   Anisotropy =     8.5041

     26  H    Isotropic =    30.9801   Anisotropy =     6.5946

     27  H    Isotropic =    31.1262   Anisotropy =     8.6431

     28  H    Isotropic =    30.1695   Anisotropy =     7.3136

  Exact polarizability: 147.512  -0.162 102.639  -3.961  -0.145  87.559
 Approx polarizability: 172.229  -0.704 156.439 -11.418  -4.856 129.210

                      1                      2                      3
                      A                      A                      A
 Frequencies --     11.0548                37.7748                43.1336
 Red. masses --      4.1338                 3.6486                 4.4273
 Frc consts  --      0.0003                 0.0031                 0.0049
 IR Inten    --      0.1000                 1.2925                 0.8327

                      4                      5                      6
                      A                      A                      A
 Frequencies --     50.0310                58.1390                80.0682
 Red. masses --      4.5311                 4.2107                 5.5403
 Frc consts  --      0.0067                 0.0084                 0.0209
 IR Inten    --      0.6698                 0.0432                 0.9772

                      7                      8                      9
                      A                      A                      A
 Frequencies --     87.2669               184.7019               197.8246
 Red. masses --      4.5006                 4.0374                 4.8833
 Frc consts  --      0.0202                 0.0812                 0.1126
 IR Inten    --      0.0980                 3.8419                 1.3078

                     10                     11                     12
                      A                      A                      A
 Frequencies --    218.8154               221.7523               225.1030
 Red. masses --      1.3953                 1.1851                 1.3778
 Frc consts  --      0.0394                 0.0343                 0.0411
 IR Inten    --      1.7048                 0.4311                 1.8739

                     13                     14                     15
                      A                      A                      A
 Frequencies --    225.7980               263.6395               267.6069
 Red. masses --      3.7008                 1.2470                 1.4967
 Frc consts  --      0.1112                 0.0511                 0.0632
 IR Inten    --      0.5584                 1.4501                 2.1834

                     16                     17                     18
                      A                      A                      A
 Frequencies --    310.0463               349.3416               405.2316
 Red. masses --      3.0442                 2.6238                 3.9400
 Frc consts  --      0.1724                 0.1887                 0.3812
 IR Inten    --      8.0477                 0.5362                 2.0521

                     19                     20                     21
                      A                      A                      A
 Frequencies --    419.6146               428.2459               467.0303
 Red. masses --      3.2983                 3.4969                 2.8323
 Frc consts  --      0.3422                 0.3779                 0.3640
 IR Inten    --     12.8867                22.2134                 2.8534

                     22                     23                     24
                      A                      A                      A
 Frequencies --    483.6063               591.0750               609.4033
 Red. masses --      2.8900                 7.9645                 7.2759
 Frc consts  --      0.3982                 1.6394                 1.5920
 IR Inten    --      0.7374                 0.5049                 1.9763

                     25                     26                     27
                      A                      A                      A
 Frequencies --    622.4995               812.2684               831.0221
 Red. masses --      8.7383                11.0020                 3.3063
 Frc consts  --      1.9951                 4.2768                 1.3453
 IR Inten    --     10.8905                28.3473                28.7606

                     28                     29                     30
                      A                      A                      A
 Frequencies --    837.0878               864.3045               905.2993
 Red. masses --      3.8531                 6.3024                 3.2749
 Frc consts  --      1.5908                 2.7739                 1.5814
 IR Inten    --      0.4151                 0.5419                52.0327

                     31                     32                     33
                      A                      A                      A
 Frequencies --    922.7527               951.0119               951.0835
 Red. masses --      3.2014                 1.2509                 1.2584
 Frc consts  --      1.6060                 0.6666                 0.6707
 IR Inten    --      0.3193                 0.5423                 0.6850

                     34                     35                     36
                      A                      A                      A
 Frequencies --    961.9307               962.5303               986.0559
 Red. masses --      1.3721                 1.3589                 6.3292
 Frc consts  --      0.7480                 0.7418                 3.6258
 IR Inten    --      5.2050                 0.3295                 8.0904

                     37                     38                     39
                      A                      A                      A
 Frequencies --   1003.9334              1140.2990              1147.6144
 Red. masses --      9.0641                 1.8599                 1.8038
 Frc consts  --      5.3825                 1.4249                 1.3997
 IR Inten    --     21.6742               356.2396                27.2183

                     40                     41                     42
                      A                      A                      A
 Frequencies --   1175.2397              1175.5447              1217.5085
 Red. masses --      2.0327                 2.0361                 2.0281
 Frc consts  --      1.6542                 1.6578                 1.7712
 IR Inten    --      9.0724                 8.7722                75.1815

                     43                     44                     45
                      A                      A                      A
 Frequencies --   1219.0362              1253.2977              1296.1555
 Red. masses --      1.9312                 5.4022                 6.6995
 Frc consts  --      1.6909                 4.9995                 6.6314
 IR Inten    --     17.8639               871.5328               291.5142

                     46                     47                     48
                      A                      A                      A
 Frequencies --   1383.5074              1384.9972              1397.8043
 Red. masses --      1.4041                 1.4092                 1.2525
 Frc consts  --      1.5834                 1.5927                 1.4419
 IR Inten    --      7.4145                 8.0241                 3.5715

                     49                     50                     51
                      A                      A                      A
 Frequencies --   1398.9615              1433.8952              1434.0393
 Red. masses --      1.2541                 1.3419                 1.3436
 Frc consts  --      1.4461                 1.6256                 1.6279
 IR Inten    --      4.9959                 6.7113                28.5199

                     52                     53                     54
                      A                      A                      A
 Frequencies --   1448.6284              1448.8176              1511.7451
 Red. masses --      1.2562                 1.2565                 1.0540
 Frc consts  --      1.5532                 1.5540                 1.4192
 IR Inten    --      4.4086                 9.8794                 1.3718

                     55                     56                     57
                      A                      A                      A
 Frequencies --   1511.8876              1516.2495              1516.6068
 Red. masses --      1.0541                 1.0441                 1.0441
 Frc consts  --      1.4197                 1.4142                 1.4150
 IR Inten    --      2.1282                 0.9516                 1.4158

                     58                     59                     60
                      A                      A                      A
 Frequencies --   1525.4452              1525.7878              1539.4236
 Red. masses --      1.0508                 1.0506                 1.0497
 Frc consts  --      1.4406                 1.4410                 1.4657
 IR Inten    --      3.3611                 4.7115                10.6876

                     61                     62                     63
                      A                      A                      A
 Frequencies --   1539.8636              1653.3051              1835.2043
 Red. masses --      1.0494                13.9873                12.6640
 Frc consts  --      1.4660                22.5263                25.1298
 IR Inten    --      8.9765                 0.5219                74.2836

                     64                     65                     66
                      A                      A                      A
 Frequencies --   1851.9053              3058.3948              3058.5977
 Red. masses --     12.5995                 1.0354                 1.0353
 Frc consts  --     25.4590                 5.7063                 5.7066
 IR Inten    --    519.0279                 9.9132                11.4784

                     67                     68                     69
                      A                      A                      A
 Frequencies --   3062.8524              3063.0100              3098.2992
 Red. masses --      1.0360                 1.0360                 1.0874
 Frc consts  --      5.7259                 5.7266                 6.1502
 IR Inten    --     13.3543                15.8260                 1.6680

                     70                     71                     72
                      A                      A                      A
 Frequencies --   3102.9195              3126.4883              3127.0486
 Red. masses --      1.0880                 1.1029                 1.1029
 Frc consts  --      6.1721                 6.3520                 6.3543
 IR Inten    --      0.9435                 1.9153                 1.3852

                     73                     74                     75
                      A                      A                      A
 Frequencies --   3136.0914              3136.5134              3139.4776
 Red. masses --      1.1017                 1.1013                 1.1027
 Frc consts  --      6.3842                 6.3834                 6.4035
 IR Inten    --     52.1827                29.2865                23.3849

                     76                     77                     78
                      A                      A                      A
 Frequencies --   3140.8225              3147.3083              3148.4878
 Red. masses --      1.1027                 1.1027                 1.1028
 Frc consts  --      6.4092                 6.4353                 6.4409
 IR Inten    --     21.1692                16.1529                15.3462

 - Thermochemistry -
 -------------------
 Temperature   298.150 Kelvin.  Pressure   1.00000 Atm.
 Atom     1 has atomic number  6 and mass  12.00000

 Molecular mass:   202.09536 amu.
 Principal axes and moments of inertia in atomic units:
                           1         2         3
     Eigenvalues --  1354.869396739.880787343.64622
           X            0.99998   0.00112   0.00631
           Y           -0.00129   0.99961   0.02775
           Z           -0.00627  -0.02776   0.99960
 This molecule is an asymmetric top.
 Rotational symmetry number  1.
 Warning -- assumption of classical behavior for rotation
           may cause significant error
 Rotational temperatures (Kelvin)      0.06393     0.01285     0.01179
 Rotational constants (GHZ):           1.33204     0.26777     0.24576
 Zero-point vibrational energy     597398.1 (Joules/Mol)
                                  142.78158 (Kcal/Mol)
 Warning -- explicit consideration of  24 degrees of freedom as
           vibrations may cause significant error
 Vibrational temperatures:     15.91    54.35    62.06    71.98    83.65
          (Kelvin)            115.20   125.56   265.74   284.63   314.83
                              319.05   323.87   324.87   379.32   385.03
                              446.09   502.62   583.04   603.73   616.15
                              671.95   695.80   850.43   876.80   895.64
                             1168.67  1195.66  1204.38  1243.54  1302.52
                             1327.64  1368.29  1368.40  1384.00  1384.87
                             1418.71  1444.44  1640.64  1651.16  1690.91
                             1691.35  1751.72  1753.92  1803.22  1864.88
                             1990.56  1992.70  2011.13  2012.79  2063.06
                             2063.26  2084.25  2084.53  2175.06  2175.27
                             2181.54  2182.06  2194.78  2195.27  2214.89
                             2215.52  2378.74  2640.45  2664.48  4400.35
                             4400.64  4406.76  4406.99  4457.76  4464.41
                             4498.32  4499.13  4512.14  4512.74  4517.01
                             4518.94  4528.27  4529.97

 Zero-point correction=                           0.227537 (Hartree/Particle)
 Thermal correction to Energy=                    0.243826
 Thermal correction to Enthalpy=                  0.244770
 Thermal correction to Gibbs Free Energy=         0.180518
 Sum of electronic and zero-point Energies=           -723.424759
 Sum of electronic and thermal Energies=              -723.408469
 Sum of electronic and thermal Enthalpies=            -723.407525
 Sum of electronic and thermal Free Energies=         -723.471777

                     E (Thermal)             CV                S
                      KCal/Mol        Cal/Mol-Kelvin    Cal/Mol-Kelvin
 Total                  153.003             56.263            135.230
 Electronic               0.000              0.000              0.000
 Translational            0.889              2.981             41.815
 Rotational               0.889              2.981             32.572
 Vibrational            151.226             50.301             60.843
 Vibration     1          0.593              1.987              7.812
 Vibration     2          0.594              1.982              5.372
 Vibration     3          0.595              1.980              5.110
 Vibration     4          0.595              1.978              4.816
 Vibration     5          0.596              1.974              4.519
 Vibration     6          0.600              1.963              3.889
 Vibration     7          0.601              1.958              3.720
 Vibration     8          0.631              1.861              2.280
 Vibration     9          0.637              1.843              2.153
 Vibration    10          0.647              1.812              1.969
 Vibration    11          0.648              1.808              1.945
 Vibration    12          0.650              1.803              1.918
 Vibration    13          0.650              1.802              1.912
 Vibration    14          0.670              1.740              1.638
 Vibration    15          0.673              1.733              1.612
 Vibration    16          0.699              1.655              1.362
 Vibration    17          0.727              1.577              1.169
 Vibration    18          0.770              1.459              0.944
 Vibration    19          0.782              1.428              0.893
 Vibration    20          0.790              1.409              0.864
 Vibration    21          0.824              1.323              0.746
 Vibration    22          0.840              1.286              0.700
 Vibration    23          0.948              1.051              0.465
 Vibration    24          0.968              1.012              0.434

 Optimization completed.
    -- Stationary point found.
 Normal termination of Gaussian 16 at Sat Aug 22 13:48:28 2020.
 Gaussian 16:  ES64L-G16RevA.03 25-Dec-2016

 ----------------------------------------------------------------------
 # TD(NStates=10, Root=1) B3LYP/6-31G* scf=qc volume pop=NPA density=cu
 rrent Geom=AllCheck Guess=Read
 ----------------------------------------------------------------------

 Structure from the checkpoint file:  "azadicarboxylate_2_conf213.chk"
 -------------------
 Title Card Required
 -------------------
 Charge =  0 Multiplicity = 1

                         Standard orientation:
 ---------------------------------------------------------------------
 Center     Atomic      Atomic             Coordinates (Angstroms)
 Number     Number       Type             X           Y           Z
 ---------------------------------------------------------------------
      1          6           0        4.121858    0.031574    1.335444
      2          6           0        3.669280   -0.553342    0.003500
      3          6           0        3.929654   -2.044843   -0.138629
      4          8           0        2.213412   -0.390896   -0.119461
      5          6           0        1.778710    0.778528   -0.580764
      6          8           0        2.426838    1.737880   -0.917036
      7          7           0        0.339821    0.744809   -0.765403
      8          7           0       -0.286552    0.826527    0.307775
      9          6           0       -1.723111    0.900162    0.119384
     10          8           0       -2.316901    1.944865    0.214700
     11          8           0       -2.220787   -0.321550   -0.050835
     12          6           0       -3.684935   -0.437081   -0.128127
     13          6           0       -3.952177   -1.693219   -0.942383
     14          6           0       -4.256162   -0.479203    1.283637
     15          1           0        5.203852   -0.097896    1.449551
     16          1           0        3.622831   -0.474941    2.168603
     17          1           0        3.898720    1.100849    1.384604
     18          1           0        4.121022    0.003086   -0.822786
     19          1           0        3.436036   -2.603745    0.663565
     20          1           0        5.005949   -2.240106   -0.083736
     21          1           0        3.559599   -2.416411   -1.099056
     22          1           0       -4.046480    0.451312   -0.652947
     23          1           0       -3.550591   -2.577658   -0.436318
     24          1           0       -3.492094   -1.620950   -1.932462
     25          1           0       -5.031385   -1.828831   -1.070708
     26          1           0       -3.849979   -1.331356    1.839354
     27          1           0       -5.346021   -0.583055    1.240270
     28          1           0       -4.023553    0.442502    1.824149
 ---------------------------------------------------------------------

 SCF Done:  E(RB3LYP) =  -723.652295623     a.u. after    1 cycles

 Excitation energies and oscillator strengths:

 Excited State   1:      Singlet-A      2.9318 eV  422.89 nm  f=0.0037  <S**2>=0.000
      54 -> 55         0.69946
 This state for optimization and/or second-order correction.
 Total Energy, E(TD-HF/TD-DFT) =  -723.544552861
 Copying the excited state density for this state as the 1-particle RhoCI density.

 Excited State   2:      Singlet-A      4.9962 eV  248.15 nm  f=0.0500  <S**2>=0.000
      53 -> 55         0.68566

 Excited State   3:      Singlet-A      5.1454 eV  240.96 nm  f=0.0012  <S**2>=0.000
      52 -> 55         0.68787

 Excited State   4:      Singlet-A      5.3695 eV  230.90 nm  f=0.0051  <S**2>=0.000
      50 -> 55        -0.31446
      51 -> 55         0.61927

 Excited State   5:      Singlet-A      5.4144 eV  228.99 nm  f=0.0036  <S**2>=0.000
      50 -> 55         0.61998
      51 -> 55         0.31931

 Excited State   6:      Singlet-A      5.6956 eV  217.68 nm  f=0.0032  <S**2>=0.000
      52 -> 57         0.13400
      54 -> 56         0.66779

 Excited State   7:      Singlet-A      5.7892 eV  214.17 nm  f=0.0155  <S**2>=0.000
      52 -> 56         0.13155
      54 -> 57         0.67273

 Excited State   8:      Singlet-A      6.4804 eV  191.32 nm  f=0.0011  <S**2>=0.000
      48 -> 55         0.24199
      49 -> 55         0.64346

 Excited State   9:      Singlet-A      6.5120 eV  190.39 nm  f=0.0048  <S**2>=0.000
      44 -> 55        -0.12497
      48 -> 55         0.63957
      49 -> 55        -0.24936

 Excited State  10:      Singlet-A      6.8658 eV  180.58 nm  f=0.0126  <S**2>=0.000
      51 -> 56        -0.12408
      52 -> 56         0.42480
      52 -> 57         0.23674
      53 -> 56        -0.33882
      53 -> 57        -0.24065
      54 -> 56        -0.14130
      54 -> 57        -0.11076

 The electronic state is 1-A.
 Alpha  occ. eigenvalues --  -19.20880 -19.20857 -19.15402 -19.15376 -14.42086
 Alpha  occ. eigenvalues --  -14.42033 -10.34998 -10.34987 -10.26225 -10.26211
 Alpha  occ. eigenvalues --  -10.19256 -10.19229 -10.19017 -10.18904  -1.13521
 Alpha  occ. eigenvalues --   -1.12259  -1.05446  -1.03691  -1.03358  -0.82375
 Alpha  occ. eigenvalues --   -0.80709  -0.76593  -0.70648  -0.70597  -0.65932
 Alpha  occ. eigenvalues --   -0.62331  -0.57830  -0.56531  -0.55941  -0.50831
 Alpha  occ. eigenvalues --   -0.49090  -0.48385  -0.47682  -0.46801  -0.45619
 Alpha  occ. eigenvalues --   -0.44743  -0.42937  -0.42127  -0.41187  -0.40848
 Alpha  occ. eigenvalues --   -0.40501  -0.40239  -0.39686  -0.38373  -0.37829
 Alpha  occ. eigenvalues --   -0.36898  -0.36792  -0.35026  -0.34957  -0.31576
 Alpha  occ. eigenvalues --   -0.31500  -0.30813  -0.30501  -0.24838
 Alpha virt. eigenvalues --   -0.08101   0.00737   0.01292   0.08682   0.08722
 Alpha virt. eigenvalues --    0.10430   0.10589   0.13160   0.13191   0.14359
 Alpha virt. eigenvalues --    0.14412   0.16378   0.16449   0.16823   0.16883

 Mulliken charges:
               1
     1  C   -0.459264
     2  C    0.117249
     3  C   -0.454511
     4  O   -0.425622
     5  C    0.736881
     6  O   -0.418761
     7  N   -0.244752
     8  N   -0.244907
     9  C    0.737429
    10  O   -0.412279
    11  O   -0.423868
    12  C    0.116139
    13  C   -0.454292
    14  C   -0.460095
    15  H    0.153463
    16  H    0.160049
    17  H    0.178505
    18  H    0.168436
    19  H    0.163104
    20  H    0.155550
    21  H    0.165067
    22  H    0.169433
    23  H    0.162346
    24  H    0.166892
    25  H    0.155036
    26  H    0.159980
    27  H    0.155953
    28  H    0.176839
 Sum of Mulliken charges =  -0.00000

 Dipole moment (field-independent basis, Debye):
    X=             -0.2333    Y=             -4.1554    Z=              0.7186  Tot=              4.2235
 Quadrupole moment (field-independent basis, Debye-Ang):
   XX=            -59.4414   YY=            -90.0907   ZZ=            -81.1987
   XY=             -0.2892   XZ=              3.1275   YZ=              1.8925

 Summary of Natural Population Analysis:

                                       Natural Population
                Natural  -----------------------------------------------
    Atom  No    Charge         Core      Valence    Rydberg      Total
 -----------------------------------------------------------------------
      C    1   -0.70383      1.99939     4.69589    0.00854     6.70383
      C    2    0.08317      1.99912     3.90021    0.01750     5.91683
      C    3   -0.69632      1.99939     4.68790    0.00903     6.69632
      O    4   -0.53894      1.99972     6.52656    0.01266     8.53894
      C    5    0.91830      1.99950     3.03147    0.05073     5.08170
      O    6   -0.54637      1.99977     6.52589    0.02071     8.54637
      N    7   -0.21870      1.99939     5.19284    0.02647     7.21870
      N    8   -0.22039      1.99938     5.19476    0.02624     7.22039
      C    9    0.92234      1.99951     3.02728    0.05087     5.07766
      O   10   -0.54029      1.99977     6.51985    0.02067     8.54029
      O   11   -0.53742      1.99972     6.52499    0.01272     8.53742
      C   12    0.08201      1.99912     3.90148    0.01739     5.91799
      C   13   -0.69632      1.99939     4.68785    0.00907     6.69632
      C   14   -0.70467      1.99939     4.69675    0.00853     6.70467
      H   15    0.24040      0.00000     0.75884    0.00076     0.75960
      H   16    0.23666      0.00000     0.76199    0.00135     0.76334
      H   17    0.25140      0.00000     0.74758    0.00102     0.74860
      H   18    0.24338      0.00000     0.75389    0.00273     0.75662
      H   19    0.23904      0.00000     0.75968    0.00128     0.76096
      H   20    0.24164      0.00000     0.75770    0.00066     0.75836
      H   21    0.24539      0.00000     0.75364    0.00097     0.75461
      H   22    0.24422      0.00000     0.75313    0.00265     0.75578
      H   23    0.23848      0.00000     0.76024    0.00128     0.76152
      H   24    0.24645      0.00000     0.75258    0.00097     0.75355
      H   25    0.24115      0.00000     0.75819    0.00066     0.75885
      H   26    0.23660      0.00000     0.76204    0.00136     0.76340
      H   27    0.24239      0.00000     0.75688    0.00073     0.75761
      H   28    0.25025      0.00000     0.74865    0.00110     0.74975
 =======================================================================
   * Total *   -0.00000     27.99258    79.69874    0.30868   108.00000

 Normal termination of Gaussian 16 at Sat Aug 22 13:53:27 2020.
