 Gaussian 16, Revision A.03,

 ---------------------------------
 # opt=CalcAll B3LYP/6-31G* scf=qc
 ---------------------------------

 -------------------
 Title Card Required
 -------------------
 Symbolic Z-matrix:
 Charge =  0 Multiplicity = 1

 SCF Done:  E(RB3LYP) =  -1028.45078137     a.u. after   10 cycles
 SCF Done:  E(RB3LYP) =  -1028.47394353     a.u. after   19 cycles
 SCF Done:  E(RB3LYP) =  -1028.47954006     a.u. after   21 cycles
 SCF Done:  E(RB3LYP) =  -1028.48175979     a.u. after   23 cycles
 SCF Done:  E(RB3LYP) =  -1028.48233044     a.u. after   19 cycles
 SCF Done:  E(RB3LYP) =  -1028.48245842     a.u. after   15 cycles
 SCF Done:  E(RB3LYP) =  -1028.48158544     a.u. after   27 cycles
 SCF Done:  E(RB3LYP) =  -1028.48258265     a.u. after   12 cycles
 SCF Done:  E(RB3LYP) =  -1028.48263680     a.u. after    9 cycles
 SCF Done:  E(RB3LYP) =  -1028.48263704     a.u. after    4 cycles
 Optimization completed.
    -- Stationary point found.
 Normal termination of Gaussian 16 at Sat Aug 22 16:18:20 2020.

 ----------------------------------------------------------------------
 # freq B3LYP/6-31G* scf=qc volume NMR pop=NPA density=current Geom=All
 Check Guess=Read
 ----------------------------------------------------------------------

 Structure from the checkpoint file:  "azadicarboxylate_4_conf102.chk"
 -------------------
 Title Card Required
 -------------------
 Charge =  0 Multiplicity = 1

 SCF Done:  E(RB3LYP) =  -1028.48263704     a.u. after    1 cycles

      1  C    Isotropic =    62.1419   Anisotropy =   173.1153

      2  C    Isotropic =   120.7375   Anisotropy =    39.6562

      3  O    Isotropic =   141.6652   Anisotropy =   138.4276

      4  C    Isotropic =    34.5910   Anisotropy =    77.3203

      5  O    Isotropic =   -18.6715   Anisotropy =   494.9784

      6  N    Isotropic =  -322.9004   Anisotropy =   674.5155

      7  N    Isotropic =  -322.9035   Anisotropy =   674.5178

      8  C    Isotropic =    34.5906   Anisotropy =    77.3134

      9  O    Isotropic =   -18.6711   Anisotropy =   494.9703

     10  O    Isotropic =   141.6650   Anisotropy =   138.4347

     11  C    Isotropic =   120.7377   Anisotropy =    39.6559

     12  C    Isotropic =    62.1419   Anisotropy =   173.1155

     13  C    Isotropic =    63.8918   Anisotropy =   161.6560

     14  C    Isotropic =    67.6151   Anisotropy =   166.7864

     15  C    Isotropic =    66.8725   Anisotropy =   170.9779

     16  C    Isotropic =    68.1514   Anisotropy =   165.6238

     17  C    Isotropic =    65.0781   Anisotropy =   156.2475

     18  C    Isotropic =    65.0781   Anisotropy =   156.2474

     19  C    Isotropic =    68.1514   Anisotropy =   165.6238

     20  C    Isotropic =    66.8725   Anisotropy =   170.9779

     21  C    Isotropic =    67.6151   Anisotropy =   166.7863

     22  C    Isotropic =    63.8918   Anisotropy =   161.6560

     23  H    Isotropic =    27.6669   Anisotropy =     5.4716

     24  H    Isotropic =    26.3846   Anisotropy =     2.4018

     25  H    Isotropic =    27.6669   Anisotropy =     5.4717

     26  H    Isotropic =    26.3846   Anisotropy =     2.4018

     27  H    Isotropic =    24.2860   Anisotropy =     7.5265

     28  H    Isotropic =    24.8326   Anisotropy =     4.9433

     29  H    Isotropic =    24.8663   Anisotropy =     4.3458

     30  H    Isotropic =    24.8892   Anisotropy =     4.6054

     31  H    Isotropic =    24.8648   Anisotropy =     6.7373

     32  H    Isotropic =    24.8648   Anisotropy =     6.7373

     33  H    Isotropic =    24.8892   Anisotropy =     4.6054

     34  H    Isotropic =    24.8663   Anisotropy =     4.3458

     35  H    Isotropic =    24.8326   Anisotropy =     4.9433

     36  H    Isotropic =    24.2860   Anisotropy =     7.5265

  Exact polarizability: 248.087  -2.227 183.695  43.615   8.087 126.377
 Approx polarizability: 296.661   0.885 342.214  79.415  14.842 203.843

                      1                      2                      3
                      A                      A                      A
 Frequencies --      7.1376                16.8126                24.3660
 Red. masses --      6.0470                 6.8318                 3.8958
 Frc consts  --      0.0002                 0.0011                 0.0014
 IR Inten    --      0.6305                 0.6493                 0.1860

                      4                      5                      6
                      A                      A                      A
 Frequencies --     26.4180                33.7910                47.9178
 Red. masses --      4.6855                 7.7050                 7.9508
 Frc consts  --      0.0019                 0.0052                 0.0108
 IR Inten    --      0.0000                 0.0000                 0.0000

                      7                      8                      9
                      A                      A                      A
 Frequencies --     53.7898                71.2385                82.3731
 Red. masses --      8.3468                 7.0696                 5.5990
 Frc consts  --      0.0142                 0.0211                 0.0224
 IR Inten    --      1.9848                 0.0000                 4.1825

                     10                     11                     12
                      A                      A                      A
 Frequencies --    130.7745               160.7352               196.6719
 Red. masses --      7.7225                 6.7439                 7.2281
 Frc consts  --      0.0778                 0.1027                 0.1647
 IR Inten    --      0.7487                 0.0000                 0.0000

                     13                     14                     15
                      A                      A                      A
 Frequencies --    217.3690               227.9612               246.2574
 Red. masses --      7.2790                 7.2285                 7.5535
 Frc consts  --      0.2026                 0.2213                 0.2699
 IR Inten    --      0.8015                 0.0000                26.8576

                     16                     17                     18
                      A                      A                      A
 Frequencies --    330.1457               353.6018               363.4024
 Red. masses --      5.9147                 2.8006                 4.3403
 Frc consts  --      0.3798                 0.2063                 0.3377
 IR Inten    --      4.0791                 0.0000                 0.0000

                     19                     20                     21
                      A                      A                      A
 Frequencies --    371.3130               417.0493               417.0625
 Red. masses --      2.1980                 2.9669                 2.9651
 Frc consts  --      0.1785                 0.3040                 0.3039
 IR Inten    --     21.1769                 0.0000                 0.1383

                     22                     23                     24
                      A                      A                      A
 Frequencies --    434.1166               482.2010               505.2177
 Red. masses --      5.5356                 4.1233                 4.6161
 Frc consts  --      0.6147                 0.5649                 0.6942
 IR Inten    --      0.0000                 5.6079                 0.0000

                     25                     26                     27
                      A                      A                      A
 Frequencies --    570.4944               601.1622               612.5789
 Red. masses --      6.5527                 7.7644                 5.1334
 Frc consts  --      1.2565                 1.6533                 1.1350
 IR Inten    --     27.9732                 0.0000                 0.0000

                     28                     29                     30
                      A                      A                      A
 Frequencies --    627.7950               635.7311               635.8370
 Red. masses --      6.6949                 6.2691                 6.5116
 Frc consts  --      1.5546                 1.4928                 1.5511
 IR Inten    --     33.1657                 0.0000                 3.4983

                     31                     32                     33
                      A                      A                      A
 Frequencies --    646.9402               713.3415               713.8063
 Red. masses --      5.9853                 1.8526                 1.7799
 Frc consts  --      1.4759                 0.5554                 0.5343
 IR Inten    --     16.2903                 0.0000                66.1142

                     34                     35                     36
                      A                      A                      A
 Frequencies --    771.0623               774.5382               810.9494
 Red. masses --      2.0106                 2.1139                10.5990
 Frc consts  --      0.7043                 0.7472                 4.1068
 IR Inten    --      0.0000                65.8826                26.9646

                     37                     38                     39
                      A                      A                      A
 Frequencies --    827.8733               839.1052               839.5154
 Red. masses --      5.0712                 3.9195                 3.8382
 Frc consts  --      2.0478                 1.6260                 1.5938
 IR Inten    --      0.0000                 0.0000                22.4039

                     40                     41                     42
                      A                      A                      A
 Frequencies --    863.8184               863.8406               879.5822
 Red. masses --      1.2473                 1.2477                 4.8966
 Frc consts  --      0.5484                 0.5486                 2.2320
 IR Inten    --      0.7406                 0.0001                88.2138

                     43                     44                     45
                      A                      A                      A
 Frequencies --    905.7638               939.4530               942.6537
 Red. masses --      5.5287                 1.4834                 1.5670
 Frc consts  --      2.6724                 0.7714                 0.8204
 IR Inten    --      0.0000                21.6746                 0.0000

                     46                     47                     48
                      A                      A                      A
 Frequencies --    973.8943               973.9239               976.5973
 Red. masses --      1.3719                 1.3566                 4.2090
 Frc consts  --      0.7667                 0.7581                 2.3651
 IR Inten    --      1.1569                 0.0001               173.8927

                     49                     50                     51
                      A                      A                      A
 Frequencies --    987.6351              1002.4771              1002.4783
 Red. masses --      3.4661                 1.2763                 1.2767
 Frc consts  --      1.9920                 0.7557                 0.7560
 IR Inten    --      0.0000                 0.1753                 0.0016

                     52                     53                     54
                      A                      A                      A
 Frequencies --   1018.7333              1019.3305              1021.6401
 Red. masses --      3.6289                 5.0325                 3.4079
 Frc consts  --      2.2190                 3.0808                 2.0957
 IR Inten    --     18.4699                 0.0000                13.2428

                     55                     56                     57
                      A                      A                      A
 Frequencies --   1023.3511              1058.9526              1058.9563
 Red. masses --      3.2950                 2.2332                 2.2319
 Frc consts  --      2.0331                 1.4755                 1.4746
 IR Inten    --      0.0000                 0.0000                 2.3020

                     58                     59                     60
                      A                      A                      A
 Frequencies --   1123.5358              1123.5866              1194.8981
 Red. masses --      1.5184                 1.5184                 1.1025
 Frc consts  --      1.1293                 1.1294                 0.9275
 IR Inten    --      0.0000                 3.8153                 0.0000

                     61                     62                     63
                      A                      A                      A
 Frequencies --   1194.9008              1215.7186              1216.2030
 Red. masses --      1.1025                 1.1510                 1.1417
 Frc consts  --      0.9275                 1.0023                 0.9950
 IR Inten    --      0.0108                38.8209                 0.0000

                     64                     65                     66
                      A                      A                      A
 Frequencies --   1239.9554              1240.1147              1248.0876
 Red. masses --      3.1302                 2.9608                 3.9004
 Frc consts  --      2.8355                 2.6828                 3.5797
 IR Inten    --    104.5374                 0.0001              1369.6455

                     67                     68                     69
                      A                      A                      A
 Frequencies --   1260.5162              1297.1945              1298.6685
 Red. masses --      3.6631                 1.4523                 1.5661
 Frc consts  --      3.4292                 1.4399                 1.5562
 IR Inten    --      0.0000               172.3956                 0.0000

                     70                     71                     72
                      A                      A                      A
 Frequencies --   1364.9110              1364.9182              1375.1564
 Red. masses --      4.2150                 4.2121                 1.2659
 Frc consts  --      4.6266                 4.6234                 1.4104
 IR Inten    --      0.0000                 5.4378                 6.7528

                     73                     74                     75
                      A                      A                      A
 Frequencies --   1375.2535              1415.2224              1416.7420
 Red. masses --      1.2668                 1.3481                 1.3635
 Frc consts  --      1.4117                 1.5908                 1.6125
 IR Inten    --      0.0000                 0.0000                39.5947

                     76                     77                     78
                      A                      A                      A
 Frequencies --   1504.7549              1504.7616              1518.4701
 Red. masses --      2.1970                 2.1972                 1.1176
 Frc consts  --      2.9310                 2.9312                 1.5183
 IR Inten    --      0.0006                13.9184                23.7849

                     79                     80                     81
                      A                      A                      A
 Frequencies --   1518.7307              1547.9503              1547.9892
 Red. masses --      1.1195                 2.2112                 2.2089
 Frc consts  --      1.5214                 3.1217                 3.1187
 IR Inten    --      0.0000                10.1481                 0.0000

                     82                     83                     84
                      A                      A                      A
 Frequencies --   1646.2363              1646.2471              1653.4516
 Red. masses --      5.4964                 5.4956                13.9749
 Frc consts  --      8.7764                 8.7751                22.5103
 IR Inten    --      1.6480                 0.0000                 0.0000

                     85                     86                     87
                      A                      A                      A
 Frequencies --   1666.1248              1666.1559              1832.8118
 Red. masses --      5.5125                 5.5114                12.2025
 Frc consts  --      9.0160                 9.0146                24.1511
 IR Inten    --      0.7916                 0.0000                 0.0000

                     88                     89                     90
                      A                      A                      A
 Frequencies --   1847.0834              3111.0732              3111.1288
 Red. masses --     12.1456                 1.0577                 1.0577
 Frc consts  --     24.4142                 6.0316                 6.0318
 IR Inten    --    474.6812                40.4497                 0.0001

                     91                     92                     93
                      A                      A                      A
 Frequencies --   3168.5301              3168.5427              3179.8538
 Red. masses --      1.1107                 1.1107                 1.0866
 Frc consts  --      6.5699                 6.5700                 6.4732
 IR Inten    --      0.0000                 7.6979                 0.0053

                     94                     95                     96
                      A                      A                      A
 Frequencies --   3179.8590              3187.6738              3187.6757
 Red. masses --      1.0866                 1.0877                 1.0877
 Frc consts  --      6.4732                 6.5122                 6.5122
 IR Inten    --      9.2176                 4.8463                 0.0141

                     97                     98                     99
                      A                      A                      A
 Frequencies --   3198.1243              3198.1315              3207.6757
 Red. masses --      1.0914                 1.0914                 1.0948
 Frc consts  --      6.5769                 6.5769                 6.6367
 IR Inten    --      0.0024                44.7011                49.6492

                    100                    101                    102
                      A                      A                      A
 Frequencies --   3207.6978              3215.1946              3215.1997
 Red. masses --      1.0947                 1.0965                 1.0965
 Frc consts  --      6.6367                 6.6785                 6.6786
 IR Inten    --      0.0001                16.4563                 0.0021

 - Thermochemistry -
 -------------------
 Temperature   298.150 Kelvin.  Pressure   1.00000 Atm.
 Atom     1 has atomic number  6 and mass  12.00000

 Molecular mass:   298.09536 amu.
 Principal axes and moments of inertia in atomic units:
                           1         2         3
     Eigenvalues --  1781.85160********************
           X            1.00000  -0.00154   0.00175
           Y            0.00145   0.99873   0.05043
           Z           -0.00183  -0.05043   0.99873
 This molecule is an asymmetric top.
 Rotational symmetry number  1.
 Warning -- assumption of classical behavior for rotation
           may cause significant error
 Rotational temperatures (Kelvin)      0.04861     0.00388     0.00382
 Rotational constants (GHZ):           1.01285     0.08082     0.07966
 Zero-point vibrational energy     729448.4 (Joules/Mol)
                                  174.34235 (Kcal/Mol)
 Warning -- explicit consideration of  27 degrees of freedom as
           vibrations may cause significant error
 Vibrational temperatures:     10.27    24.19    35.06    38.01    48.62
          (Kelvin)             68.94    77.39   102.50   118.52   188.16
                              231.26   282.97   312.75   327.99   354.31
                              475.01   508.75   522.86   534.24   600.04
                              600.06   624.60   693.78   726.90   820.81
                              864.94   881.36   903.26   914.68   914.83
                              930.80  1026.34  1027.01  1109.39  1114.39
                             1166.78  1191.12  1207.29  1207.88  1242.84
                             1242.87  1265.52  1303.19  1351.66  1356.27
                             1401.22  1401.26  1405.11  1420.99  1442.34
                             1442.34  1465.73  1466.59  1469.91  1472.37
                             1523.60  1523.60  1616.52  1616.59  1719.19
                             1719.20  1749.15  1749.84  1784.02  1784.25
                             1795.72  1813.60  1866.37  1868.49  1963.80
                             1963.81  1978.54  1978.68  2036.19  2038.38
                             2165.01  2165.02  2184.74  2185.11  2227.16
                             2227.21  2368.57  2368.58  2378.95  2397.18
                             2397.23  2637.01  2657.54  4476.14  4476.22
                             4558.81  4558.83  4575.10  4575.11  4586.35
                             4586.35  4601.39  4601.40  4615.13  4615.16
                             4625.95  4625.96

 Zero-point correction=                           0.277832 (Hartree/Particle)
 Thermal correction to Energy=                    0.297287
 Thermal correction to Enthalpy=                  0.298231
 Thermal correction to Gibbs Free Energy=         0.222954
 Sum of electronic and zero-point Energies=          -1028.204805
 Sum of electronic and thermal Energies=             -1028.185350
 Sum of electronic and thermal Enthalpies=           -1028.184406
 Sum of electronic and thermal Free Energies=        -1028.259683

                     E (Thermal)             CV                S
                      KCal/Mol        Cal/Mol-Kelvin    Cal/Mol-Kelvin
 Total                  186.550             71.328            158.434
 Electronic               0.000              0.000              0.000
 Translational            0.889              2.981             42.974
 Rotational               0.889              2.981             35.154
 Vibrational            184.773             65.366             80.306
 Vibration     1          0.593              1.987              8.681
 Vibration     2          0.593              1.986              6.979
 Vibration     3          0.593              1.985              6.242
 Vibration     4          0.593              1.985              6.082
 Vibration     5          0.594              1.983              5.593
 Vibration     6          0.595              1.978              4.902
 Vibration     7          0.596              1.976              4.673
 Vibration     8          0.598              1.968              4.119
 Vibration     9          0.600              1.961              3.834
 Vibration    10          0.612              1.923              2.935
 Vibration    11          0.622              1.890              2.541
 Vibration    12          0.636              1.845              2.164
 Vibration    13          0.646              1.815              1.981
 Vibration    14          0.651              1.798              1.895
 Vibration    15          0.661              1.769              1.757
 Vibration    16          0.713              1.615              1.259
 Vibration    17          0.730              1.568              1.150
 Vibration    18          0.737              1.548              1.108
 Vibration    19          0.743              1.531              1.074
 Vibration    20          0.780              1.433              0.902
 Vibration    21          0.780              1.433              0.902
 Vibration    22          0.795              1.396              0.845
 Vibration    23          0.838              1.290              0.704
 Vibration    24          0.860              1.238              0.645
 Vibration    25          0.927              1.095              0.503
 Vibration    26          0.959              1.029              0.448
 Vibration    27          0.972              1.005              0.429

 Optimization completed.
    -- Stationary point found.
 Normal termination of Gaussian 16 at Sat Aug 22 16:28:51 2020.
 Gaussian 16:  ES64L-G16RevA.03 25-Dec-2016

 ----------------------------------------------------------------------
 # TD(NStates=10, Root=1) B3LYP/6-31G* scf=qc volume pop=NPA density=cu
 rrent Geom=AllCheck Guess=Read
 ----------------------------------------------------------------------

 Structure from the checkpoint file:  "azadicarboxylate_4_conf103.chk"
 -------------------
 Title Card Required
 -------------------
 Charge =  0 Multiplicity = 1

                         Standard orientation:
 ---------------------------------------------------------------------
 Center     Atomic      Atomic             Coordinates (Angstroms)
 Number     Number       Type             X           Y           Z
 ---------------------------------------------------------------------
      1          6           0        4.717423   -0.149643   -0.677744
      2          6           0        3.541681   -0.259547   -1.611070
      3          8           0        2.290670   -0.498322   -0.880182
      4          6           0        1.614907    0.580788   -0.497543
      5          8           0        1.882696    1.741322   -0.688297
      6          7           0        0.489039    0.197769    0.330743
      7          7           0       -0.489016   -0.197512   -0.330530
      8          6           0       -1.614884   -0.580531    0.497751
      9          8           0       -1.882580   -1.741063    0.688650
     10          8           0       -2.290767    0.498571    0.880202
     11          6           0       -3.541799    0.259784    1.611048
     12          6           0       -4.717475    0.149643    0.677665
     13          6           0       -5.122635   -1.098222    0.184591
     14          6           0       -6.207136   -1.191774   -0.687684
     15          6           0       -6.896066   -0.040752   -1.075590
     16          6           0       -6.497843    1.206221   -0.589304
     17          6           0       -5.413950    1.299124    0.283254
     18          6           0        5.413825   -1.299241   -0.283545
     19          6           0        6.497781   -1.206559    0.588958
     20          6           0        6.896140    0.040310    1.075403
     21          6           0        6.207283    1.191447    0.687709
     22          6           0        5.122720    1.098115   -0.184512
     23          1           0        3.621980   -1.132971   -2.260027
     24          1           0        3.413578    0.639882   -2.215408
     25          1           0       -3.622218    1.133291    2.259879
     26          1           0       -3.413652   -0.639549    2.215519
     27          1           0       -4.577927   -1.990178    0.480039
     28          1           0       -6.515022   -2.163775   -1.063333
     29          1           0       -7.742312   -0.115221   -1.753345
     30          1           0       -7.032326    2.104309   -0.886727
     31          1           0       -5.105090    2.270383    0.663087
     32          1           0        5.104859   -2.270418   -0.663502
     33          1           0        7.032206   -2.104735    0.886216
     34          1           0        7.742434    0.114607    1.753116
     35          1           0        6.515275    2.163366    1.063482
     36          1           0        4.578069    1.990161   -0.479795
 ---------------------------------------------------------------------

 SCF Done:  E(RB3LYP) =  -1028.48263704     a.u. after    1 cycles

 Excitation energies and oscillator strengths:

 Excited State   1:      Singlet-A      2.9467 eV  420.76 nm  f=0.0000  <S**2>=0.000
      74 -> 79         0.29352
      78 -> 79         0.63708
 This state for optimization and/or second-order correction.
 Total Energy, E(TD-HF/TD-DFT) =  -1028.37434792
 Copying the excited state density for this state as the 1-particle RhoCI density.

 Excited State   2:      Singlet-A      4.2156 eV  294.11 nm  f=0.0050  <S**2>=0.000
      75 -> 79        -0.36560
      77 -> 79         0.60313

 Excited State   3:      Singlet-A      4.2629 eV  290.84 nm  f=0.0000  <S**2>=0.000
      74 -> 79        -0.38727
      76 -> 79         0.55539
      78 -> 79         0.20046

 Excited State   4:      Singlet-A      4.2699 eV  290.37 nm  f=0.0018  <S**2>=0.000
      75 -> 79         0.60398
      77 -> 79         0.36689

 Excited State   5:      Singlet-A      4.2777 eV  289.84 nm  f=0.0000  <S**2>=0.000
      74 -> 79         0.50691
      76 -> 79         0.43655
      78 -> 79        -0.22279

 Excited State   6:      Singlet-A      5.0811 eV  244.01 nm  f=0.1046  <S**2>=0.000
      73 -> 79         0.69300

 Excited State   7:      Singlet-A      5.2127 eV  237.85 nm  f=0.0000  <S**2>=0.000
      70 -> 79        -0.41071
      72 -> 79         0.54886

 Excited State   8:      Singlet-A      5.3849 eV  230.24 nm  f=0.0000  <S**2>=0.000
      74 -> 83        -0.22073
      75 -> 81        -0.26041
      75 -> 82         0.22202
      76 -> 80         0.37807
      77 -> 81        -0.26499
      77 -> 82        -0.22015
      78 -> 83         0.25047

 Excited State   9:      Singlet-A      5.3849 eV  230.24 nm  f=0.0042  <S**2>=0.000
      74 -> 82        -0.22057
      75 -> 80        -0.26797
      75 -> 83         0.21855
      76 -> 81         0.36985
      77 -> 80        -0.26883
      77 -> 83        -0.22395
      78 -> 82         0.25089

 Excited State  10:      Singlet-A      5.4135 eV  229.03 nm  f=0.0590  <S**2>=0.000
      71 -> 79         0.69596

 The electronic state is 1-A.
 Alpha  occ. eigenvalues --  -19.21185 -19.21185 -19.15625 -19.15625 -14.42238
 Alpha  occ. eigenvalues --  -14.42187 -10.35193 -10.35193 -10.25869 -10.25869
 Alpha  occ. eigenvalues --  -10.20496 -10.20496 -10.19893 -10.19893 -10.19805
 Alpha  occ. eigenvalues --  -10.19805 -10.19695 -10.19695 -10.19612 -10.19612
 Alpha  occ. eigenvalues --  -10.19554 -10.19554  -1.13693  -1.12433  -1.05597
 Alpha  occ. eigenvalues --   -1.03892  -1.03489  -0.86339  -0.86259  -0.80986
 Alpha  occ. eigenvalues --   -0.78572  -0.76575  -0.75083  -0.75083  -0.71534
 Alpha  occ. eigenvalues --   -0.69589  -0.62323  -0.61430  -0.61326  -0.60201
 Alpha  occ. eigenvalues --   -0.58385  -0.56493  -0.55459  -0.52559  -0.52233
 Alpha  occ. eigenvalues --   -0.50904  -0.49419  -0.49246  -0.47846  -0.47499
 Alpha  occ. eigenvalues --   -0.46878  -0.46648  -0.45273  -0.43974  -0.43239
 Alpha  occ. eigenvalues --   -0.42950  -0.42446  -0.42234  -0.41154  -0.40858
 Alpha  occ. eigenvalues --   -0.39656  -0.37919  -0.37698  -0.36646  -0.36528
 Alpha  occ. eigenvalues --   -0.36194  -0.35980  -0.34587  -0.34587  -0.31751
 Alpha  occ. eigenvalues --   -0.31628  -0.31416  -0.30183  -0.26170  -0.25673
 Alpha  occ. eigenvalues --   -0.25651  -0.25618  -0.24642
 Alpha virt. eigenvalues --   -0.08140  -0.02006  -0.01866  -0.00710  -0.00709
 Alpha virt. eigenvalues --    0.00919   0.00924   0.08961   0.09009   0.11179
 Alpha virt. eigenvalues --    0.11301   0.12157   0.12553   0.13120   0.13160

 Mulliken charges:
               1
     1  C    0.149852
     2  C   -0.155797
     3  O   -0.407634
     4  C    0.735658
     5  O   -0.419745
     6  N   -0.240910
     7  N   -0.240907
     8  C    0.735657
     9  O   -0.419737
    10  O   -0.407632
    11  C   -0.155798
    12  C    0.149852
    13  C   -0.175359
    14  C   -0.129674
    15  C   -0.123341
    16  C   -0.128649
    17  C   -0.166962
    18  C   -0.166962
    19  C   -0.128649
    20  C   -0.123341
    21  C   -0.129674
    22  C   -0.175359
    23  H    0.170267
    24  H    0.184220
    25  H    0.170268
    26  H    0.184220
    27  H    0.160592
    28  H    0.138312
    29  H    0.136434
    30  H    0.136579
    31  H    0.136153
    32  H    0.136153
    33  H    0.136578
    34  H    0.136433
    35  H    0.138312
    36  H    0.160593
 Sum of Mulliken charges =  -0.00000

 Dipole moment (field-independent basis, Debye):
    X=             -0.0003    Y=             -0.0002    Z=             -0.0003  Tot=              0.0005
 Quadrupole moment (field-independent basis, Debye-Ang):
   XX=            -86.9692   YY=           -123.9567   ZZ=           -118.5502
   XY=             -6.5517   XZ=              1.4847   YZ=              3.8903

 Summary of Natural Population Analysis:

                                       Natural Population
                Natural  -----------------------------------------------
    Atom  No    Charge         Core      Valence    Rydberg      Total
 -----------------------------------------------------------------------
      C    1   -0.09145      1.99901     4.07790    0.01454     6.09145
      C    2   -0.12501      1.99912     4.10687    0.01901     6.12501
      O    3   -0.52156      1.99973     6.50950    0.01234     8.52156
      C    4    0.92233      1.99950     3.02759    0.05057     5.07767
      O    5   -0.55454      1.99977     6.53412    0.02065     8.55454
      N    6   -0.21877      1.99938     5.19308    0.02631     7.21877
      N    7   -0.21877      1.99938     5.19308    0.02631     7.21877
      C    8    0.92233      1.99950     3.02759    0.05057     5.07767
      O    9   -0.55453      1.99977     6.53411    0.02065     8.55453
      O   10   -0.52156      1.99973     6.50949    0.01234     8.52156
      C   11   -0.12501      1.99912     4.10687    0.01901     6.12501
      C   12   -0.09145      1.99901     4.07790    0.01454     6.09145
      C   13   -0.21142      1.99903     4.19898    0.01340     6.21142
      C   14   -0.22939      1.99910     4.21644    0.01385     6.22939
      C   15   -0.22158      1.99910     4.20901    0.01347     6.22158
      C   16   -0.23038      1.99910     4.21745    0.01383     6.23038
      C   17   -0.21110      1.99903     4.19889    0.01318     6.21110
      C   18   -0.21110      1.99903     4.19889    0.01318     6.21110
      C   19   -0.23038      1.99910     4.21745    0.01383     6.23038
      C   20   -0.22158      1.99910     4.20901    0.01347     6.22158
      C   21   -0.22939      1.99910     4.21644    0.01385     6.22939
      C   22   -0.21142      1.99903     4.19898    0.01340     6.21142
      H   23    0.24153      0.00000     0.75727    0.00120     0.75847
      H   24    0.24269      0.00000     0.75516    0.00215     0.75731
      H   25    0.24153      0.00000     0.75727    0.00120     0.75847
      H   26    0.24269      0.00000     0.75516    0.00215     0.75731
      H   27    0.25150      0.00000     0.74708    0.00142     0.74850
      H   28    0.24067      0.00000     0.75849    0.00083     0.75933
      H   29    0.23897      0.00000     0.76021    0.00082     0.76103
      H   30    0.23985      0.00000     0.75931    0.00084     0.76015
      H   31    0.23766      0.00000     0.76129    0.00106     0.76234
      H   32    0.23765      0.00000     0.76129    0.00106     0.76235
      H   33    0.23985      0.00000     0.75931    0.00084     0.76015
      H   34    0.23897      0.00000     0.76021    0.00082     0.76103
      H   35    0.24067      0.00000     0.75849    0.00083     0.75933
      H   36    0.25150      0.00000     0.74708    0.00142     0.74850
 =======================================================================
   * Total *   -0.00000     43.98375   111.57728    0.43897   156.00000

 Normal termination of Gaussian 16 at Sat Aug 22 16:40:18 2020.
