 Gaussian 16, Revision A.03,

 ---------------------------------
 # opt=CalcAll B3LYP/6-31G* scf=qc
 ---------------------------------

 -------------------
 Title Card Required
 -------------------
 Symbolic Z-matrix:
 Charge =  0 Multiplicity = 1

 SCF Done:  E(RB3LYP) =  -838.643988585     a.u. after   10 cycles
 SCF Done:  E(RB3LYP) =  -838.680375039     a.u. after   19 cycles
 SCF Done:  E(RB3LYP) =  -838.704750253     a.u. after   29 cycles
 SCF Done:  E(RB3LYP) =  -838.715221129     a.u. after   19 cycles
 SCF Done:  E(RB3LYP) =  -838.743807886     a.u. after   15 cycles
 SCF Done:  E(RB3LYP) =  -838.757139786     a.u. after   21 cycles
 SCF Done:  E(RB3LYP) =  -838.761568234     a.u. after   17 cycles
 SCF Done:  E(RB3LYP) =  -838.763028429     a.u. after   15 cycles
 SCF Done:  E(RB3LYP) =  -838.763312254     a.u. after   11 cycles
 SCF Done:  E(RB3LYP) =  -838.763352139     a.u. after    7 cycles
 SCF Done:  E(RB3LYP) =  -838.763356482     a.u. after    5 cycles
 SCF Done:  E(RB3LYP) =  -838.763356572     a.u. after    2 cycles
 Optimization completed.
    -- Stationary point found.
 Normal termination of Gaussian 16 at Sat Aug 22 19:34:51 2020.

 ----------------------------------------------------------------------
 # freq B3LYP/6-31G* scf=qc volume NMR pop=NPA density=current Geom=All
 Check Guess=Read
 ----------------------------------------------------------------------

 Structure from the checkpoint file:  "azadicarboxylate_5_conf72.chk"
 -------------------
 Title Card Required
 -------------------
 Charge =  0 Multiplicity = 1

 SCF Done:  E(RB3LYP) =  -838.763356572     a.u. after    1 cycles

      1  C    Isotropic =    35.9328   Anisotropy =    76.3373

      2  O    Isotropic =     1.9074   Anisotropy =   441.3964

      3  N    Isotropic =  -348.7470   Anisotropy =   719.9581

      4  N    Isotropic =  -348.7406   Anisotropy =   719.9506

      5  C    Isotropic =    35.9331   Anisotropy =    76.3381

      6  O    Isotropic =     1.9079   Anisotropy =   441.3917

      7  N    Isotropic =   148.1953   Anisotropy =    64.2642

      8  C    Isotropic =   145.5254   Anisotropy =    25.3993

      9  C    Isotropic =   163.2844   Anisotropy =     5.5671

     10  C    Isotropic =   164.1208   Anisotropy =     3.8410

     11  C    Isotropic =   162.9813   Anisotropy =     7.0028

     12  C    Isotropic =   146.6498   Anisotropy =    26.1023

     13  N    Isotropic =   148.1970   Anisotropy =    64.2629

     14  C    Isotropic =   146.6500   Anisotropy =    26.1022

     15  C    Isotropic =   162.9813   Anisotropy =     7.0028

     16  C    Isotropic =   164.1209   Anisotropy =     3.8407

     17  C    Isotropic =   163.2846   Anisotropy =     5.5673

     18  C    Isotropic =   145.5257   Anisotropy =    25.3993

     19  H    Isotropic =    28.9982   Anisotropy =     8.1194

     20  H    Isotropic =    29.3699   Anisotropy =     7.2255

     21  H    Isotropic =    30.7343   Anisotropy =     7.2994

     22  H    Isotropic =    30.8578   Anisotropy =     9.2399

     23  H    Isotropic =    30.4385   Anisotropy =     9.5519

     24  H    Isotropic =    30.6786   Anisotropy =     7.8723

     25  H    Isotropic =    30.5960   Anisotropy =     7.0946

     26  H    Isotropic =    30.7209   Anisotropy =     9.4682

     27  H    Isotropic =    27.8331   Anisotropy =     6.0937

     28  H    Isotropic =    29.5331   Anisotropy =     7.9738

     29  H    Isotropic =    27.8332   Anisotropy =     6.0937

     30  H    Isotropic =    29.5331   Anisotropy =     7.9739

     31  H    Isotropic =    30.5960   Anisotropy =     7.0946

     32  H    Isotropic =    30.7209   Anisotropy =     9.4682

     33  H    Isotropic =    30.4385   Anisotropy =     9.5519

     34  H    Isotropic =    30.6786   Anisotropy =     7.8723

     35  H    Isotropic =    30.7343   Anisotropy =     7.2993

     36  H    Isotropic =    30.8578   Anisotropy =     9.2399

     37  H    Isotropic =    28.9982   Anisotropy =     8.1194

     38  H    Isotropic =    29.3700   Anisotropy =     7.2256

  Exact polarizability: 207.005  -1.029 150.814  -7.110   4.152 116.377
 Approx polarizability: 236.790  -6.073 236.517 -20.860  11.376 187.181

                      1                      2                      3
                      A                      A                      A
 Frequencies --     14.7050                30.1437                34.5705
 Red. masses --      4.7165                 4.4081                 4.4487
 Frc consts  --      0.0006                 0.0024                 0.0031
 IR Inten    --      3.1064                 0.0000                 2.4647

                      4                      5                      6
                      A                      A                      A
 Frequencies --     45.7111                60.8039                63.0656
 Red. masses --      3.8459                 4.3166                 5.9187
 Frc consts  --      0.0047                 0.0094                 0.0139
 IR Inten    --      3.6968                 2.7542                 0.0000

                      7                      8                      9
                      A                      A                      A
 Frequencies --     83.4185               173.5906               188.3151
 Red. masses --      4.5730                 3.1726                 2.7596
 Frc consts  --      0.0187                 0.0563                 0.0577
 IR Inten    --      0.0000                 0.0000                 9.5177

                     10                     11                     12
                      A                      A                      A
 Frequencies --    201.6114               219.7598               264.6216
 Red. masses --      8.3578                 4.1938                 2.2091
 Frc consts  --      0.2002                 0.1193                 0.0911
 IR Inten    --      2.9012                 0.0000                 3.5922

                     13                     14                     15
                      A                      A                      A
 Frequencies --    270.0474               304.5778               330.6025
 Red. masses --      2.5934                 2.6027                 2.8009
 Frc consts  --      0.1114                 0.1423                 0.1804
 IR Inten    --      0.0000                 0.0000                22.5825

                     16                     17                     18
                      A                      A                      A
 Frequencies --    361.6361               386.9941               406.7060
 Red. masses --      5.8093                 4.6913                 1.7766
 Frc consts  --      0.4476                 0.4140                 0.1731
 IR Inten    --      0.0000                 2.6184                 0.0001

                     19                     20                     21
                      A                      A                      A
 Frequencies --    406.9062               444.4289               450.8527
 Red. masses --      1.8104                 3.0917                 2.9347
 Frc consts  --      0.1766                 0.3598                 0.3515
 IR Inten    --      4.6663                 0.0000                 1.0598

                     22                     23                     24
                      A                      A                      A
 Frequencies --    476.2769               530.6751               553.6400
 Red. masses --      3.8159                 2.0349                 1.9052
 Frc consts  --      0.5100                 0.3376                 0.3441
 IR Inten    --      0.0000                 9.3508                 0.0000

                     25                     26                     27
                      A                      A                      A
 Frequencies --    575.5203               579.2826               623.4697
 Red. masses --      6.1381                 7.9391                 3.4578
 Frc consts  --      1.1979                 1.5696                 0.7919
 IR Inten    --     22.0785                 0.0000                13.1086

                     28                     29                     30
                      A                      A                      A
 Frequencies --    690.6006               747.9052               794.8777
 Red. masses --      3.9107                 5.6228                11.4597
 Frc consts  --      1.0989                 1.8531                 4.2660
 IR Inten    --      0.0000                 2.7035                21.4612

                     31                     32                     33
                      A                      A                      A
 Frequencies --    824.9350               825.4308               832.8536
 Red. masses --      1.5308                 1.4986                 3.1304
 Frc consts  --      0.6138                 0.6016                 1.2793
 IR Inten    --      0.0000                 0.4492                 0.0000

                     34                     35                     36
                      A                      A                      A
 Frequencies --    841.1336               869.4306               869.6328
 Red. masses --      3.0329                 1.4412                 1.4071
 Frc consts  --      1.2643                 0.6419                 0.6270
 IR Inten    --      2.7427                 0.0000                17.4996

                     37                     38                     39
                      A                      A                      A
 Frequencies --    889.7168               908.7119               920.6979
 Red. masses --      3.1959                 2.4928                 3.1571
 Frc consts  --      1.4906                 1.2128                 1.5768
 IR Inten    --      0.0000                 7.4859                 0.0000

                     40                     41                     42
                      A                      A                      A
 Frequencies --    970.9398               978.3167               979.5816
 Red. masses --      2.6622                 1.4949                 1.3653
 Frc consts  --      1.4787                 0.8430                 0.7719
 IR Inten    --      4.6772                 0.0000                 5.0794

                     43                     44                     45
                      A                      A                      A
 Frequencies --    981.7557              1037.9200              1040.7415
 Red. masses --      2.9077                 2.8136                 2.5468
 Frc consts  --      1.6512                 1.7858                 1.6253
 IR Inten    --      0.0000                 0.0000                87.4113

                     46                     47                     48
                      A                      A                      A
 Frequencies --   1046.8828              1052.5549              1083.3370
 Red. masses --      2.1589                 2.2562                 1.7198
 Frc consts  --      1.3941                 1.4727                 1.1892
 IR Inten    --      0.0000                 4.0717                 0.0000

                     49                     50                     51
                      A                      A                      A
 Frequencies --   1083.4034              1154.3443              1156.9465
 Red. masses --      1.7245                 2.1578                 2.0747
 Frc consts  --      1.1926                 1.6941                 1.6362
 IR Inten    --      0.5590                 0.0000                14.7548

                     52                     53                     54
                      A                      A                      A
 Frequencies --   1170.8062              1173.4038              1196.8905
 Red. masses --      1.8937                 2.0376                 1.2614
 Frc consts  --      1.5294                 1.6530                 1.0646
 IR Inten    --      0.0000                93.5574                 0.0001

                     55                     56                     57
                      A                      A                      A
 Frequencies --   1196.9612              1261.1372              1261.8805
 Red. masses --      1.2637                 1.8060                 1.7935
 Frc consts  --      1.0667                 1.6924                 1.6826
 IR Inten    --      2.5053                 0.0006               264.4697

                     58                     59                     60
                      A                      A                      A
 Frequencies --   1287.0349              1291.8424              1300.4009
 Red. masses --      2.2561                 1.8774                 1.2554
 Frc consts  --      2.2019                 1.8460                 1.2508
 IR Inten    --    289.3784                 0.0000                23.7362

                     61                     62                     63
                      A                      A                      A
 Frequencies --   1302.1610              1323.3993              1323.5377
 Red. masses --      1.3283                 1.2119                 1.2256
 Frc consts  --      1.3270                 1.2505                 1.2650
 IR Inten    --      0.0000                50.0444                 0.0019

                     64                     65                     66
                      A                      A                      A
 Frequencies --   1371.0512              1371.0775              1398.0856
 Red. masses --      1.2814                 1.2812                 1.3675
 Frc consts  --      1.4191                 1.4191                 1.5749
 IR Inten    --      0.0000                 0.0807                 0.0020

                     67                     68                     69
                      A                      A                      A
 Frequencies --   1398.0965              1400.5101              1400.5232
 Red. masses --      1.3599                 1.4619                 1.4788
 Frc consts  --      1.5661                 1.6894                 1.7089
 IR Inten    --      4.1217                 0.0003                 4.2899

                     70                     71                     72
                      A                      A                      A
 Frequencies --   1403.7051              1403.7712              1421.7437
 Red. masses --      1.4442                 1.4447                 1.3296
 Frc consts  --      1.6766                 1.6773                 1.5834
 IR Inten    --      6.0726                 0.0006                 0.0002

                     73                     74                     75
                      A                      A                      A
 Frequencies --   1422.1022              1483.0039              1486.9991
 Red. masses --      1.3381                 2.9371                 3.0953
 Frc consts  --      1.5944                 3.8059                 4.0325
 IR Inten    --     20.7842               417.7577                 0.0002

                     76                     77                     78
                      A                      A                      A
 Frequencies --   1507.8122              1507.8590              1514.2240
 Red. masses --      1.0956                 1.0978                 1.0860
 Frc consts  --      1.4676                 1.4706                 1.4672
 IR Inten    --      1.8870                 0.0000                11.1208

                     79                     80                     81
                      A                      A                      A
 Frequencies --   1514.2480              1516.9961              1517.0417
 Red. masses --      1.0864                 1.0902                 1.0887
 Frc consts  --      1.4677                 1.4782                 1.4762
 IR Inten    --      0.0002                 0.0001                26.4981

                     82                     83                     84
                      A                      A                      A
 Frequencies --   1523.2905              1523.4240              1535.1283
 Red. masses --      1.0933                 1.0950                 1.1023
 Frc consts  --      1.4947                 1.4973                 1.5305
 IR Inten    --      7.8801                 0.0003                 0.0016

                     85                     86                     87
                      A                      A                      A
 Frequencies --   1535.1814              1645.1700              1775.3746
 Red. masses --      1.0968                13.7277                11.5957
 Frc consts  --      1.5230                21.8912                21.5342
 IR Inten    --      7.9506                 0.0000                 0.0000

                     88                     89                     90
                      A                      A                      A
 Frequencies --   1797.6421              3018.5586              3018.5614
 Red. masses --     11.7391                 1.0729                 1.0729
 Frc consts  --     22.3506                 5.7598                 5.7598
 IR Inten    --    865.0202                 7.1110                16.6604

                     91                     92                     93
                      A                      A                      A
 Frequencies --   3021.2846              3021.4540              3025.3817
 Red. masses --      1.0718                 1.0715                 1.0704
 Frc consts  --      5.7642                 5.7634                 5.7726
 IR Inten    --     52.8512                 0.0017               129.0066

                     94                     95                     96
                      A                      A                      A
 Frequencies --   3025.6014              3046.1652              3046.1691
 Red. masses --      1.0707                 1.0608                 1.0608
 Frc consts  --      5.7750                 5.7993                 5.7993
 IR Inten    --      0.0003                 0.0001                51.6533

                     97                     98                     99
                      A                      A                      A
 Frequencies --   3047.9686              3048.0261              3082.1825
 Red. masses --      1.0616                 1.0616                 1.0933
 Frc consts  --      5.8105                 5.8107                 6.1195
 IR Inten    --      0.0003                36.3218                99.6336

                    100                    101                    102
                      A                      A                      A
 Frequencies --   3082.3199              3089.4699              3089.4755
 Red. masses --      1.0932                 1.1039                 1.1039
 Frc consts  --      6.1196                 6.2078                 6.2078
 IR Inten    --      0.0000                 0.0303                63.1566

                    103                    104                    105
                      A                      A                      A
 Frequencies --   3094.6717              3094.6851              3153.5914
 Red. masses --      1.1050                 1.1050                 1.0925
 Frc consts  --      6.2350                 6.2349                 6.4015
 IR Inten    --    130.3224                 0.0234                11.5381

                    106                    107                    108
                      A                      A                      A
 Frequencies --   3153.9701              3157.4291              3157.4563
 Red. masses --      1.0926                 1.0920                 1.0919
 Frc consts  --      6.4036                 6.4140                 6.4138
 IR Inten    --      0.0000                 7.3476                 0.0256

 - Thermochemistry -
 -------------------
 Temperature   298.150 Kelvin.  Pressure   1.00000 Atm.
 Atom     1 has atomic number  6 and mass  12.00000

 Molecular mass:   252.15863 amu.
 Principal axes and moments of inertia in atomic units:
                           1         2         3
     Eigenvalues --  1678.229689821.72011**********
           X            0.99996  -0.00896   0.00215
           Y            0.00895   0.99994   0.00594
           Z           -0.00220  -0.00593   0.99998
 This molecule is an asymmetric top.
 Rotational symmetry number  1.
 Warning -- assumption of classical behavior for rotation
           may cause significant error
 Rotational temperatures (Kelvin)      0.05161     0.00882     0.00792
 Rotational constants (GHZ):           1.07538     0.18375     0.16495
 Zero-point vibrational energy     864915.2 (Joules/Mol)
                                  206.71968 (Kcal/Mol)
 Warning -- explicit consideration of  26 degrees of freedom as
           vibrations may cause significant error
 Vibrational temperatures:     21.16    43.37    49.74    65.77    87.48
          (Kelvin)             90.74   120.02   249.76   270.94   290.07
                              316.19   380.73   388.54   438.22   475.66
                              520.31   556.80   585.16   585.45   639.43
                              648.68   685.26   763.52   796.56   828.05
                              833.46   897.03   993.62  1076.07  1143.65
                             1186.90  1187.61  1198.29  1210.20  1250.92
                             1251.21  1280.10  1307.43  1324.68  1396.97
                             1407.58  1409.40  1412.53  1493.34  1497.39
                             1506.23  1514.39  1558.68  1558.78  1660.84
                             1664.59  1684.53  1688.27  1722.06  1722.16
                             1814.50  1815.56  1851.76  1858.67  1870.99
                             1873.52  1904.08  1904.28  1972.64  1972.67
                             2011.53  2011.55  2015.02  2015.04  2019.62
                             2019.71  2045.57  2046.09  2133.71  2139.46
                             2169.41  2169.47  2178.63  2178.67  2182.62
                             2182.68  2191.68  2191.87  2208.71  2208.78
                             2367.03  2554.37  2586.41  4343.03  4343.04
                             4346.95  4347.20  4352.85  4353.17  4382.75
                             4382.76  4385.35  4385.43  4434.57  4434.77
                             4445.06  4445.07  4452.54  4452.56  4537.31
                             4537.86  4542.84  4542.88

 Zero-point correction=                           0.329429 (Hartree/Particle)
 Thermal correction to Energy=                    0.346604
 Thermal correction to Enthalpy=                  0.347548
 Thermal correction to Gibbs Free Energy=         0.281219
 Sum of electronic and zero-point Energies=           -838.433928
 Sum of electronic and thermal Energies=              -838.416753
 Sum of electronic and thermal Enthalpies=            -838.415809
 Sum of electronic and thermal Free Energies=         -838.482137

                     E (Thermal)             CV                S
                      KCal/Mol        Cal/Mol-Kelvin    Cal/Mol-Kelvin
 Total                  217.497             64.676            139.600
 Electronic               0.000              0.000              0.000
 Translational            0.889              2.981             42.475
 Rotational               0.889              2.981             33.555
 Vibrational            215.720             58.714             63.570
 Vibration     1          0.593              1.986              7.245
 Vibration     2          0.594              1.984              5.820
 Vibration     3          0.594              1.983              5.548
 Vibration     4          0.595              1.979              4.995
 Vibration     5          0.597              1.973              4.431
 Vibration     6          0.597              1.972              4.359
 Vibration     7          0.600              1.961              3.809
 Vibration     8          0.627              1.875              2.396
 Vibration     9          0.633              1.856              2.244
 Vibration    10          0.638              1.838              2.118
 Vibration    11          0.647              1.811              1.961
 Vibration    12          0.671              1.738              1.631
 Vibration    13          0.674              1.728              1.596
 Vibration    14          0.695              1.665              1.392
 Vibration    15          0.713              1.614              1.257
 Vibration    16          0.736              1.551              1.115
 Vibration    17          0.755              1.498              1.012
 Vibration    18          0.771              1.456              0.938
 Vibration    19          0.772              1.455              0.938
 Vibration    20          0.804              1.373              0.813
 Vibration    21          0.810              1.359              0.793
 Vibration    22          0.833              1.303              0.720
 Vibration    23          0.886              1.182              0.586
 Vibration    24          0.909              1.132              0.537
 Vibration    25          0.932              1.084              0.494
 Vibration    26          0.936              1.076              0.487

 Optimization completed.
    -- Stationary point found.
 Normal termination of Gaussian 16 at Sat Aug 22 19:45:07 2020.
 Gaussian 16:  ES64L-G16RevA.03 25-Dec-2016

 ----------------------------------------------------------------------
 # TD(NStates=10, Root=1) B3LYP/6-31G* scf=qc volume pop=NPA density=cu
 rrent Geom=AllCheck Guess=Read
 ----------------------------------------------------------------------

 Structure from the checkpoint file:  "azadicarboxylate_5_conf73.chk"
 -------------------
 Title Card Required
 -------------------
 Charge =  0 Multiplicity = 1

                         Standard orientation:
 ---------------------------------------------------------------------
 Center     Atomic      Atomic             Coordinates (Angstroms)
 Number     Number       Type             X           Y           Z
 ---------------------------------------------------------------------
      1          6           0        1.414094    1.072516   -0.250513
      2          8           0        1.213572    2.226156    0.095840
      3          7           0        0.261123    0.215518   -0.522561
      4          7           0       -0.261086   -0.215503    0.522356
      5          6           0       -1.414060   -1.072500    0.250308
      6          8           0       -1.213555   -2.226109   -0.096158
      7          7           0       -2.609608   -0.500615    0.527392
      8          6           0       -2.790984    0.909745    0.890628
      9          6           0       -3.685797    1.617724   -0.135889
     10          6           0       -5.010478    0.862063   -0.326939
     11          6           0       -4.758956   -0.613790   -0.675047
     12          6           0       -3.840574   -1.277498    0.359677
     13          7           0        2.609651    0.500590   -0.527456
     14          6           0        3.840618    1.277462   -0.359707
     15          6           0        4.758895    0.613832    0.675159
     16          6           0        5.010412   -0.862061    0.327216
     17          6           0        3.685731   -1.617711    0.136128
     18          6           0        2.791022   -0.909812   -0.890535
     19          1           0       -1.816483    1.393570    0.966597
     20          1           0       -3.259565    0.949235    1.885425
     21          1           0       -3.147476    1.676908   -1.090932
     22          1           0       -3.869682    2.646431    0.197187
     23          1           0       -5.612394    1.340893   -1.108412
     24          1           0       -5.597449    0.920607    0.601849
     25          1           0       -4.287591   -0.687262   -1.663950
     26          1           0       -5.705199   -1.166537   -0.725685
     27          1           0       -3.554440   -2.287768    0.064770
     28          1           0       -4.349261   -1.333687    1.333841
     29          1           0        3.554478    2.287766   -0.064921
     30          1           0        4.349390    1.333549   -1.333833
     31          1           0        4.287447    0.687411    1.664014
     32          1           0        5.705148    1.166561    0.725825
     33          1           0        5.612250   -1.340828    1.108787
     34          1           0        5.597461   -0.920709   -0.601516
     35          1           0        3.147325   -1.676789    1.091129
     36          1           0        3.869622   -2.646454   -0.196832
     37          1           0        1.816514   -1.393617   -0.966538
     38          1           0        3.259685   -0.949414   -1.885289
 ---------------------------------------------------------------------

 SCF Done:  E(RB3LYP) =  -838.763356572     a.u. after    1 cycles

 Excitation energies and oscillator strengths:

 Excited State   1:      Singlet-A      2.6957 eV  459.93 nm  f=0.0000  <S**2>=0.000
      68 -> 69         0.69897
 This state for optimization and/or second-order correction.
 Total Energy, E(TD-HF/TD-DFT) =  -838.664289687
 Copying the excited state density for this state as the 1-particle RhoCI density.

 Excited State   2:      Singlet-A      3.8535 eV  321.74 nm  f=0.0000  <S**2>=0.000
      66 -> 69         0.70264

 Excited State   3:      Singlet-A      3.8605 eV  321.16 nm  f=0.0019  <S**2>=0.000
      67 -> 69         0.70381

 Excited State   4:      Singlet-A      4.4417 eV  279.14 nm  f=0.0495  <S**2>=0.000
      65 -> 69         0.69352

 Excited State   5:      Singlet-A      5.0352 eV  246.23 nm  f=0.0000  <S**2>=0.000
      64 -> 69         0.68248
      68 -> 70         0.12407

 Excited State   6:      Singlet-A      5.7681 eV  214.95 nm  f=0.0444  <S**2>=0.000
      65 -> 70         0.19671
      68 -> 71         0.66695

 Excited State   7:      Singlet-A      5.7964 eV  213.90 nm  f=0.0000  <S**2>=0.000
      64 -> 69        -0.13380
      65 -> 71         0.19205
      68 -> 70         0.65591

 Excited State   8:      Singlet-A      6.4152 eV  193.27 nm  f=0.0063  <S**2>=0.000
      61 -> 69         0.10982
      63 -> 69         0.68715

 Excited State   9:      Singlet-A      6.4659 eV  191.75 nm  f=0.0000  <S**2>=0.000
      60 -> 69         0.22752
      62 -> 69         0.66327

 Excited State  10:      Singlet-A      6.5447 eV  189.44 nm  f=0.0000  <S**2>=0.000
      58 -> 69         0.18480
      60 -> 69         0.63406
      62 -> 69        -0.23999

 The electronic state is 1-A.
 Alpha  occ. eigenvalues --  -19.12129 -19.12129 -14.40352 -14.40302 -14.37176
 Alpha  occ. eigenvalues --  -14.37175 -10.30905 -10.30905 -10.22693 -10.22693
 Alpha  occ. eigenvalues --  -10.22214 -10.22213 -10.19132 -10.19132 -10.19122
 Alpha  occ. eigenvalues --  -10.19122 -10.19101 -10.19101  -1.08248  -1.04616
 Alpha  occ. eigenvalues --   -1.00813  -0.94930  -0.94773  -0.81161  -0.80510
 Alpha  occ. eigenvalues --   -0.77494  -0.76836  -0.75023  -0.69219  -0.66949
 Alpha  occ. eigenvalues --   -0.64232  -0.63558  -0.60100  -0.59039  -0.56144
 Alpha  occ. eigenvalues --   -0.54220  -0.52701  -0.48949  -0.48159  -0.47661
 Alpha  occ. eigenvalues --   -0.46468  -0.46457  -0.45767  -0.45663  -0.43897
 Alpha  occ. eigenvalues --   -0.43616  -0.42539  -0.42437  -0.41733  -0.41733
 Alpha  occ. eigenvalues --   -0.39968  -0.39670  -0.38273  -0.38194  -0.36644
 Alpha  occ. eigenvalues --   -0.36134  -0.35983  -0.34357  -0.34140  -0.33366
 Alpha  occ. eigenvalues --   -0.33311  -0.32999  -0.32867  -0.29729  -0.26934
 Alpha  occ. eigenvalues --   -0.24518  -0.24480  -0.22531
 Alpha virt. eigenvalues --   -0.06753   0.03269   0.03402   0.08522   0.08998
 Alpha virt. eigenvalues --    0.10826   0.10898   0.12711   0.12763   0.13979
 Alpha virt. eigenvalues --    0.14315   0.14450   0.14570   0.15621   0.15885

 Mulliken charges:
               1
     1  C    0.699256
     2  O   -0.468460
     3  N   -0.283484
     4  N   -0.283489
     5  C    0.699261
     6  O   -0.468460
     7  N   -0.398499
     8  C   -0.155207
     9  C   -0.261504
    10  C   -0.269563
    11  C   -0.262972
    12  C   -0.151255
    13  N   -0.398495
    14  C   -0.151256
    15  C   -0.262972
    16  C   -0.269564
    17  C   -0.261504
    18  C   -0.155210
    19  H    0.207984
    20  H    0.144582
    21  H    0.151985
    22  H    0.144003
    23  H    0.142863
    24  H    0.131596
    25  H    0.149955
    26  H    0.141620
    27  H    0.190583
    28  H    0.146515
    29  H    0.190583
    30  H    0.146516
    31  H    0.149955
    32  H    0.141620
    33  H    0.142863
    34  H    0.131596
    35  H    0.151984
    36  H    0.144003
    37  H    0.207987
    38  H    0.144583
 Sum of Mulliken charges =  -0.00000

 Dipole moment (field-independent basis, Debye):
    X=              0.0000    Y=             -0.0001    Z=              0.0005  Tot=              0.0005
 Quadrupole moment (field-independent basis, Debye-Ang):
   XX=            -77.2923   YY=           -116.7992   ZZ=           -105.9948
   XY=             -3.7839   XZ=             -3.0666   YZ=             -0.6535

 Summary of Natural Population Analysis:

                                       Natural Population
                Natural  -----------------------------------------------
    Atom  No    Charge         Core      Valence    Rydberg      Total
 -----------------------------------------------------------------------
      C    1    0.79688      1.99934     3.15701    0.04677     5.20312
      O    2   -0.57205      1.99979     6.55373    0.01853     8.57205
      N    3   -0.25233      1.99941     5.22696    0.02596     7.25233
      N    4   -0.25234      1.99941     5.22697    0.02596     7.25234
      C    5    0.79688      1.99934     3.15701    0.04677     5.20312
      O    6   -0.57205      1.99979     6.55373    0.01853     8.57205
      N    7   -0.47012      1.99928     5.45794    0.01290     7.47012
      C    8   -0.26147      1.99930     4.24580    0.01637     6.26147
      C    9   -0.47198      1.99932     4.46118    0.01147     6.47198
      C   10   -0.46563      1.99933     4.45475    0.01155     6.46563
      C   11   -0.47189      1.99932     4.46124    0.01132     6.47189
      C   12   -0.25927      1.99932     4.24380    0.01615     6.25927
      N   13   -0.47012      1.99928     5.45794    0.01290     7.47012
      C   14   -0.25927      1.99932     4.24380    0.01615     6.25927
      C   15   -0.47189      1.99932     4.46124    0.01132     6.47189
      C   16   -0.46563      1.99933     4.45475    0.01155     6.46563
      C   17   -0.47198      1.99932     4.46118    0.01147     6.47198
      C   18   -0.26147      1.99930     4.24580    0.01637     6.26147
      H   19    0.27299      0.00000     0.72451    0.00249     0.72701
      H   20    0.22510      0.00000     0.77273    0.00217     0.77490
      H   21    0.23843      0.00000     0.75957    0.00201     0.76157
      H   22    0.24603      0.00000     0.75286    0.00112     0.75397
      H   23    0.24451      0.00000     0.75438    0.00111     0.75549
      H   24    0.22574      0.00000     0.77232    0.00194     0.77426
      H   25    0.23712      0.00000     0.76099    0.00189     0.76288
      H   26    0.24445      0.00000     0.75443    0.00113     0.75555
      H   27    0.26773      0.00000     0.73020    0.00207     0.73227
      H   28    0.22577      0.00000     0.77219    0.00204     0.77423
      H   29    0.26773      0.00000     0.73020    0.00207     0.73227
      H   30    0.22578      0.00000     0.77219    0.00204     0.77422
      H   31    0.23712      0.00000     0.76099    0.00189     0.76288
      H   32    0.24445      0.00000     0.75443    0.00113     0.75555
      H   33    0.24451      0.00000     0.75438    0.00111     0.75549
      H   34    0.22574      0.00000     0.77232    0.00194     0.77426
      H   35    0.23843      0.00000     0.75957    0.00201     0.76157
      H   36    0.24603      0.00000     0.75286    0.00112     0.75397
      H   37    0.27299      0.00000     0.72451    0.00249     0.72701
      H   38    0.22510      0.00000     0.77273    0.00217     0.77490
 =======================================================================
   * Total *   -0.00000     35.98882    99.63320    0.37798   136.00000

 Normal termination of Gaussian 16 at Sat Aug 22 19:58:18 2020.
