 Gaussian 16, Revision A.03,

 ---------------------------------
 # opt=CalcAll B3LYP/6-31G* scf=qc
 ---------------------------------

 -------------------
 Title Card Required
 -------------------
 Symbolic Z-matrix:
 Charge =  0 Multiplicity = 1

 SCF Done:  E(RB3LYP) =  -1947.64659040     a.u. after    9 cycles
 SCF Done:  E(RB3LYP) =  -1947.66745564     a.u. after   23 cycles
 SCF Done:  E(RB3LYP) =  -1947.67056634     a.u. after   21 cycles
 SCF Done:  E(RB3LYP) =  -1947.66933516     a.u. after   19 cycles
 SCF Done:  E(RB3LYP) =  -1947.67145346     a.u. after   17 cycles
 SCF Done:  E(RB3LYP) =  -1947.67243755     a.u. after   19 cycles
 SCF Done:  E(RB3LYP) =  -1947.67333742     a.u. after   19 cycles
 SCF Done:  E(RB3LYP) =  -1947.67374968     a.u. after   19 cycles
 SCF Done:  E(RB3LYP) =  -1947.67391194     a.u. after   11 cycles
 SCF Done:  E(RB3LYP) =  -1947.67391599     a.u. after    6 cycles
 SCF Done:  E(RB3LYP) =  -1947.67391629     a.u. after    4 cycles
 SCF Done:  E(RB3LYP) =  -1947.67391630     a.u. after    2 cycles
 Optimization completed.
    -- Stationary point found.
 Normal termination of Gaussian 16 at Sat Aug 22 16:32:08 2020.

 ----------------------------------------------------------------------
 # freq B3LYP/6-31G* scf=qc volume NMR pop=NPA density=current Geom=All
 Check Guess=Read
 ----------------------------------------------------------------------

 Structure from the checkpoint file:  "azadicarboxylate_3_conf22.chk"
 -------------------
 Title Card Required
 -------------------
 Charge =  0 Multiplicity = 1

 SCF Done:  E(RB3LYP) =  -1947.67391630     a.u. after    1 cycles

      1  C    Isotropic =    63.7694   Anisotropy =   171.9956

      2  C    Isotropic =   121.5110   Anisotropy =    40.1939

      3  O    Isotropic =   141.2588   Anisotropy =   142.2924

      4  C    Isotropic =    34.6904   Anisotropy =    84.5911

      5  O    Isotropic =   -22.0517   Anisotropy =   494.8548

      6  N    Isotropic =  -323.5051   Anisotropy =   676.5407

      7  N    Isotropic =  -323.5006   Anisotropy =   676.5369

      8  C    Isotropic =    34.6915   Anisotropy =    84.5984

      9  O    Isotropic =   -22.0587   Anisotropy =   494.8699

     10  O    Isotropic =   141.2605   Anisotropy =   142.2923

     11  C    Isotropic =   121.5111   Anisotropy =    40.1913

     12  C    Isotropic =    63.7703   Anisotropy =   171.9960

     13  C    Isotropic =    62.7948   Anisotropy =   159.0385

     14  C    Isotropic =    66.8660   Anisotropy =   142.0712

     15  C    Isotropic =    51.2523   Anisotropy =   110.8794

     16  C    Isotropic =    67.3431   Anisotropy =   141.1120

     17  C    Isotropic =    64.0437   Anisotropy =   152.8370

     18  Cl   Isotropic =   718.4724   Anisotropy =   454.6965

     19  C    Isotropic =    64.0437   Anisotropy =   152.8318

     20  C    Isotropic =    67.3432   Anisotropy =   141.1116

     21  C    Isotropic =    51.2519   Anisotropy =   110.8800

     22  C    Isotropic =    66.8655   Anisotropy =   142.0724

     23  C    Isotropic =    62.7957   Anisotropy =   159.0421

     24  Cl   Isotropic =   718.4725   Anisotropy =   454.6945

     25  H    Isotropic =    27.6771   Anisotropy =     5.2570

     26  H    Isotropic =    26.5610   Anisotropy =     2.7848

     27  H    Isotropic =    27.6769   Anisotropy =     5.2568

     28  H    Isotropic =    26.5614   Anisotropy =     2.7850

     29  H    Isotropic =    24.4823   Anisotropy =     7.6645

     30  H    Isotropic =    25.0990   Anisotropy =     7.2936

     31  H    Isotropic =    25.1175   Anisotropy =     6.8660

     32  H    Isotropic =    25.0124   Anisotropy =     6.5615

     33  H    Isotropic =    25.0125   Anisotropy =     6.5613

     34  H    Isotropic =    25.1175   Anisotropy =     6.8659

     35  H    Isotropic =    25.0990   Anisotropy =     7.2938

     36  H    Isotropic =    24.4823   Anisotropy =     7.6654

  Exact polarizability: 276.742 -54.443 162.578   1.151  -3.080 190.264
 Approx polarizability: 333.861 -98.019 257.407   3.969   1.612 358.083

                      1                      2                      3
                      A                      A                      A
 Frequencies --      5.1011                11.4403                18.3060
 Red. masses --     10.4850                13.9487                 8.9518
 Frc consts  --      0.0002                 0.0011                 0.0018
 IR Inten    --      0.3210                 0.1597                 0.0000

                      4                      5                      6
                      A                      A                      A
 Frequencies --     25.2417                26.9935                44.4658
 Red. masses --      3.9406                 5.1002                10.8712
 Frc consts  --      0.0015                 0.0022                 0.0127
 IR Inten    --      0.1436                 0.0000                 3.4994

                      7                      8                      9
                      A                      A                      A
 Frequencies --     63.4580                70.0802                75.8485
 Red. masses --     10.8299                 8.8055                 7.4510
 Frc consts  --      0.0257                 0.0255                 0.0253
 IR Inten    --      0.0000                 0.0000                 3.3390

                     10                     11                     12
                      A                      A                      A
 Frequencies --     98.0385               101.4487               168.5053
 Red. masses --     10.6870                10.1193                10.8735
 Frc consts  --      0.0605                 0.0614                 0.1819
 IR Inten    --      1.1538                 0.0000                 3.4826

                     13                     14                     15
                      A                      A                      A
 Frequencies --    198.9063               216.0286               218.0803
 Red. masses --      9.8621                 8.0885                11.2299
 Frc consts  --      0.2299                 0.2224                 0.3147
 IR Inten    --      0.0000                10.3297                 0.0001

                     16                     17                     18
                      A                      A                      A
 Frequencies --    239.1688               260.8644               295.8078
 Red. masses --      8.5826                11.2832                 4.3414
 Frc consts  --      0.2893                 0.4524                 0.2238
 IR Inten    --      0.0000                 1.8137                 0.0000

                     19                     20                     21
                      A                      A                      A
 Frequencies --    300.6320               340.4450               348.3740
 Red. masses --      4.8482                 8.4542                 8.4987
 Frc consts  --      0.2582                 0.5773                 0.6077
 IR Inten    --     12.7528                 8.3197                 0.0000

                     22                     23                     24
                      A                      A                      A
 Frequencies --    378.2374               386.2410               412.7420
 Red. masses --      2.6112                 2.3235                 6.7893
 Frc consts  --      0.2201                 0.2042                 0.6815
 IR Inten    --      0.0000                16.6628                 0.0000

                     25                     26                     27
                      A                      A                      A
 Frequencies --    420.4809               420.8933               431.2713
 Red. masses --      3.0362                 3.1014                 6.9410
 Frc consts  --      0.3163                 0.3237                 0.7606
 IR Inten    --      0.0345                 0.0000                34.4894

                     28                     29                     30
                      A                      A                      A
 Frequencies --    457.6721               515.9000               539.1436
 Red. masses --      5.6253                 3.9475                 4.0008
 Frc consts  --      0.6942                 0.6190                 0.6852
 IR Inten    --      0.0000                17.7557                 0.0000

                     31                     32                     33
                      A                      A                      A
 Frequencies --    611.4972               616.9135               644.1261
 Red. masses --      6.6918                 8.5177                 8.0480
 Frc consts  --      1.4743                 1.9099                 1.9674
 IR Inten    --     33.8961                 0.0001                11.5568

                     34                     35                     36
                      A                      A                      A
 Frequencies --    648.0967               648.2712               664.8568
 Red. masses --      6.7513                 6.8586                 4.9437
 Frc consts  --      1.6708                 1.6982                 1.2875
 IR Inten    --      0.0000                 1.9377                 9.3502

                     37                     38                     39
                      A                      A                      A
 Frequencies --    668.1345               737.9206               738.4830
 Red. masses --      4.9932                 4.3036                 4.1518
 Frc consts  --      1.3133                 1.3807                 1.3340
 IR Inten    --      0.0000                 0.0000                11.3659

                     40                     41                     42
                      A                      A                      A
 Frequencies --    811.2900               820.3956               822.6760
 Red. masses --     10.7244                 2.4288                 2.5046
 Frc consts  --      4.1589                 0.9632                 0.9987
 IR Inten    --     16.7095                 0.0000                98.4947

                     43                     44                     45
                      A                      A                      A
 Frequencies --    828.4784               843.3290               843.4356
 Red. masses --      5.1649                 1.2834                 1.2843
 Frc consts  --      2.0887                 0.5378                 0.5383
 IR Inten    --      0.0000                 0.0007                 3.0412

                     46                     47                     48
                      A                      A                      A
 Frequencies --    860.2132               861.4641               883.9285
 Red. masses --      2.4687                 2.3122                 4.0774
 Frc consts  --      1.0763                 1.0110                 1.8770
 IR Inten    --    140.0871                 0.0000                31.4296

                     49                     50                     51
                      A                      A                      A
 Frequencies --    912.9872               962.2369               963.7333
 Red. masses --      6.6428                 1.4080                 1.3515
 Frc consts  --      3.2623                 0.7681                 0.7396
 IR Inten    --      0.0000                21.0724                 0.0000

                     52                     53                     54
                      A                      A                      A
 Frequencies --    974.5013               975.9576               980.8151
 Red. masses --      1.5163                 1.3352                 2.9374
 Frc consts  --      0.8484                 0.7493                 1.6649
 IR Inten    --     51.9619                 0.0009               148.6653

                     55                     56                     57
                      A                      A                      A
 Frequencies --    991.9704              1023.6329              1025.5502
 Red. masses --      4.1623                 2.6185                 2.4506
 Frc consts  --      2.4132                 1.6166                 1.5186
 IR Inten    --      0.0000                 0.0000                43.0131

                     58                     59                     60
                      A                      A                      A
 Frequencies --   1035.4254              1035.4921              1110.6905
 Red. masses --      3.8326                 3.7885                 3.1184
 Frc consts  --      2.4209                 2.3934                 2.2665
 IR Inten    --      0.0001                36.4125               146.8483

                     61                     62                     63
                      A                      A                      A
 Frequencies --   1110.9616              1146.3761              1146.4721
 Red. masses --      3.1199                 1.3243                 1.3243
 Frc consts  --      2.2688                 1.0254                 1.0256
 IR Inten    --      0.0000                 0.0000                 5.7938

                     64                     65                     66
                      A                      A                      A
 Frequencies --   1215.5188              1216.0287              1239.8837
 Red. masses --      1.1575                 1.1447                 3.3229
 Frc consts  --      1.0076                 0.9973                 3.0097
 IR Inten    --     38.3993                 0.0000               148.5584

                     67                     68                     69
                      A                      A                      A
 Frequencies --   1240.2112              1246.4113              1255.3861
 Red. masses --      3.1047                 3.8683                 3.7509
 Frc consts  --      2.8136                 3.5407                 3.4829
 IR Inten    --      0.0029              1246.0802                 0.0001

                     70                     71                     72
                      A                      A                      A
 Frequencies --   1297.2209              1298.5866              1336.5244
 Red. masses --      1.5107                 1.6021                 1.8067
 Frc consts  --      1.4978                 1.5918                 1.9015
 IR Inten    --    157.3647                 0.0000                 2.8467

                     73                     74                     75
                      A                      A                      A
 Frequencies --   1336.5615              1363.8660              1363.9049
 Red. masses --      1.8151                 2.1577                 2.1539
 Frc consts  --      1.9105                 2.3647                 2.3607
 IR Inten    --      0.0001                12.2126                 0.0075

                     76                     77                     78
                      A                      A                      A
 Frequencies --   1417.9477              1418.4860              1456.3569
 Red. masses --      1.3524                 1.3567                 2.6035
 Frc consts  --      1.6020                 1.6083                 3.2534
 IR Inten    --      0.0003                44.9046                13.7484

                     79                     80                     81
                      A                      A                      A
 Frequencies --   1456.3602              1516.6371              1516.8513
 Red. masses --      2.6033                 1.1167                 1.1189
 Frc consts  --      3.2532                 1.5134                 1.5168
 IR Inten    --      0.5998                23.0922                 0.0001

                     82                     83                     84
                      A                      A                      A
 Frequencies --   1541.5937              1541.7252              1631.3473
 Red. masses --      2.3128                 2.3080                 6.6838
 Frc consts  --      3.2384                 3.2323                10.4802
 IR Inten    --     90.2396                 0.0003                 1.3471

                     85                     86                     87
                      A                      A                      A
 Frequencies --   1631.3537              1647.7476              1656.1197
 Red. masses --      6.6838                13.9385                 5.5907
 Frc consts  --     10.4803                22.2970                 9.0344
 IR Inten    --      0.0445                 0.0000                61.0470

                     88                     89                     90
                      A                      A                      A
 Frequencies --   1656.1384              1832.7450              1845.3660
 Red. masses --      5.5918                12.1579                12.1374
 Frc consts  --      9.0365                24.0609                24.3523
 IR Inten    --      0.0064                 0.0000               463.9138

                     91                     92                     93
                      A                      A                      A
 Frequencies --   3108.9288              3108.9802              3166.9017
 Red. masses --      1.0577                 1.0577                 1.1109
 Frc consts  --      6.0232                 6.0234                 6.5642
 IR Inten    --     40.1539                 0.4046                 2.5339

                     94                     95                     96
                      A                      A                      A
 Frequencies --   3166.9151              3190.8629              3190.8732
 Red. masses --      1.1109                 1.0897                 1.0897
 Frc consts  --      6.5643                 6.5368                 6.5368
 IR Inten    --      5.5931                 1.0810                16.1871

                     97                     98                     99
                      A                      A                      A
 Frequencies --   3212.3160              3212.3249              3226.2766
 Red. masses --      1.0889                 1.0889                 1.0935
 Frc consts  --      6.6204                 6.6204                 6.7060
 IR Inten    --      1.5982                 0.5323                 0.1744

                    100                    101                    102
                      A                      A                      A
 Frequencies --   3226.2773              3228.4191              3228.4211
 Red. masses --      1.0935                 1.0949                 1.0949
 Frc consts  --      6.7060                 6.7234                 6.7235
 IR Inten    --      7.3237                 0.4797                 1.7057

 - Thermochemistry -
 -------------------
 Temperature   298.150 Kelvin.  Pressure   1.00000 Atm.
 Atom     1 has atomic number  6 and mass  12.00000

 Molecular mass:   366.01741 amu.
 Principal axes and moments of inertia in atomic units:
                           1         2         3
     Eigenvalues --  3134.73733********************
           X            0.99996   0.00819  -0.00200
           Y           -0.00822   0.99980  -0.01803
           Z            0.00185   0.01805   0.99984
 This molecule is an asymmetric top.
 Rotational symmetry number  1.
 Warning -- assumption of classical behavior for rotation
           may cause significant error
 Rotational temperatures (Kelvin)      0.02763     0.00251     0.00244
 Rotational constants (GHZ):           0.57572     0.05237     0.05087
 Zero-point vibrational energy     678788.1 (Joules/Mol)
                                  162.23425 (Kcal/Mol)
 Warning -- explicit consideration of  32 degrees of freedom as
           vibrations may cause significant error
 Vibrational temperatures:      7.34    16.46    26.34    36.32    38.84
          (Kelvin)             63.98    91.30   100.83   109.13   141.06
                              145.96   242.44   286.18   310.82   313.77
                              344.11   375.33   425.60   432.54   489.82
                              501.23   544.20   555.71   593.84   604.98
                              605.57   620.50   658.49   742.27   775.71
                              879.81   887.60   926.75   932.47   932.72
                              956.58   961.30  1061.70  1062.51  1167.27
                             1180.37  1183.65  1192.00  1213.36  1213.52
                             1237.65  1239.45  1271.78  1313.59  1384.44
                             1386.60  1402.09  1404.19  1411.17  1427.22
                             1472.78  1475.54  1489.75  1489.84  1598.04
                             1598.43  1649.38  1649.52  1748.86  1749.59
                             1783.92  1784.39  1793.31  1806.22  1866.41
                             1868.38  1922.96  1923.01  1962.30  1962.35
                             2040.11  2040.88  2095.37  2095.38  2182.10
                             2182.41  2218.01  2218.20  2347.14  2347.15
                             2370.74  2382.79  2382.81  2636.91  2655.07
                             4473.06  4473.13  4556.47  4556.48  4590.94
                             4590.95  4621.81  4621.82  4641.89  4641.89
                             4644.98  4644.98

 Zero-point correction=                           0.258537 (Hartree/Particle)
 Thermal correction to Energy=                    0.280358
 Thermal correction to Enthalpy=                  0.281303
 Thermal correction to Gibbs Free Energy=         0.199490
 Sum of electronic and zero-point Energies=          -1947.415380
 Sum of electronic and thermal Energies=             -1947.393558
 Sum of electronic and thermal Enthalpies=           -1947.392614
 Sum of electronic and thermal Free Energies=        -1947.474426

                     E (Thermal)             CV                S
                      KCal/Mol        Cal/Mol-Kelvin    Cal/Mol-Kelvin
 Total                  175.928             79.027            172.189
 Electronic               0.000              0.000              0.000
 Translational            0.889              2.981             43.586
 Rotational               0.889              2.981             36.592
 Vibrational            174.150             73.065             92.011
 Vibration     1          0.593              1.987              9.349
 Vibration     2          0.593              1.987              7.744
 Vibration     3          0.593              1.986              6.810
 Vibration     4          0.593              1.985              6.172
 Vibration     5          0.593              1.984              6.039
 Vibration     6          0.595              1.980              5.049
 Vibration     7          0.597              1.972              4.347
 Vibration     8          0.598              1.968              4.151
 Vibration     9          0.599              1.965              3.996
 Vibration    10          0.603              1.951              3.493
 Vibration    11          0.604              1.948              3.426
 Vibration    12          0.625              1.881              2.452
 Vibration    13          0.637              1.841              2.143
 Vibration    14          0.645              1.817              1.992
 Vibration    15          0.646              1.814              1.975
 Vibration    16          0.657              1.781              1.809
 Vibration    17          0.669              1.744              1.656
 Vibration    18          0.690              1.682              1.441
 Vibration    19          0.693              1.672              1.413
 Vibration    20          0.720              1.595              1.210
 Vibration    21          0.726              1.579              1.174
 Vibration    22          0.749              1.517              1.046
 Vibration    23          0.755              1.500              1.015
 Vibration    24          0.777              1.443              0.917
 Vibration    25          0.783              1.426              0.890
 Vibration    26          0.783              1.425              0.889
 Vibration    27          0.792              1.402              0.855
 Vibration    28          0.816              1.344              0.773
 Vibration    29          0.871              1.215              0.620
 Vibration    30          0.894              1.163              0.567
 Vibration    31          0.971              1.007              0.430
 Vibration    32          0.977              0.996              0.421

 Optimization completed.
    -- Stationary point found.
 Normal termination of Gaussian 16 at Sat Aug 22 16:43:24 2020.
 Gaussian 16:  ES64L-G16RevA.03 25-Dec-2016

 ----------------------------------------------------------------------
 # TD(NStates=10, Root=1) B3LYP/6-31G* scf=qc volume pop=NPA density=cu
 rrent Geom=AllCheck Guess=Read
 ----------------------------------------------------------------------

 Structure from the checkpoint file:  "azadicarboxylate_3_conf23.chk"
 -------------------
 Title Card Required
 -------------------
 Charge =  0 Multiplicity = 1

                         Standard orientation:
 ---------------------------------------------------------------------
 Center     Atomic      Atomic             Coordinates (Angstroms)
 Number     Number       Type             X           Y           Z
 ---------------------------------------------------------------------
      1          6           0        4.304089    1.347235   -0.257053
      2          6           0        3.123234    2.267782   -0.410417
      3          8           0        1.873160    1.522532   -0.591440
      4          6           0        1.216621    1.199256    0.519657
      5          8           0        1.517102    1.440990    1.662613
      6          7           0       -0.056349    0.587934    0.197578
      7          7           0        0.056341   -0.588091   -0.196995
      8          6           0       -1.216630   -1.199412   -0.519071
      9          8           0       -1.517048   -1.441286   -1.662012
     10          8           0       -1.873264   -1.522516    0.592025
     11          6           0       -3.123345   -2.267736    0.410994
     12          6           0       -4.304134   -1.347163    0.257257
     13          6           0       -4.725355   -0.927764   -1.011513
     14          6           0       -5.815186   -0.070558   -1.153866
     15          6           0       -6.485780    0.370018   -0.013131
     16          6           0       -6.085118   -0.030725    1.261106
     17          6           0       -4.994204   -0.888975    1.386037
     18         17           0       -7.863772    1.447112   -0.184030
     19          6           0        4.994200    0.889565   -1.386019
     20          6           0        6.085156    0.031316   -1.261440
     21          6           0        6.485818   -0.369952    0.012632
     22          6           0        5.815186    0.070104    1.153546
     23          6           0        4.725315    0.927317    1.011544
     24         17           0        7.863863   -1.447046    0.183090
     25          1           0        3.194934    2.864949   -1.320699
     26          1           0        3.003678    2.922951    0.454456
     27          1           0       -3.195203   -2.864699    1.321398
     28          1           0       -3.003710   -2.923109   -0.453716
     29          1           0       -4.188820   -1.266258   -1.892617
     30          1           0       -6.142346    0.252226   -2.136347
     31          1           0       -6.619799    0.321277    2.136664
     32          1           0       -4.678210   -1.205368    2.377049
     33          1           0        4.678212    1.206374   -2.376900
     34          1           0        6.619870   -0.320281   -2.137140
     35          1           0        6.142354   -0.253078    2.135894
     36          1           0        4.188746    1.265405    1.892782
 ---------------------------------------------------------------------

 SCF Done:  E(RB3LYP) =  -1947.67391630     a.u. after    1 cycles

 Excitation energies and oscillator strengths:

 Excited State   1:      Singlet-A      2.9341 eV  422.56 nm  f=0.0000  <S**2>=0.000
      92 -> 95         0.51588
      94 -> 95        -0.47504
 This state for optimization and/or second-order correction.
 Total Energy, E(TD-HF/TD-DFT) =  -1947.56608928
 Copying the excited state density for this state as the 1-particle RhoCI density.

 Excited State   2:      Singlet-A      3.9540 eV  313.56 nm  f=0.0312  <S**2>=0.000
      93 -> 95         0.70577

 Excited State   3:      Singlet-A      3.9850 eV  311.12 nm  f=0.0000  <S**2>=0.000
      92 -> 95         0.47248
      94 -> 95         0.52212

 Excited State   4:      Singlet-A      4.4017 eV  281.67 nm  f=0.0000  <S**2>=0.000
      91 -> 95         0.70551

 Excited State   5:      Singlet-A      4.4022 eV  281.64 nm  f=0.0017  <S**2>=0.000
      90 -> 95         0.70567

 Excited State   6:      Singlet-A      5.0281 eV  246.58 nm  f=0.1371  <S**2>=0.000
      89 -> 95         0.68201

 Excited State   7:      Singlet-A      5.0913 eV  243.52 nm  f=0.0000  <S**2>=0.000
      84 -> 95         0.15697
      86 -> 95         0.57740
      88 -> 95        -0.35039

 Excited State   8:      Singlet-A      5.2491 eV  236.20 nm  f=0.0007  <S**2>=0.000
      90 -> 96        -0.12766
      90 -> 97         0.30186
      91 -> 96         0.29844
      92 -> 98         0.13768
      93 -> 98        -0.13058
      93 -> 99         0.34599
      94 -> 98         0.34563
      94 -> 99        -0.11741

 Excited State   9:      Singlet-A      5.2491 eV  236.20 nm  f=0.0001  <S**2>=0.000
      90 -> 96         0.29832
      91 -> 96         0.12744
      91 -> 97         0.30180
      92 -> 99         0.13712
      93 -> 98         0.34689
      93 -> 99         0.13021
      94 -> 98         0.11769
      94 -> 99         0.34504

 Excited State  10:      Singlet-A      5.4284 eV  228.40 nm  f=0.0098  <S**2>=0.000
      85 -> 95         0.68961

 The electronic state is 1-A.
 Alpha  occ. eigenvalues -- -101.55411-101.55411 -19.22039 -19.22039 -19.16451
 Alpha  occ. eigenvalues --  -19.16451 -14.42951 -14.42901 -10.35984 -10.35983
 Alpha  occ. eigenvalues --  -10.26825 -10.26825 -10.26324 -10.26324 -10.21674
 Alpha  occ. eigenvalues --  -10.21674 -10.21406 -10.21406 -10.21321 -10.21321
 Alpha  occ. eigenvalues --  -10.21232 -10.21232 -10.21065 -10.21065  -9.47044
 Alpha  occ. eigenvalues --   -9.47044  -7.23439  -7.23439  -7.22473  -7.22473
 Alpha  occ. eigenvalues --   -7.22436  -7.22436  -1.14526  -1.13285  -1.06334
 Alpha  occ. eigenvalues --   -1.04713  -1.04337  -0.89921  -0.89910  -0.85303
 Alpha  occ. eigenvalues --   -0.85126  -0.81318  -0.78336  -0.76852  -0.76848
 Alpha  occ. eigenvalues --   -0.76392  -0.71410  -0.69775  -0.63398  -0.63398
 Alpha  occ. eigenvalues --   -0.62590  -0.60811  -0.59577  -0.57464  -0.56333
 Alpha  occ. eigenvalues --   -0.53272  -0.52805  -0.51180  -0.50648  -0.50008
 Alpha  occ. eigenvalues --   -0.48988  -0.48852  -0.48150  -0.47926  -0.46429
 Alpha  occ. eigenvalues --   -0.45729  -0.44801  -0.44521  -0.44013  -0.43682
 Alpha  occ. eigenvalues --   -0.42064  -0.41686  -0.41062  -0.40274  -0.40089
 Alpha  occ. eigenvalues --   -0.38976  -0.38702  -0.37951  -0.37943  -0.36415
 Alpha  occ. eigenvalues --   -0.36413  -0.33941  -0.33861  -0.32895  -0.32524
 Alpha  occ. eigenvalues --   -0.32028  -0.31808  -0.31729  -0.31028  -0.27173
 Alpha  occ. eigenvalues --   -0.27172  -0.26289  -0.25495  -0.25141
 Alpha virt. eigenvalues --   -0.09088  -0.03182  -0.03051  -0.02184  -0.02180
 Alpha virt. eigenvalues --    0.00064   0.00143   0.02402   0.02415   0.09693
 Alpha virt. eigenvalues --    0.09706   0.10822   0.10977   0.11938   0.11977

 Mulliken charges:
               1
     1  C    0.150338
     2  C   -0.156243
     3  O   -0.407891
     4  C    0.737494
     5  O   -0.421097
     6  N   -0.235059
     7  N   -0.235062
     8  C    0.737492
     9  O   -0.421099
    10  O   -0.407896
    11  C   -0.156236
    12  C    0.150328
    13  C   -0.170920
    14  C   -0.129306
    15  C   -0.062348
    16  C   -0.128193
    17  C   -0.164106
    18  Cl  -0.014300
    19  C   -0.164111
    20  C   -0.128191
    21  C   -0.062348
    22  C   -0.129305
    23  C   -0.170931
    24  Cl  -0.014299
    25  H    0.174297
    26  H    0.186417
    27  H    0.174298
    28  H    0.186412
    29  H    0.170779
    30  H    0.162707
    31  H    0.161215
    32  H    0.146230
    33  H    0.146227
    34  H    0.161215
    35  H    0.162708
    36  H    0.170785
 Sum of Mulliken charges =  -0.00000

 Dipole moment (field-independent basis, Debye):
    X=             -0.0000    Y=              0.0003    Z=              0.0003  Tot=              0.0004
 Quadrupole moment (field-independent basis, Debye-Ang):
   XX=           -154.3439   YY=           -142.1345   ZZ=           -144.1089
   XY=             17.3143   XZ=             -8.5078   YZ=             -5.9703

 Summary of Natural Population Analysis:

                                       Natural Population
                Natural  -----------------------------------------------
    Atom  No    Charge         Core      Valence    Rydberg      Total
 -----------------------------------------------------------------------
      C    1   -0.09406      1.99901     4.08072    0.01433     6.09406
      C    2   -0.12421      1.99912     4.10576    0.01933     6.12421
      O    3   -0.52175      1.99973     6.50975    0.01227     8.52175
      C    4    0.91917      1.99950     3.03104    0.05029     5.08083
      O    5   -0.55586      1.99977     6.53539    0.02070     8.55586
      N    6   -0.21026      1.99938     5.18460    0.02627     7.21026
      N    7   -0.21025      1.99938     5.18460    0.02627     7.21025
      C    8    0.91916      1.99950     3.03105    0.05029     5.08084
      O    9   -0.55586      1.99977     6.53539    0.02070     8.55586
      O   10   -0.52176      1.99973     6.50975    0.01227     8.52176
      C   11   -0.12421      1.99912     4.10576    0.01933     6.12421
      C   12   -0.09406      1.99901     4.08072    0.01433     6.09406
      C   13   -0.19886      1.99903     4.18651    0.01332     6.19886
      C   14   -0.24214      1.99894     4.22828    0.01492     6.24214
      C   15   -0.03563      1.99856     4.01532    0.02175     6.03563
      C   16   -0.24340      1.99893     4.22956    0.01491     6.24340
      C   17   -0.19904      1.99903     4.18691    0.01310     6.19904
     Cl   18    0.00238      9.99967     6.97866    0.01929    16.99762
      C   19   -0.19904      1.99903     4.18691    0.01310     6.19904
      C   20   -0.24340      1.99893     4.22956    0.01491     6.24340
      C   21   -0.03563      1.99856     4.01532    0.02175     6.03563
      C   22   -0.24214      1.99894     4.22828    0.01492     6.24214
      C   23   -0.19887      1.99903     4.18652    0.01332     6.19887
     Cl   24    0.00238      9.99967     6.97866    0.01929    16.99762
      H   25    0.24389      0.00000     0.75500    0.00111     0.75611
      H   26    0.24364      0.00000     0.75420    0.00217     0.75636
      H   27    0.24390      0.00000     0.75499    0.00111     0.75610
      H   28    0.24363      0.00000     0.75420    0.00217     0.75637
      H   29    0.25848      0.00000     0.74020    0.00132     0.74152
      H   30    0.25719      0.00000     0.74181    0.00100     0.74281
      H   31    0.25654      0.00000     0.74245    0.00101     0.74346
      H   32    0.24394      0.00000     0.75506    0.00100     0.75606
      H   33    0.24394      0.00000     0.75506    0.00100     0.75606
      H   34    0.25654      0.00000     0.74245    0.00101     0.74346
      H   35    0.25719      0.00000     0.74181    0.00100     0.74281
      H   36    0.25848      0.00000     0.74020    0.00132     0.74152
 =======================================================================
   * Total *    0.00000     63.98134   123.52244    0.49622   188.00000

 Normal termination of Gaussian 16 at Sat Aug 22 16:54:57 2020.
