 Gaussian 16, Revision A.03,

 ---------------------------------
 # opt=CalcAll B3LYP/6-31G* scf=qc
 ---------------------------------

 -------------------
 Title Card Required
 -------------------
 Symbolic Z-matrix:
 Charge =  0 Multiplicity = 1

 SCF Done:  E(RB3LYP) =  -723.626128514     a.u. after   10 cycles
 SCF Done:  E(RB3LYP) =  -723.647753307     a.u. after   27 cycles
 SCF Done:  E(RB3LYP) =  -723.650698065     a.u. after   21 cycles
 SCF Done:  E(RB3LYP) =  -723.652104839     a.u. after   15 cycles
 SCF Done:  E(RB3LYP) =  -723.652424770     a.u. after   19 cycles
 SCF Done:  E(RB3LYP) =  -723.652049387     a.u. after   28 cycles
 SCF Done:  E(RB3LYP) =  -723.652757670     a.u. after   10 cycles
 SCF Done:  E(RB3LYP) =  -723.652784424     a.u. after    5 cycles
 SCF Done:  E(RB3LYP) =  -723.652784492     a.u. after    3 cycles
 Optimization completed.
    -- Stationary point found.
 Normal termination of Gaussian 16 at Sat Aug 22 14:16:34 2020.

 ----------------------------------------------------------------------
 # freq B3LYP/6-31G* scf=qc volume NMR pop=NPA density=current Geom=All
 Check Guess=Read
 ----------------------------------------------------------------------

 Structure from the checkpoint file:  "azadicarboxylate_2_conf92.chk"
 -------------------
 Title Card Required
 -------------------
 Charge =  0 Multiplicity = 1

 SCF Done:  E(RB3LYP) =  -723.652784492     a.u. after    1 cycles

      1  C    Isotropic =   168.2985   Anisotropy =    31.2063

      2  C    Isotropic =   118.2857   Anisotropy =    64.4831

      3  C    Isotropic =   168.3256   Anisotropy =    30.1478

      4  O    Isotropic =   133.5509   Anisotropy =   115.5740

      5  C    Isotropic =    34.9690   Anisotropy =    84.5269

      6  O    Isotropic =   -20.9860   Anisotropy =   497.2849

      7  N    Isotropic =  -322.2617   Anisotropy =   675.2526

      8  N    Isotropic =  -324.1727   Anisotropy =   677.1765

      9  C    Isotropic =    34.7285   Anisotropy =    77.1929

     10  O    Isotropic =   -20.0226   Anisotropy =   495.3222

     11  O    Isotropic =   134.2261   Anisotropy =   117.9200

     12  C    Isotropic =   118.4105   Anisotropy =    64.8830

     13  C    Isotropic =   168.9937   Anisotropy =    30.5384

     14  C    Isotropic =   168.3036   Anisotropy =    30.3938

     15  H    Isotropic =    31.1703   Anisotropy =     8.6742

     16  H    Isotropic =    31.0249   Anisotropy =     6.7052

     17  H    Isotropic =    30.3910   Anisotropy =     7.0317

     18  H    Isotropic =    26.9889   Anisotropy =     2.5866

     19  H    Isotropic =    30.7653   Anisotropy =     6.6392

     20  H    Isotropic =    31.1139   Anisotropy =     8.4498

     21  H    Isotropic =    30.7018   Anisotropy =     8.5038

     22  H    Isotropic =    26.9440   Anisotropy =     2.5231

     23  H    Isotropic =    30.9694   Anisotropy =     6.6131

     24  H    Isotropic =    30.1904   Anisotropy =     7.3467

     25  H    Isotropic =    31.1331   Anisotropy =     8.5830

     26  H    Isotropic =    30.7852   Anisotropy =     6.5200

     27  H    Isotropic =    31.1265   Anisotropy =     8.4862

     28  H    Isotropic =    30.7351   Anisotropy =     8.7249

  Exact polarizability: 152.628   3.409 101.432  -1.154   0.517  85.154
 Approx polarizability: 166.893  12.079 169.013  -2.054   3.550 123.271

                      1                      2                      3
                      A                      A                      A
 Frequencies --      8.4538                39.8604                48.0934
 Red. masses --      4.2373                 3.0162                 4.7626
 Frc consts  --      0.0002                 0.0028                 0.0065
 IR Inten    --      2.2902                 1.2038                 2.2326

                      4                      5                      6
                      A                      A                      A
 Frequencies --     53.1634                60.4865                76.6774
 Red. masses --      4.2951                 5.3467                 5.4862
 Frc consts  --      0.0072                 0.0115                 0.0190
 IR Inten    --      0.3351                 0.0537                 1.0463

                      7                      8                      9
                      A                      A                      A
 Frequencies --     88.5839               183.1771               202.3038
 Red. masses --      4.6204                 4.6339                 6.6153
 Frc consts  --      0.0214                 0.0916                 0.1595
 IR Inten    --      0.2003                 0.3386                 0.9784

                     10                     11                     12
                      A                      A                      A
 Frequencies --    212.2773               219.7399               223.0126
 Red. masses --      2.5711                 1.1595                 1.0953
 Frc consts  --      0.0683                 0.0330                 0.0321
 IR Inten    --     13.0795                 0.3371                 1.8523

                     13                     14                     15
                      A                      A                      A
 Frequencies --    226.0892               264.5749               266.2290
 Red. masses --      2.0212                 1.3005                 1.4577
 Frc consts  --      0.0609                 0.0536                 0.0609
 IR Inten    --      2.3335                 5.1238                 1.5182

                     16                     17                     18
                      A                      A                      A
 Frequencies --    329.3642               339.1095               407.3197
 Red. masses --      2.4932                 3.2055                 3.7104
 Frc consts  --      0.1594                 0.2172                 0.3627
 IR Inten    --      0.5505                 0.4768                12.5842

                     19                     20                     21
                      A                      A                      A
 Frequencies --    420.7296               430.2064               459.0134
 Red. masses --      3.3312                 4.5380                 2.7449
 Frc consts  --      0.3474                 0.4948                 0.3407
 IR Inten    --      3.9344                 2.4968                 7.5982

                     22                     23                     24
                      A                      A                      A
 Frequencies --    487.3099               563.5003               607.4701
 Red. masses --      2.8858                 5.1041                 8.9916
 Frc consts  --      0.4038                 0.9549                 1.9550
 IR Inten    --      1.3440                 1.6232                 0.3760

                     25                     26                     27
                      A                      A                      A
 Frequencies --    655.8630               814.4863               817.6946
 Red. masses --     10.8948                12.1373                 3.6328
 Frc consts  --      2.7612                 4.7439                 1.4311
 IR Inten    --     16.0603                31.1838                 0.0876

                     28                     29                     30
                      A                      A                      A
 Frequencies --    843.9520               863.8124               907.9125
 Red. masses --      3.2465                 6.8179                 3.4550
 Frc consts  --      1.3624                 2.9974                 1.6780
 IR Inten    --     28.4814                 0.1074                63.6252

                     31                     32                     33
                      A                      A                      A
 Frequencies --    918.2977               950.8153               951.3328
 Red. masses --      2.9826                 1.2538                 1.2552
 Frc consts  --      1.4819                 0.6679                 0.6693
 IR Inten    --      0.0994                 0.6234                 0.7478

                     34                     35                     36
                      A                      A                      A
 Frequencies --    961.8898               962.5157               988.7354
 Red. masses --      1.3700                 1.3586                 6.4447
 Frc consts  --      0.7468                 0.7416                 3.7120
 IR Inten    --      6.2197                 0.4477                32.8465

                     37                     38                     39
                      A                      A                      A
 Frequencies --   1003.8146              1140.7391              1147.4763
 Red. masses --      9.2324                 1.8372                 1.7954
 Frc consts  --      5.4811                 1.4086                 1.3928
 IR Inten    --      0.2861               387.9306                 0.2557

                     40                     41                     42
                      A                      A                      A
 Frequencies --   1175.2345              1175.3231              1218.2727
 Red. masses --      2.0345                 2.0332                 1.9658
 Frc consts  --      1.6556                 1.6548                 1.7190
 IR Inten    --     12.6918                 5.6836                56.9682

                     43                     44                     45
                      A                      A                      A
 Frequencies --   1218.9729              1273.1077              1283.3030
 Red. masses --      1.9413                 5.7028                 7.1018
 Frc consts  --      1.6996                 5.4459                 6.8909
 IR Inten    --      9.1996              1209.1633                 8.3303

                     46                     47                     48
                      A                      A                      A
 Frequencies --   1383.6456              1384.7593              1397.6150
 Red. masses --      1.4060                 1.4103                 1.2512
 Frc consts  --      1.5859                 1.5933                 1.4400
 IR Inten    --      6.3828                13.2137                 4.8393

                     49                     50                     51
                      A                      A                      A
 Frequencies --   1398.8941              1433.8898              1434.0641
 Red. masses --      1.2583                 1.3423                 1.3403
 Frc consts  --      1.4508                 1.6261                 1.6240
 IR Inten    --      7.3980                14.4456                21.7259

                     52                     53                     54
                      A                      A                      A
 Frequencies --   1448.8165              1448.9529              1511.7234
 Red. masses --      1.2568                 1.2564                 1.0539
 Frc consts  --      1.5543                 1.5541                 1.4190
 IR Inten    --      7.2537                 6.4120                 1.7076

                     55                     56                     57
                      A                      A                      A
 Frequencies --   1511.7643              1516.3369              1516.4653
 Red. masses --      1.0537                 1.0441                 1.0442
 Frc consts  --      1.4189                 1.4145                 1.4148
 IR Inten    --      1.8253                 1.3279                 0.9602

                     58                     59                     60
                      A                      A                      A
 Frequencies --   1525.4416              1525.6314              1539.4189
 Red. masses --      1.0507                 1.0506                 1.0498
 Frc consts  --      1.4405                 1.4408                 1.4657
 IR Inten    --      4.8125                 3.7474                 9.8389

                     61                     62                     63
                      A                      A                      A
 Frequencies --   1539.7666              1648.8314              1833.6216
 Red. masses --      1.0494                13.9799                12.6454
 Frc consts  --      1.4659                22.3928                25.0497
 IR Inten    --      9.3519                 0.1000                 2.6648

                     64                     65                     66
                      A                      A                      A
 Frequencies --   1847.6123              3058.6220              3058.8363
 Red. masses --     12.5966                 1.0354                 1.0353
 Frc consts  --     25.3352                 5.7071                 5.7074
 IR Inten    --    565.2148                10.3351                11.0122

                     67                     68                     69
                      A                      A                      A
 Frequencies --   3063.1756              3063.2960              3097.6434
 Red. masses --      1.0359                 1.0359                 1.0873
 Frc consts  --      5.7267                 5.7272                 6.1471
 IR Inten    --     23.3963                 6.3869                 2.0283

                     70                     71                     72
                      A                      A                      A
 Frequencies --   3102.2386              3126.8555              3127.4435
 Red. masses --      1.0879                 1.1029                 1.1029
 Frc consts  --      6.1687                 6.3532                 6.3557
 IR Inten    --      1.2678                 2.2068                 1.7697

                     73                     74                     75
                      A                      A                      A
 Frequencies --   3136.2640              3136.6263              3140.1856
 Red. masses --      1.1018                 1.1014                 1.1028
 Frc consts  --      6.3853                 6.3844                 6.4071
 IR Inten    --     44.8781                34.7307                22.3826

                     76                     77                     78
                      A                      A                      A
 Frequencies --   3141.4314              3147.0629              3147.9837
 Red. masses --      1.1028                 1.1027                 1.1029
 Frc consts  --      6.4123                 6.4347                 6.4393
 IR Inten    --     19.7595                17.6750                16.1941

 - Thermochemistry -
 -------------------
 Temperature   298.150 Kelvin.  Pressure   1.00000 Atm.
 Atom     1 has atomic number  6 and mass  12.00000

 Molecular mass:   202.09536 amu.
 Principal axes and moments of inertia in atomic units:
                           1         2         3
     Eigenvalues --  1002.728007402.351847775.88300
           X            0.99993  -0.01159   0.00055
           Y            0.01160   0.99976  -0.01870
           Z           -0.00033   0.01871   0.99982
 This molecule is an asymmetric top.
 Rotational symmetry number  1.
 Warning -- assumption of classical behavior for rotation
           may cause significant error
 Rotational temperatures (Kelvin)      0.08638     0.01170     0.01114
 Rotational constants (GHZ):           1.79983     0.24381     0.23209
 Zero-point vibrational energy     597446.2 (Joules/Mol)
                                  142.79308 (Kcal/Mol)
 Warning -- explicit consideration of  24 degrees of freedom as
           vibrations may cause significant error
 Vibrational temperatures:     12.16    57.35    69.20    76.49    87.03
          (Kelvin)            110.32   127.45   263.55   291.07   305.42
                              316.16   320.87   325.29   380.66   383.04
                              473.88   487.90   586.04   605.34   618.97
                              660.42   701.13   810.75   874.01   943.64
                             1171.86  1176.48  1214.26  1242.83  1306.28
                             1321.23  1368.01  1368.76  1383.94  1384.85
                             1422.57  1444.27  1641.27  1650.96  1690.90
                             1691.03  1752.82  1753.83  1831.72  1846.39
                             1990.76  1992.36  2010.86  2012.70  2063.05
                             2063.30  2084.52  2084.72  2175.03  2175.09
                             2181.67  2181.86  2194.77  2195.04  2214.88
                             2215.38  2372.30  2638.17  2658.30  4400.67
                             4400.98  4407.23  4407.40  4456.82  4463.43
                             4498.85  4499.69  4512.38  4512.91  4518.03
                             4519.82  4527.92  4529.25

 Zero-point correction=                           0.227555 (Hartree/Particle)
 Thermal correction to Energy=                    0.243829
 Thermal correction to Enthalpy=                  0.244773
 Thermal correction to Gibbs Free Energy=         0.180552
 Sum of electronic and zero-point Energies=           -723.425229
 Sum of electronic and thermal Energies=              -723.408955
 Sum of electronic and thermal Enthalpies=            -723.408011
 Sum of electronic and thermal Free Energies=         -723.472232

                     E (Thermal)             CV                S
                      KCal/Mol        Cal/Mol-Kelvin    Cal/Mol-Kelvin
 Total                  153.005             56.251            135.165
 Electronic               0.000              0.000              0.000
 Translational            0.889              2.981             41.815
 Rotational               0.889              2.981             32.423
 Vibrational            151.228             50.290             60.926
 Vibration     1          0.593              1.987              8.345
 Vibration     2          0.594              1.981              5.266
 Vibration     3          0.595              1.978              4.894
 Vibration     4          0.596              1.976              4.696
 Vibration     5          0.597              1.973              4.441
 Vibration     6          0.599              1.965              3.974
 Vibration     7          0.601              1.957              3.691
 Vibration     8          0.631              1.863              2.296
 Vibration     9          0.639              1.837              2.112
 Vibration    10          0.643              1.822              2.024
 Vibration    11          0.647              1.811              1.961
 Vibration    12          0.649              1.806              1.934
 Vibration    13          0.650              1.801              1.910
 Vibration    14          0.671              1.738              1.631
 Vibration    15          0.672              1.735              1.621
 Vibration    16          0.712              1.617              1.263
 Vibration    17          0.719              1.597              1.216
 Vibration    18          0.772              1.454              0.936
 Vibration    19          0.783              1.425              0.889
 Vibration    20          0.791              1.404              0.858
 Vibration    21          0.817              1.341              0.769
 Vibration    22          0.843              1.278              0.691
 Vibration    23          0.919              1.110              0.517
 Vibration    24          0.966              1.016              0.437

 Optimization completed.
    -- Stationary point found.
 Normal termination of Gaussian 16 at Sat Aug 22 14:20:52 2020.
 Gaussian 16:  ES64L-G16RevA.03 25-Dec-2016

 ----------------------------------------------------------------------
 # TD(NStates=10, Root=1) B3LYP/6-31G* scf=qc volume pop=NPA density=cu
 rrent Geom=AllCheck Guess=Read
 ----------------------------------------------------------------------

 Structure from the checkpoint file:  "azadicarboxylate_2_conf93.chk"
 -------------------
 Title Card Required
 -------------------
 Charge =  0 Multiplicity = 1

                         Standard orientation:
 ---------------------------------------------------------------------
 Center     Atomic      Atomic             Coordinates (Angstroms)
 Number     Number       Type             X           Y           Z
 ---------------------------------------------------------------------
      1          6           0        4.155752    0.046983    1.466700
      2          6           0        3.903821    0.070746   -0.035648
      3          6           0        4.683916   -0.979125   -0.811337
      4          8           0        2.485527   -0.223534   -0.286253
      5          6           0        1.639126    0.798484   -0.214573
      6          8           0        1.878996    1.954661    0.032302
      7          7           0        0.305022    0.383783   -0.604062
      8          7           0       -0.263993   -0.296520    0.270684
      9          6           0       -1.597261   -0.714214   -0.117632
     10          8           0       -1.818337   -1.848744   -0.462332
     11          8           0       -2.462155    0.276970    0.070036
     12          6           0       -3.882632   -0.025497   -0.162207
     13          6           0       -4.464570   -0.671533    1.088850
     14          6           0       -4.526322    1.301870   -0.530960
     15          1           0        5.214003    0.246076    1.669100
     16          1           0        3.901589   -0.933007    1.884619
     17          1           0        3.561322    0.813663    1.971226
     18          1           0        4.094487    1.072317   -0.431930
     19          1           0        4.453356   -1.984647   -0.443740
     20          1           0        5.758718   -0.805401   -0.692105
     21          1           0        4.442936   -0.936139   -1.877833
     22          1           0       -3.925396   -0.725646   -1.000943
     23          1           0       -4.367777   -0.001460    1.949963
     24          1           0       -3.956503   -1.613958    1.311529
     25          1           0       -5.528148   -0.885529    0.935643
     26          1           0       -4.443341    2.016824    0.294500
     27          1           0       -5.588334    1.149849   -0.751452
     28          1           0       -4.047348    1.735099   -1.414106
 ---------------------------------------------------------------------

 SCF Done:  E(RB3LYP) =  -723.652784492     a.u. after    1 cycles

 Excitation energies and oscillator strengths:

 Excited State   1:      Singlet-A      2.9479 eV  420.58 nm  f=0.0000  <S**2>=0.000
      54 -> 55         0.70106
 This state for optimization and/or second-order correction.
 Total Energy, E(TD-HF/TD-DFT) =  -723.544450909
 Copying the excited state density for this state as the 1-particle RhoCI density.

 Excited State   2:      Singlet-A      5.0077 eV  247.59 nm  f=0.0753  <S**2>=0.000
      52 -> 55         0.18898
      53 -> 55         0.66615

 Excited State   3:      Singlet-A      5.1170 eV  242.30 nm  f=0.0057  <S**2>=0.000
      50 -> 55         0.27661
      52 -> 55         0.60220
      53 -> 55        -0.19033

 Excited State   4:      Singlet-A      5.3483 eV  231.82 nm  f=0.0151  <S**2>=0.000
      50 -> 55         0.22483
      51 -> 55         0.63609
      52 -> 55        -0.19534

 Excited State   5:      Singlet-A      5.4106 eV  229.15 nm  f=0.0025  <S**2>=0.000
      50 -> 55         0.59813
      51 -> 55        -0.28184
      52 -> 55        -0.22829

 Excited State   6:      Singlet-A      5.7348 eV  216.19 nm  f=0.0072  <S**2>=0.000
      53 -> 56         0.14039
      54 -> 56         0.66506
      54 -> 57         0.10347

 Excited State   7:      Singlet-A      5.7867 eV  214.26 nm  f=0.0085  <S**2>=0.000
      53 -> 57        -0.14506
      54 -> 56        -0.10239
      54 -> 57         0.66837

 Excited State   8:      Singlet-A      6.4578 eV  191.99 nm  f=0.0016  <S**2>=0.000
      45 -> 55         0.10135
      48 -> 55        -0.21773
      49 -> 55         0.65301

 Excited State   9:      Singlet-A      6.4923 eV  190.97 nm  f=0.0011  <S**2>=0.000
      48 -> 55         0.64894
      49 -> 55         0.22511

 Excited State  10:      Singlet-A      6.8008 eV  182.31 nm  f=0.0172  <S**2>=0.000
      47 -> 55         0.13204
      50 -> 56        -0.17382
      50 -> 57        -0.13259
      52 -> 56        -0.26220
      52 -> 57        -0.15181
      53 -> 56         0.52681
      54 -> 56        -0.15933
      54 -> 57        -0.10492

 The electronic state is 1-A.
 Alpha  occ. eigenvalues --  -19.20814 -19.20802 -19.15387 -19.15380 -14.42055
 Alpha  occ. eigenvalues --  -14.42003 -10.34987 -10.34967 -10.26151 -10.26132
 Alpha  occ. eigenvalues --  -10.19099 -10.19076 -10.18942 -10.18844  -1.13501
 Alpha  occ. eigenvalues --   -1.12234  -1.05393  -1.03698  -1.03303  -0.82318
 Alpha  occ. eigenvalues --   -0.80605  -0.76559  -0.70542  -0.70497  -0.65788
 Alpha  occ. eigenvalues --   -0.62441  -0.57743  -0.56491  -0.55791  -0.50975
 Alpha  occ. eigenvalues --   -0.48974  -0.48179  -0.47814  -0.46705  -0.45477
 Alpha  occ. eigenvalues --   -0.44644  -0.42796  -0.41740  -0.41659  -0.40666
 Alpha  occ. eigenvalues --   -0.40367  -0.40058  -0.39471  -0.38211  -0.37905
 Alpha  occ. eigenvalues --   -0.36966  -0.36759  -0.34951  -0.34872  -0.31664
 Alpha  occ. eigenvalues --   -0.31429  -0.31008  -0.29965  -0.24910
 Alpha virt. eigenvalues --   -0.08095   0.00903   0.01151   0.08785   0.08830
 Alpha virt. eigenvalues --    0.10452   0.10753   0.13272   0.13297   0.14488
 Alpha virt. eigenvalues --    0.14529   0.16493   0.16518   0.16882   0.17019

 Mulliken charges:
               1
     1  C   -0.459467
     2  C    0.117420
     3  C   -0.454661
     4  O   -0.423591
     5  C    0.735270
     6  O   -0.423846
     7  N   -0.241552
     8  N   -0.241151
     9  C    0.735080
    10  O   -0.418087
    11  O   -0.422168
    12  C    0.116516
    13  C   -0.460279
    14  C   -0.454370
    15  H    0.153469
    16  H    0.161509
    17  H    0.176974
    18  H    0.168137
    19  H    0.165214
    20  H    0.155081
    21  H    0.165945
    22  H    0.168710
    23  H    0.161084
    24  H    0.176278
    25  H    0.155724
    26  H    0.164271
    27  H    0.154546
    28  H    0.167943
 Sum of Mulliken charges =  -0.00000

 Dipole moment (field-independent basis, Debye):
    X=             -0.1409    Y=             -0.1594    Z=              0.3781  Tot=              0.4339
 Quadrupole moment (field-independent basis, Debye-Ang):
   XX=            -51.6052   YY=            -91.9319   ZZ=            -80.4982
   XY=             -5.3412   XZ=             -0.1993   YZ=             -2.1088

 Summary of Natural Population Analysis:

                                       Natural Population
                Natural  -----------------------------------------------
    Atom  No    Charge         Core      Valence    Rydberg      Total
 -----------------------------------------------------------------------
      C    1   -0.70382      1.99939     4.69589    0.00853     6.70382
      C    2    0.08370      1.99912     3.89967    0.01751     5.91630
      C    3   -0.69654      1.99939     4.68810    0.00905     6.69654
      O    4   -0.53693      1.99971     6.52449    0.01273     8.53693
      C    5    0.91693      1.99950     3.03275    0.05082     5.08307
      O    6   -0.55283      1.99977     6.53243    0.02063     8.55283
      N    7   -0.21405      1.99939     5.18836    0.02631     7.21405
      N    8   -0.21539      1.99938     5.18994    0.02607     7.21539
      C    9    0.92037      1.99950     3.02915    0.05098     5.07963
      O   10   -0.54782      1.99977     6.52745    0.02059     8.54782
      O   11   -0.53558      1.99971     6.52309    0.01277     8.53558
      C   12    0.08280      1.99912     3.90068    0.01740     5.91720
      C   13   -0.70468      1.99939     4.69675    0.00853     6.70468
      C   14   -0.69649      1.99939     4.68800    0.00910     6.69649
      H   15    0.24045      0.00000     0.75879    0.00076     0.75955
      H   16    0.23743      0.00000     0.76122    0.00135     0.76257
      H   17    0.25056      0.00000     0.74841    0.00103     0.74944
      H   18    0.24333      0.00000     0.75392    0.00274     0.75667
      H   19    0.24023      0.00000     0.75850    0.00127     0.75977
      H   20    0.24141      0.00000     0.75793    0.00066     0.75859
      H   21    0.24593      0.00000     0.75310    0.00097     0.75407
      H   22    0.24391      0.00000     0.75342    0.00267     0.75609
      H   23    0.23720      0.00000     0.76144    0.00136     0.76280
      H   24    0.24997      0.00000     0.74891    0.00112     0.75003
      H   25    0.24228      0.00000     0.75699    0.00073     0.75772
      H   26    0.23961      0.00000     0.75912    0.00127     0.76039
      H   27    0.24094      0.00000     0.75840    0.00066     0.75906
      H   28    0.24709      0.00000     0.75195    0.00096     0.75291
 =======================================================================
   * Total *    0.00000     27.99256    79.69887    0.30857   108.00000

 Normal termination of Gaussian 16 at Sat Aug 22 14:26:15 2020.
