 Gaussian 16, Revision A.03,

 ---------------------------------
 # opt=CalcAll B3LYP/6-31G* scf=qc
 ---------------------------------

 -------------------
 Title Card Required
 -------------------
 Symbolic Z-matrix:
 Charge =  0 Multiplicity = 1

 SCF Done:  E(RB3LYP) =  -723.600222761     a.u. after   10 cycles
 SCF Done:  E(RB3LYP) =  -723.635571820     a.u. after   23 cycles
 SCF Done:  E(RB3LYP) =  -723.644199187     a.u. after   19 cycles
 SCF Done:  E(RB3LYP) =  -723.645643754     a.u. after   15 cycles
 SCF Done:  E(RB3LYP) =  -723.645703557     a.u. after   15 cycles
 SCF Done:  E(RB3LYP) =  -723.645727727     a.u. after   13 cycles
 SCF Done:  E(RB3LYP) =  -723.645731049     a.u. after    6 cycles
 SCF Done:  E(RB3LYP) =  -723.645728163     a.u. after    7 cycles
 SCF Done:  E(RB3LYP) =  -723.645728998     a.u. after   13 cycles
 SCF Done:  E(RB3LYP) =  -723.645733262     a.u. after    9 cycles
 SCF Done:  E(RB3LYP) =  -723.645732357     a.u. after    7 cycles
 SCF Done:  E(RB3LYP) =  -723.645733466     a.u. after    7 cycles
 Optimization completed on the basis of negligible forces.
    -- Stationary point found.
 Normal termination of Gaussian 16 at Sat Aug 22 14:12:31 2020.

 ----------------------------------------------------------------------
 # freq B3LYP/6-31G* scf=qc volume NMR pop=NPA density=current Geom=All
 Check Guess=Read
 ----------------------------------------------------------------------

 Structure from the checkpoint file:  "azadicarboxylate_2_conf262.chk"
 -------------------
 Title Card Required
 -------------------
 Charge =  0 Multiplicity = 1

 SCF Done:  E(RB3LYP) =  -723.645733466     a.u. after    1 cycles

      1  C    Isotropic =   170.6300   Anisotropy =    27.5421

      2  C    Isotropic =   113.4258   Anisotropy =    72.0322

      3  C    Isotropic =   169.6075   Anisotropy =    27.8532

      4  O    Isotropic =   139.6079   Anisotropy =   141.1057

      5  C    Isotropic =    35.4598   Anisotropy =    80.2375

      6  O    Isotropic =   -27.4265   Anisotropy =   483.6026

      7  N    Isotropic =  -318.0688   Anisotropy =   663.4095

      8  N    Isotropic =  -318.0492   Anisotropy =   663.3977

      9  C    Isotropic =    35.4615   Anisotropy =    80.2730

     10  O    Isotropic =   -27.4286   Anisotropy =   483.6446

     11  O    Isotropic =   139.6086   Anisotropy =   141.0713

     12  C    Isotropic =   113.4271   Anisotropy =    72.0326

     13  C    Isotropic =   170.6310   Anisotropy =    27.5401

     14  C    Isotropic =   169.6093   Anisotropy =    27.8534

     15  H    Isotropic =    31.1615   Anisotropy =     8.3637

     16  H    Isotropic =    29.6055   Anisotropy =     5.5879

     17  H    Isotropic =    30.6469   Anisotropy =     8.1623

     18  H    Isotropic =    27.6553   Anisotropy =     4.3232

     19  H    Isotropic =    29.7440   Anisotropy =     5.3579

     20  H    Isotropic =    31.2053   Anisotropy =     8.5157

     21  H    Isotropic =    30.7058   Anisotropy =     8.1154

     22  H    Isotropic =    27.6554   Anisotropy =     4.3233

     23  H    Isotropic =    29.6056   Anisotropy =     5.5885

     24  H    Isotropic =    30.6470   Anisotropy =     8.1621

     25  H    Isotropic =    31.1617   Anisotropy =     8.3637

     26  H    Isotropic =    29.7444   Anisotropy =     5.3577

     27  H    Isotropic =    31.2055   Anisotropy =     8.5158

     28  H    Isotropic =    30.7059   Anisotropy =     8.1156

  Exact polarizability: 152.669  -0.010  94.197   3.102   0.008  89.524
 Approx polarizability: 173.852  -0.029 156.817   9.030   0.066 126.718

                      1                      2                      3
                      A                      A                      A
 Frequencies --     11.9320                32.2361                48.6834
 Red. masses --      4.0070                 3.7902                 4.7311
 Frc consts  --      0.0003                 0.0023                 0.0066
 IR Inten    --      0.0509                 1.2408                 1.1411

                      4                      5                      6
                      A                      A                      A
 Frequencies --     55.2776                61.3076               110.8944
 Red. masses --      6.9918                 4.7760                 3.6600
 Frc consts  --      0.0126                 0.0106                 0.0265
 IR Inten    --      0.6138                 0.0952                 0.6627

                      7                      8                      9
                      A                      A                      A
 Frequencies --    112.4027               179.6435               195.7371
 Red. masses --      3.4038                 3.9438                 6.9296
 Frc consts  --      0.0253                 0.0750                 0.1564
 IR Inten    --      0.0039                 1.1641                 5.7796

                     10                     11                     12
                      A                      A                      A
 Frequencies --    208.0339               231.7264               231.8404
 Red. masses --      5.7057                 1.0939                 1.0970
 Frc consts  --      0.1455                 0.0346                 0.0347
 IR Inten    --      4.5871                 0.0146                 0.1446

                     13                     14                     15
                      A                      A                      A
 Frequencies --    246.5980               250.4258               251.3686
 Red. masses --      6.0491                 1.0598                 1.1245
 Frc consts  --      0.2167                 0.0392                 0.0419
 IR Inten    --      4.5622                 0.0430                 0.5097

                     16                     17                     18
                      A                      A                      A
 Frequencies --    313.3373               357.9920               407.6255
 Red. masses --      3.2519                 2.4628                 3.4739
 Frc consts  --      0.1881                 0.1860                 0.3401
 IR Inten    --      1.4414                 1.1049                13.6482

                     19                     20                     21
                      A                      A                      A
 Frequencies --    414.9688               430.1408               474.5523
 Red. masses --      3.6017                 3.7989                 3.5298
 Frc consts  --      0.3654                 0.4141                 0.4683
 IR Inten    --      0.6220                11.6136                29.5111

                     22                     23                     24
                      A                      A                      A
 Frequencies --    483.8719               573.7898               619.7541
 Red. masses --      2.9633                 9.1196                 5.6919
 Frc consts  --      0.4088                 1.7690                 1.2881
 IR Inten    --      0.3709                 1.2725                 1.0223

                     25                     26                     27
                      A                      A                      A
 Frequencies --    654.6534               791.5225               809.2768
 Red. masses --      4.3842                 5.7756                 4.6138
 Frc consts  --      1.1070                 2.1319                 1.7803
 IR Inten    --      3.5490                39.1301                 1.1156

                     28                     29                     30
                      A                      A                      A
 Frequencies --    815.1293               856.3871               907.0871
 Red. masses --     10.8688                 6.4110                 3.2341
 Frc consts  --      4.2549                 2.7702                 1.5678
 IR Inten    --     32.1607                 0.9165                41.4002

                     31                     32                     33
                      A                      A                      A
 Frequencies --    923.3954               950.0048               950.0577
 Red. masses --      3.2783                 1.2760                 1.2761
 Frc consts  --      1.6469                 0.6785                 0.6786
 IR Inten    --      0.1651                 0.0389                 2.6733

                     34                     35                     36
                      A                      A                      A
 Frequencies --    957.2048               957.3487               962.0482
 Red. masses --      1.3409                 1.3178                 4.0790
 Frc consts  --      0.7238                 0.7116                 2.2243
 IR Inten    --      1.1767                 0.0354                 4.2576

                     37                     38                     39
                      A                      A                      A
 Frequencies --    989.2713              1166.5207              1169.4687
 Red. masses --      6.7950                 1.9929                 1.9118
 Frc consts  --      3.9181                 1.5978                 1.5406
 IR Inten    --     10.2017               275.5637                32.4225

                     40                     41                     42
                      A                      A                      A
 Frequencies --   1171.6495              1171.8461              1218.7853
 Red. masses --      2.1535                 2.1277                 1.9282
 Frc consts  --      1.7418                 1.7214                 1.6875
 IR Inten    --     23.3417                 2.2924                 8.5720

                     43                     44                     45
                      A                      A                      A
 Frequencies --   1219.0741              1237.2044              1283.1448
 Red. masses --      1.9358                 5.6130                 5.4737
 Frc consts  --      1.6950                 5.0621                 5.3099
 IR Inten    --      7.1977              1121.9183               205.7376

                     46                     47                     48
                      A                      A                      A
 Frequencies --   1391.4237              1391.4483              1419.4836
 Red. masses --      1.3201                 1.3202                 1.2785
 Frc consts  --      1.5058                 1.5060                 1.5178
 IR Inten    --      0.2909                 6.3063                23.1526

                     49                     50                     51
                      A                      A                      A
 Frequencies --   1420.9922              1430.5830              1430.6244
 Red. masses --      1.3211                 1.3284                 1.3281
 Frc consts  --      1.5717                 1.6017                 1.6016
 IR Inten    --     12.5373                 1.3944                36.2129

                     52                     53                     54
                      A                      A                      A
 Frequencies --   1444.7069              1445.0206              1511.1348
 Red. masses --      1.2418                 1.2409                 1.0481
 Frc consts  --      1.5271                 1.5266                 1.4102
 IR Inten    --     30.8396                 5.2675                 0.0131

                     55                     56                     57
                      A                      A                      A
 Frequencies --   1511.1906              1522.1774              1522.3811
 Red. masses --      1.0482                 1.0467                 1.0471
 Frc consts  --      1.4103                 1.4289                 1.4298
 IR Inten    --      0.2436                10.0965                22.7529

                     58                     59                     60
                      A                      A                      A
 Frequencies --   1526.8495              1526.9021              1546.8187
 Red. masses --      1.0485                 1.0484                 1.0538
 Frc consts  --      1.4401                 1.4402                 1.4856
 IR Inten    --      0.1054                 0.0881                12.5978

                     61                     62                     63
                      A                      A                      A
 Frequencies --   1546.8999              1654.7406              1833.2932
 Red. masses --      1.0540                13.9759                12.0952
 Frc consts  --      1.4860                22.5470                23.9512
 IR Inten    --      1.7039                 0.2200                65.4569

                     64                     65                     66
                      A                      A                      A
 Frequencies --   1850.3352              3062.4013              3062.4161
 Red. masses --     12.0609                 1.0374                 1.0374
 Frc consts  --     24.3293                 5.7323                 5.7324
 IR Inten    --    466.8228                 1.9773                30.1722

                     67                     68                     69
                      A                      A                      A
 Frequencies --   3066.4783              3066.5418              3095.3425
 Red. masses --      1.0383                 1.0383                 1.0866
 Frc consts  --      5.7525                 5.7526                 6.1337
 IR Inten    --     21.6875                 0.7542                 2.9121

                     70                     71                     72
                      A                      A                      A
 Frequencies --   3095.4832              3127.1843              3127.2296
 Red. masses --      1.0866                 1.1016                 1.1016
 Frc consts  --      6.1343                 6.3472                 6.3474
 IR Inten    --     36.7370                 0.7813                23.7687

                     73                     74                     75
                      A                      A                      A
 Frequencies --   3129.9838              3130.0751              3162.2880
 Red. masses --      1.1020                 1.1019                 1.1021
 Frc consts  --      6.3606                 6.3608                 6.4934
 IR Inten    --     63.0252                 0.7053                 1.1120

                     76                     77                     78
                      A                      A                      A
 Frequencies --   3162.2981              3166.8862              3166.9748
 Red. masses --      1.1021                 1.1010                 1.1010
 Frc consts  --      6.4935                 6.5059                 6.5062
 IR Inten    --      2.6990                 3.1038                35.7901

 - Thermochemistry -
 -------------------
 Temperature   298.150 Kelvin.  Pressure   1.00000 Atm.
 Atom     1 has atomic number  6 and mass  12.00000

 Molecular mass:   202.09536 amu.
 Principal axes and moments of inertia in atomic units:
                           1         2         3
     Eigenvalues --   988.036477253.970147350.20568
           X            0.99999   0.00001  -0.00392
           Y           -0.00001   1.00000  -0.00153
           Z            0.00392   0.00153   0.99999
 This molecule is an asymmetric top.
 Rotational symmetry number  1.
 Warning -- assumption of classical behavior for rotation
           may cause significant error
 Rotational temperatures (Kelvin)      0.08766     0.01194     0.01178
 Rotational constants (GHZ):           1.82659     0.24879     0.24554
 Zero-point vibrational energy     598215.4 (Joules/Mol)
                                  142.97692 (Kcal/Mol)
 Warning -- explicit consideration of  24 degrees of freedom as
           vibrations may cause significant error
 Vibrational temperatures:     17.17    46.38    70.04    79.53    88.21
          (Kelvin)            159.55   161.72   258.47   281.62   299.31
                              333.40   333.57   354.80   360.31   361.66
                              450.82   515.07   586.48   597.05   618.88
                              682.77   696.18   825.56   891.69   941.90
                             1138.82  1164.37  1172.79  1232.15  1305.10
                             1328.56  1366.85  1366.92  1377.20  1377.41
                             1384.17  1423.34  1678.36  1682.60  1685.74
                             1686.03  1753.56  1753.98  1780.06  1846.16
                             2001.95  2001.98  2042.32  2044.49  2058.29
                             2058.35  2078.61  2079.06  2174.19  2174.27
                             2190.07  2190.37  2196.80  2196.87  2225.53
                             2225.64  2380.80  2637.70  2662.22  4406.11
                             4406.13  4411.98  4412.07  4453.51  4453.71
                             4499.32  4499.39  4503.35  4503.48  4549.83
                             4549.84  4556.44  4556.57

 Zero-point correction=                           0.227848 (Hartree/Particle)
 Thermal correction to Energy=                    0.244017
 Thermal correction to Enthalpy=                  0.244961
 Thermal correction to Gibbs Free Energy=         0.181526
 Sum of electronic and zero-point Energies=           -723.417885
 Sum of electronic and thermal Energies=              -723.401716
 Sum of electronic and thermal Enthalpies=            -723.400772
 Sum of electronic and thermal Free Energies=         -723.464208

                     E (Thermal)             CV                S
                      KCal/Mol        Cal/Mol-Kelvin    Cal/Mol-Kelvin
 Total                  153.123             56.275            133.511
 Electronic               0.000              0.000              0.000
 Translational            0.889              2.981             41.815
 Rotational               0.889              2.981             32.332
 Vibrational            151.346             50.313             59.363
 Vibration     1          0.593              1.987              7.660
 Vibration     2          0.594              1.983              5.687
 Vibration     3          0.595              1.978              4.870
 Vibration     4          0.596              1.975              4.619
 Vibration     5          0.597              1.973              4.415
 Vibration     6          0.607              1.940              3.253
 Vibration     7          0.607              1.939              3.227
 Vibration     8          0.629              1.867              2.332
 Vibration     9          0.636              1.846              2.173
 Vibration    10          0.641              1.828              2.061
 Vibration    11          0.653              1.792              1.866
 Vibration    12          0.653              1.792              1.865
 Vibration    13          0.661              1.768              1.755
 Vibration    14          0.663              1.762              1.728
 Vibration    15          0.663              1.760              1.721
 Vibration    16          0.701              1.648              1.345
 Vibration    17          0.733              1.559              1.131
 Vibration    18          0.772              1.454              0.935
 Vibration    19          0.778              1.438              0.909
 Vibration    20          0.791              1.405              0.858
 Vibration    21          0.831              1.307              0.725
 Vibration    22          0.840              1.286              0.700
 Vibration    23          0.930              1.088              0.497
 Vibration    24          0.980              0.990              0.417

 Optimization completed on the basis of negligible forces.
    -- Stationary point found.
 Normal termination of Gaussian 16 at Sat Aug 22 14:16:44 2020.
 Gaussian 16:  ES64L-G16RevA.03 25-Dec-2016

 ----------------------------------------------------------------------
 # TD(NStates=10, Root=1) B3LYP/6-31G* scf=qc volume pop=NPA density=cu
 rrent Geom=AllCheck Guess=Read
 ----------------------------------------------------------------------

 Structure from the checkpoint file:  "azadicarboxylate_2_conf263.chk"
 -------------------
 Title Card Required
 -------------------
 Charge =  0 Multiplicity = 1

                         Standard orientation:
 ---------------------------------------------------------------------
 Center     Atomic      Atomic             Coordinates (Angstroms)
 Number     Number       Type             X           Y           Z
 ---------------------------------------------------------------------
      1          6           0       -4.417748    0.632424   -1.128087
      2          6           0       -3.666035    0.903313    0.170963
      3          6           0       -4.202221    0.150747    1.384141
      4          8           0       -2.218487    0.677089    0.005331
      5          6           0       -1.767103   -0.539464   -0.277694
      6          8           0       -2.378201   -1.568046   -0.428889
      7          7           0       -0.336498   -0.480210   -0.524544
      8          7           0        0.336633   -0.483213    0.522716
      9          6           0        1.767233   -0.540986    0.275444
     10          8           0        2.378494   -1.570200    0.421600
     11          8           0        2.218397    0.676979   -0.001801
     12          6           0        3.665859    0.904184   -0.166814
     13          6           0        4.418062    0.627104    1.130642
     14          6           0        4.201688    0.157570   -1.383818
     15          1           0       -5.451654    0.979969   -1.023023
     16          1           0       -4.430571   -0.433241   -1.366385
     17          1           0       -3.959477    1.178281   -1.959233
     18          1           0       -3.679914    1.977056    0.377942
     19          1           0       -4.213938   -0.927305    1.210072
     20          1           0       -5.225582    0.484199    1.590167
     21          1           0       -3.591344    0.361923    2.267698
     22          1           0        3.679537    1.978918   -0.368596
     23          1           0        4.431079   -0.439696    1.363779
     24          1           0        3.960029    1.168887    1.964580
     25          1           0        5.451895    0.975264    1.026890
     26          1           0        4.213525   -0.921315   -1.215001
     27          1           0        5.224960    0.492080   -1.588565
     28          1           0        3.590494    0.373004   -2.266127
 ---------------------------------------------------------------------

 SCF Done:  E(RB3LYP) =  -723.645733466     a.u. after    1 cycles

 Excitation energies and oscillator strengths:

 Excited State   1:      Singlet-A      2.9398 eV  421.74 nm  f=0.0039  <S**2>=0.000
      53 -> 55         0.11093
      54 -> 55         0.69820
 This state for optimization and/or second-order correction.
 Total Energy, E(TD-HF/TD-DFT) =  -723.537697662
 Copying the excited state density for this state as the 1-particle RhoCI density.

 Excited State   2:      Singlet-A      5.0011 eV  247.92 nm  f=0.0598  <S**2>=0.000
      53 -> 55         0.68692
      54 -> 55        -0.10622

 Excited State   3:      Singlet-A      5.0991 eV  243.15 nm  f=0.0004  <S**2>=0.000
      52 -> 55         0.69295

 Excited State   4:      Singlet-A      5.4463 eV  227.65 nm  f=0.0037  <S**2>=0.000
      51 -> 55         0.70294

 Excited State   5:      Singlet-A      5.4529 eV  227.37 nm  f=0.0018  <S**2>=0.000
      50 -> 55         0.70127

 Excited State   6:      Singlet-A      5.5833 eV  222.06 nm  f=0.0000  <S**2>=0.000
      52 -> 57         0.16882
      53 -> 56        -0.10276
      54 -> 56         0.66792

 Excited State   7:      Singlet-A      5.6423 eV  219.74 nm  f=0.0177  <S**2>=0.000
      52 -> 56         0.16591
      54 -> 57         0.67623

 Excited State   8:      Singlet-A      6.5775 eV  188.50 nm  f=0.0107  <S**2>=0.000
      45 -> 55        -0.12935
      47 -> 55        -0.10413
      49 -> 55         0.67428

 Excited State   9:      Singlet-A      6.6278 eV  187.07 nm  f=0.0000  <S**2>=0.000
      44 -> 55        -0.17266
      48 -> 55         0.66240

 Excited State  10:      Singlet-A      6.7556 eV  183.53 nm  f=0.0217  <S**2>=0.000
      52 -> 56         0.48676
      53 -> 57        -0.46046
      54 -> 57        -0.18195

 The electronic state is 1-A.
 Alpha  occ. eigenvalues --  -19.20738 -19.20738 -19.15225 -19.15224 -14.41802
 Alpha  occ. eigenvalues --  -14.41751 -10.34936 -10.34935 -10.26501 -10.26501
 Alpha  occ. eigenvalues --  -10.18831 -10.18831 -10.18736 -10.18736  -1.13252
 Alpha  occ. eigenvalues --   -1.11970  -1.05162  -1.03606  -1.03223  -0.82140
 Alpha  occ. eigenvalues --   -0.80449  -0.76237  -0.70389  -0.70386  -0.66947
 Alpha  occ. eigenvalues --   -0.64194  -0.58463  -0.52647  -0.51959  -0.50818
 Alpha  occ. eigenvalues --   -0.50186  -0.49315  -0.47957  -0.46807  -0.45947
 Alpha  occ. eigenvalues --   -0.44617  -0.43215  -0.42785  -0.41768  -0.40948
 Alpha  occ. eigenvalues --   -0.40468  -0.39358  -0.38882  -0.37727  -0.37350
 Alpha  occ. eigenvalues --   -0.36448  -0.36411  -0.35430  -0.35222  -0.31397
 Alpha  occ. eigenvalues --   -0.31382  -0.30169  -0.30021  -0.24441
 Alpha virt. eigenvalues --   -0.07703   0.00689   0.01135   0.08647   0.08653
 Alpha virt. eigenvalues --    0.10569   0.10671   0.13696   0.13858   0.14801
 Alpha virt. eigenvalues --    0.14816   0.15657   0.15707   0.17154   0.17383

 Mulliken charges:
               1
     1  C   -0.471659
     2  C    0.129866
     3  C   -0.470191
     4  O   -0.432611
     5  C    0.737035
     6  O   -0.415326
     7  N   -0.243344
     8  N   -0.243348
     9  C    0.737026
    10  O   -0.415370
    11  O   -0.432626
    12  C    0.129873
    13  C   -0.471653
    14  C   -0.470195
    15  H    0.154486
    16  H    0.187784
    17  H    0.162746
    18  H    0.156877
    19  H    0.188017
    20  H    0.152310
    21  H    0.164050
    22  H    0.156873
    23  H    0.187787
    24  H    0.162742
    25  H    0.154479
    26  H    0.188017
    27  H    0.152307
    28  H    0.164049
 Sum of Mulliken charges =  -0.00000

 Dipole moment (field-independent basis, Debye):
    X=             -0.0012    Y=              3.8513    Z=              0.0084  Tot=              3.8513
 Quadrupole moment (field-independent basis, Debye-Ang):
   XX=            -57.5245   YY=            -88.2759   ZZ=            -80.4415
   XY=              0.0086   XZ=             -2.8758   YZ=             -0.0183

 Summary of Natural Population Analysis:

                                       Natural Population
                Natural  -----------------------------------------------
    Atom  No    Charge         Core      Valence    Rydberg      Total
 -----------------------------------------------------------------------
      C    1   -0.71036      1.99939     4.70287    0.00810     6.71036
      C    2    0.08487      1.99912     3.89773    0.01827     5.91513
      C    3   -0.70929      1.99939     4.70192    0.00798     6.70929
      O    4   -0.53322      1.99972     6.52150    0.01199     8.53322
      C    5    0.92028      1.99951     3.02792    0.05229     5.07972
      O    6   -0.54533      1.99977     6.52508    0.02049     8.54533
      N    7   -0.22602      1.99939     5.19995    0.02669     7.22602
      N    8   -0.22601      1.99939     5.19994    0.02669     7.22601
      C    9    0.92025      1.99951     3.02795    0.05229     5.07975
      O   10   -0.54537      1.99977     6.52512    0.02049     8.54537
      O   11   -0.53324      1.99972     6.52152    0.01199     8.53324
      C   12    0.08488      1.99912     3.89773    0.01827     5.91512
      C   13   -0.71036      1.99939     4.70287    0.00810     6.71036
      C   14   -0.70929      1.99939     4.70192    0.00798     6.70929
      H   15    0.24231      0.00000     0.75696    0.00073     0.75769
      H   16    0.25207      0.00000     0.74647    0.00146     0.74793
      H   17    0.24283      0.00000     0.75611    0.00106     0.75717
      H   18    0.24524      0.00000     0.75307    0.00168     0.75476
      H   19    0.25250      0.00000     0.74615    0.00135     0.74750
      H   20    0.24048      0.00000     0.75877    0.00075     0.75952
      H   21    0.24367      0.00000     0.75527    0.00106     0.75633
      H   22    0.24524      0.00000     0.75308    0.00168     0.75476
      H   23    0.25207      0.00000     0.74646    0.00146     0.74793
      H   24    0.24283      0.00000     0.75611    0.00106     0.75717
      H   25    0.24231      0.00000     0.75697    0.00073     0.75769
      H   26    0.25250      0.00000     0.74615    0.00135     0.74750
      H   27    0.24048      0.00000     0.75878    0.00075     0.75952
      H   28    0.24367      0.00000     0.75527    0.00106     0.75633
 =======================================================================
   * Total *   -0.00000     27.99259    79.69964    0.30778   108.00000

 Normal termination of Gaussian 16 at Sat Aug 22 14:21:51 2020.
