 Gaussian 16, Revision A.03,

 ---------------------------------
 # opt=CalcAll B3LYP/6-31G* scf=qc
 ---------------------------------

 -------------------
 Title Card Required
 -------------------
 Symbolic Z-matrix:
 Charge =  0 Multiplicity = 1

 SCF Done:  E(RB3LYP) =  -838.700933346     a.u. after   10 cycles
 SCF Done:  E(RB3LYP) =  -838.721791694     a.u. after   21 cycles
 SCF Done:  E(RB3LYP) =  -838.731766709     a.u. after   17 cycles
 SCF Done:  E(RB3LYP) =  -838.754879494     a.u. after   17 cycles
 SCF Done:  E(RB3LYP) =  -838.761251034     a.u. after   21 cycles
 SCF Done:  E(RB3LYP) =  -838.763156851     a.u. after   13 cycles
 SCF Done:  E(RB3LYP) =  -838.763312133     a.u. after   13 cycles
 SCF Done:  E(RB3LYP) =  -838.763315072     a.u. after    4 cycles
 SCF Done:  E(RB3LYP) =  -838.763315168     a.u. after    2 cycles
 SCF Done:  E(RB3LYP) =  -838.763315172     a.u. after    2 cycles
 Optimization completed.
    -- Stationary point found.
 Normal termination of Gaussian 16 at Sat Aug 22 16:19:39 2020.

 ----------------------------------------------------------------------
 # freq B3LYP/6-31G* scf=qc volume NMR pop=NPA density=current Geom=All
 Check Guess=Read
 ----------------------------------------------------------------------

 Structure from the checkpoint file:  "azadicarboxylate_5_conf152.chk"
 -------------------
 Title Card Required
 -------------------
 Charge =  0 Multiplicity = 1

 SCF Done:  E(RB3LYP) =  -838.763315172     a.u. after    1 cycles

      1  C    Isotropic =    36.0166   Anisotropy =    77.6532

      2  O    Isotropic =     1.7255   Anisotropy =   440.3644

      3  N    Isotropic =  -352.0431   Anisotropy =   725.6808

      4  N    Isotropic =  -352.7583   Anisotropy =   728.0988

      5  C    Isotropic =    36.1526   Anisotropy =    77.5264

      6  O    Isotropic =     1.6580   Anisotropy =   440.0119

      7  N    Isotropic =   147.9101   Anisotropy =    64.7766

      8  C    Isotropic =   146.6753   Anisotropy =    25.9759

      9  C    Isotropic =   162.9846   Anisotropy =     7.1414

     10  C    Isotropic =   164.1524   Anisotropy =     3.9787

     11  C    Isotropic =   163.1971   Anisotropy =     5.5666

     12  C    Isotropic =   145.5765   Anisotropy =    25.0253

     13  N    Isotropic =   148.2435   Anisotropy =    66.7647

     14  C    Isotropic =   146.8852   Anisotropy =    26.0125

     15  C    Isotropic =   162.9424   Anisotropy =     6.7320

     16  C    Isotropic =   164.1198   Anisotropy =     3.8075

     17  C    Isotropic =   163.1387   Anisotropy =     6.6569

     18  C    Isotropic =   145.5299   Anisotropy =    24.4333

     19  H    Isotropic =    27.8399   Anisotropy =     6.0986

     20  H    Isotropic =    29.5334   Anisotropy =     8.0622

     21  H    Isotropic =    30.6132   Anisotropy =     7.0811

     22  H    Isotropic =    30.7261   Anisotropy =     9.4494

     23  H    Isotropic =    30.4416   Anisotropy =     9.5006

     24  H    Isotropic =    30.6799   Anisotropy =     7.9042

     25  H    Isotropic =    30.7592   Anisotropy =     7.3906

     26  H    Isotropic =    30.8467   Anisotropy =     9.2065

     27  H    Isotropic =    29.0005   Anisotropy =     8.0944

     28  H    Isotropic =    29.3617   Anisotropy =     7.3360

     29  H    Isotropic =    27.8411   Anisotropy =     6.2237

     30  H    Isotropic =    29.6016   Anisotropy =     8.1852

     31  H    Isotropic =    30.4021   Anisotropy =     7.1797

     32  H    Isotropic =    30.6501   Anisotropy =     9.3793

     33  H    Isotropic =    30.3796   Anisotropy =     9.3961

     34  H    Isotropic =    30.6657   Anisotropy =     7.8642

     35  H    Isotropic =    30.4593   Anisotropy =     7.1164

     36  H    Isotropic =    30.8099   Anisotropy =     9.2301

     37  H    Isotropic =    28.9782   Anisotropy =     9.5509

     38  H    Isotropic =    29.5067   Anisotropy =     7.6850

  Exact polarizability: 210.276  -2.473 150.830   1.957  -0.548 115.534
 Approx polarizability: 241.963 -10.579 238.309   7.321   0.238 179.661

                      1                      2                      3
                      A                      A                      A
 Frequencies --     15.2853                37.3286                39.0475
 Red. masses --      4.8680                 4.4685                 4.9139
 Frc consts  --      0.0007                 0.0037                 0.0044
 IR Inten    --      3.2826                 1.7625                 3.4954

                      4                      5                      6
                      A                      A                      A
 Frequencies --     47.7792                55.2373                61.6720
 Red. masses --      3.4663                 4.4060                 5.0513
 Frc consts  --      0.0047                 0.0079                 0.0113
 IR Inten    --      0.4273                 0.2420                 2.0991

                      7                      8                      9
                      A                      A                      A
 Frequencies --     83.3965               175.9373               191.3755
 Red. masses --      4.7501                 2.9764                 3.2117
 Frc consts  --      0.0195                 0.0543                 0.0693
 IR Inten    --      0.1763                 0.1672                 8.1970

                     10                     11                     12
                      A                      A                      A
 Frequencies --    200.9692               219.7798               256.1958
 Red. masses --      5.8012                 5.0983                 2.2153
 Frc consts  --      0.1380                 0.1451                 0.0857
 IR Inten    --      2.3956                 0.2957                 0.8600

                     13                     14                     15
                      A                      A                      A
 Frequencies --    270.9680               300.4623               323.9784
 Red. masses --      2.5137                 2.5589                 2.8210
 Frc consts  --      0.1087                 0.1361                 0.1745
 IR Inten    --      2.6983                 1.8675                22.2135

                     16                     17                     18
                      A                      A                      A
 Frequencies --    364.5426               381.6572               392.8594
 Red. masses --      5.5698                 4.9132                 1.8098
 Frc consts  --      0.4361                 0.4217                 0.1646
 IR Inten    --      1.3490                 1.6261                 2.4553

                     19                     20                     21
                      A                      A                      A
 Frequencies --    405.9594               445.5054               450.4903
 Red. masses --      1.7846                 3.1823                 2.9945
 Frc consts  --      0.1733                 0.3721                 0.3580
 IR Inten    --      2.4530                 0.1290                 0.8398

                     22                     23                     24
                      A                      A                      A
 Frequencies --    476.6156               525.7908               550.4726
 Red. masses --      3.4205                 2.0173                 2.1759
 Frc consts  --      0.4578                 0.3286                 0.3885
 IR Inten    --      0.1277                 8.6734                 0.8291

                     25                     26                     27
                      A                      A                      A
 Frequencies --    576.3149               583.7449               627.2995
 Red. masses --      6.2032                 5.6984                 3.5404
 Frc consts  --      1.2139                 1.1441                 0.8208
 IR Inten    --     19.6437                 3.4271                10.3123

                     28                     29                     30
                      A                      A                      A
 Frequencies --    687.8371               747.9813               795.1622
 Red. masses --      3.8346                 5.4913                11.6069
 Frc consts  --      1.0689                 1.8101                 4.3239
 IR Inten    --      0.3109                 2.8943                20.4412

                     31                     32                     33
                      A                      A                      A
 Frequencies --    823.3185               825.1686               834.4578
 Red. masses --      1.5090                 1.5043                 3.1929
 Frc consts  --      0.6026                 0.6035                 1.3099
 IR Inten    --      0.2653                 0.2582                 0.7698

                     34                     35                     36
                      A                      A                      A
 Frequencies --    843.2784               869.5310               869.9127
 Red. masses --      3.0699                 1.4006                 1.4217
 Frc consts  --      1.2862                 0.6239                 0.6339
 IR Inten    --      3.3689                 9.8256                 7.6258

                     37                     38                     39
                      A                      A                      A
 Frequencies --    891.8862               910.3575               922.0496
 Red. masses --      3.2478                 2.5246                 3.1704
 Frc consts  --      1.5222                 1.2327                 1.5881
 IR Inten    --      0.0514                 7.7228                 0.2389

                     40                     41                     42
                      A                      A                      A
 Frequencies --    971.5920               977.1644               979.4044
 Red. masses --      2.7181                 1.5628                 1.3831
 Frc consts  --      1.5117                 0.8792                 0.7817
 IR Inten    --      4.1641                 1.1864                 4.2484

                     43                     44                     45
                      A                      A                      A
 Frequencies --    981.8708              1036.0646              1041.1054
 Red. masses --      2.6656                 2.7548                 2.5567
 Frc consts  --      1.5141                 1.7423                 1.6328
 IR Inten    --      0.4165                 5.6621                78.7450

                     46                     47                     48
                      A                      A                      A
 Frequencies --   1048.1261              1054.6554              1083.5412
 Red. masses --      2.1585                 2.2449                 1.7166
 Frc consts  --      1.3971                 1.4712                 1.1874
 IR Inten    --      0.3499                 3.1222                 0.2780

                     49                     50                     51
                      A                      A                      A
 Frequencies --   1084.7351              1154.9894              1158.4347
 Red. masses --      1.7104                 2.1700                 2.1371
 Frc consts  --      1.1857                 1.7056                 1.6897
 IR Inten    --      0.2287                 2.6400                16.1822

                     52                     53                     54
                      A                      A                      A
 Frequencies --   1169.4514              1172.3885              1195.6577
 Red. masses --      1.8911                 2.0040                 1.2513
 Frc consts  --      1.5238                 1.6229                 1.0539
 IR Inten    --     16.1851                77.8825                 1.3880

                     55                     56                     57
                      A                      A                      A
 Frequencies --   1197.0120              1261.2052              1264.1906
 Red. masses --      1.2642                 1.7978                 1.7924
 Frc consts  --      1.0673                 1.6849                 1.6877
 IR Inten    --      1.3051               148.3016               135.5461

                     58                     59                     60
                      A                      A                      A
 Frequencies --   1287.5635              1293.0932              1300.8524
 Red. masses --      2.2579                 1.8230                 1.2626
 Frc consts  --      2.2054                 1.7959                 1.2589
 IR Inten    --    280.9692                10.9005                21.3518

                     61                     62                     63
                      A                      A                      A
 Frequencies --   1303.2931              1323.2841              1323.7672
 Red. masses --      1.3610                 1.2221                 1.2027
 Frc consts  --      1.3620                 1.2608                 1.2418
 IR Inten    --     10.0144                19.6597                24.5416

                     64                     65                     66
                      A                      A                      A
 Frequencies --   1371.0186              1372.7512              1398.1285
 Red. masses --      1.2808                 1.2875                 1.3697
 Frc consts  --      1.4185                 1.4295                 1.5775
 IR Inten    --      0.0336                 0.5149                 1.6670

                     67                     68                     69
                      A                      A                      A
 Frequencies --   1398.3840              1400.8325              1401.6509
 Red. masses --      1.3865                 1.4606                 1.4636
 Frc consts  --      1.5974                 1.6888                 1.6942
 IR Inten    --      2.1171                 1.5635                 3.0482

                     70                     71                     72
                      A                      A                      A
 Frequencies --   1403.5435              1405.7899              1421.6437
 Red. masses --      1.4502                 1.4411                 1.3327
 Frc consts  --      1.6832                 1.6780                 1.5869
 IR Inten    --      3.4415                 4.1440                 8.7142

                     73                     74                     75
                      A                      A                      A
 Frequencies --   1425.4023              1481.8670              1485.9996
 Red. masses --      1.3433                 2.8816                 3.0635
 Frc consts  --      1.6080                 3.7283                 3.9857
 IR Inten    --     10.2784               413.3914                 3.2984

                     76                     77                     78
                      A                      A                      A
 Frequencies --   1507.8973              1507.9234              1514.4321
 Red. masses --      1.0950                 1.0950                 1.0860
 Frc consts  --      1.4670                 1.4670                 1.4675
 IR Inten    --      0.1161                 1.7770                 5.7068

                     79                     80                     81
                      A                      A                      A
 Frequencies --   1514.7553              1516.9531              1519.0191
 Red. masses --      1.0859                 1.0894                 1.0868
 Frc consts  --      1.4680                 1.4770                 1.4774
 IR Inten    --      5.2451                12.8344                 4.0132

                     82                     83                     84
                      A                      A                      A
 Frequencies --   1519.5990              1523.1338              1534.2192
 Red. masses --      1.0997                 1.0939                 1.1006
 Frc consts  --      1.4961                 1.4952                 1.5264
 IR Inten    --     10.1907                 4.4668                 3.0779

                     85                     86                     87
                      A                      A                      A
 Frequencies --   1535.0361              1649.5617              1775.7628
 Red. masses --      1.0997                13.7874                11.6206
 Frc consts  --      1.5268                22.1039                21.5897
 IR Inten    --      4.1701                 0.0315                 1.1327

                     88                     89                     90
                      A                      A                      A
 Frequencies --   1797.7969              3015.0635              3018.1966
 Red. masses --     11.7124                 1.0732                 1.0729
 Frc consts  --     22.3036                 5.7483                 5.7582
 IR Inten    --    854.1276                12.2273                12.2403

                     91                     92                     93
                      A                      A                      A
 Frequencies --   3018.2981              3021.2123              3025.4366
 Red. masses --      1.0730                 1.0718                 1.0699
 Frc consts  --      5.7591                 5.7639                 5.7700
 IR Inten    --     38.3630                30.9700                82.5442

                     94                     95                     96
                      A                      A                      A
 Frequencies --   3025.6246              3045.4526              3045.8487
 Red. masses --      1.0697                 1.0609                 1.0608
 Frc consts  --      5.7695                 5.7973                 5.7982
 IR Inten    --     23.0427                25.4408                25.3836

                     97                     98                     99
                      A                      A                      A
 Frequencies --   3047.3372              3047.5405              3082.0709
 Red. masses --      1.0617                 1.0616                 1.0934
 Frc consts  --      5.8090                 5.8093                 6.1193
 IR Inten    --     19.3302                21.1240                59.9129

                    100                    101                    102
                      A                      A                      A
 Frequencies --   3082.2846              3088.9407              3089.1881
 Red. masses --      1.0933                 1.1036                 1.1038
 Frc consts  --      6.1199                 6.2040                 6.2061
 IR Inten    --     43.1153                31.8285                31.9509

                    103                    104                    105
                      A                      A                      A
 Frequencies --   3094.0674              3094.3358              3149.6852
 Red. masses --      1.1049                 1.1049                 1.0920
 Frc consts  --      6.2322                 6.2334                 6.3830
 IR Inten    --     60.5951                69.0522                 6.9654

                    106                    107                    108
                      A                      A                      A
 Frequencies --   3151.3594              3156.4560              3157.3210
 Red. masses --      1.0927                 1.0916                 1.0919
 Frc consts  --      6.3937                 6.4080                 6.4134
 IR Inten    --      5.2836                 3.6662                 3.5106

 - Thermochemistry -
 -------------------
 Temperature   298.150 Kelvin.  Pressure   1.00000 Atm.
 Atom     1 has atomic number  6 and mass  12.00000

 Molecular mass:   252.15863 amu.
 Principal axes and moments of inertia in atomic units:
                           1         2         3
     Eigenvalues --  1722.42534********************
           X            0.99997  -0.00820  -0.00140
           Y            0.00819   0.99993  -0.00826
           Z            0.00147   0.00825   0.99996
 This molecule is an asymmetric top.
 Rotational symmetry number  1.
 Warning -- assumption of classical behavior for rotation
           may cause significant error
 Rotational temperatures (Kelvin)      0.05029     0.00849     0.00778
 Rotational constants (GHZ):           1.04779     0.17691     0.16207
 Zero-point vibrational energy     864803.6 (Joules/Mol)
                                  206.69302 (Kcal/Mol)
 Warning -- explicit consideration of  26 degrees of freedom as
           vibrations may cause significant error
 Vibrational temperatures:     21.99    53.71    56.18    68.74    79.47
          (Kelvin)             88.73   119.99   253.13   275.35   289.15
                              316.21   368.61   389.86   432.30   466.13
                              524.50   549.12   565.24   584.08   640.98
                              648.16   685.74   756.50   792.01   829.19
                              839.88   902.54   989.64  1076.18  1144.06
                             1184.57  1187.23  1200.60  1213.29  1251.06
                             1251.61  1283.23  1309.80  1326.62  1397.90
                             1405.92  1409.14  1412.69  1490.67  1497.92
                             1508.02  1517.41  1558.97  1560.69  1661.77
                             1666.73  1682.58  1686.81  1720.28  1722.23
                             1814.59  1818.89  1852.52  1860.47  1871.64
                             1875.15  1903.91  1904.61  1972.59  1975.08
                             2011.60  2011.96  2015.49  2016.66  2019.39
                             2022.62  2045.43  2050.84  2132.08  2138.02
                             2169.53  2169.57  2178.93  2179.40  2182.56
                             2185.53  2186.36  2191.45  2207.40  2208.57
                             2373.35  2554.93  2586.63  4338.00  4342.51
                             4342.66  4346.85  4352.93  4353.20  4381.73
                             4382.30  4384.44  4384.73  4434.41  4434.72
                             4444.30  4444.65  4451.67  4452.06  4531.69
                             4534.10  4541.44  4542.68

 Zero-point correction=                           0.329386 (Hartree/Particle)
 Thermal correction to Energy=                    0.346575
 Thermal correction to Enthalpy=                  0.347519
 Thermal correction to Gibbs Free Energy=         0.281380
 Sum of electronic and zero-point Energies=           -838.433929
 Sum of electronic and thermal Energies=              -838.416740
 Sum of electronic and thermal Enthalpies=            -838.415796
 Sum of electronic and thermal Free Energies=         -838.481935

                     E (Thermal)             CV                S
                      KCal/Mol        Cal/Mol-Kelvin    Cal/Mol-Kelvin
 Total                  217.479             64.723            139.201
 Electronic               0.000              0.000              0.000
 Translational            0.889              2.981             42.475
 Rotational               0.889              2.981             33.636
 Vibrational            215.702             58.761             63.090
 Vibration     1          0.593              1.986              7.168
 Vibration     2          0.594              1.982              5.396
 Vibration     3          0.594              1.981              5.307
 Vibration     4          0.595              1.978              4.907
 Vibration     5          0.596              1.975              4.620
 Vibration     6          0.597              1.973              4.403
 Vibration     7          0.600              1.961              3.809
 Vibration     8          0.628              1.872              2.371
 Vibration     9          0.634              1.852              2.214
 Vibration    10          0.638              1.839              2.124
 Vibration    11          0.647              1.811              1.961
 Vibration    12          0.666              1.752              1.688
 Vibration    13          0.675              1.727              1.590
 Vibration    14          0.693              1.673              1.414
 Vibration    15          0.709              1.627              1.290
 Vibration    16          0.738              1.545              1.103
 Vibration    17          0.751              1.509              1.033
 Vibration    18          0.760              1.485              0.989
 Vibration    19          0.771              1.457              0.941
 Vibration    20          0.805              1.371              0.809
 Vibration    21          0.809              1.360              0.794
 Vibration    22          0.833              1.302              0.719
 Vibration    23          0.881              1.193              0.597
 Vibration    24          0.906              1.139              0.543
 Vibration    25          0.933              1.082              0.492
 Vibration    26          0.941              1.066              0.478

 Optimization completed.
    -- Stationary point found.
 Normal termination of Gaussian 16 at Sat Aug 22 16:28:02 2020.
 Gaussian 16:  ES64L-G16RevA.03 25-Dec-2016

 ----------------------------------------------------------------------
 # TD(NStates=10, Root=1) B3LYP/6-31G* scf=qc volume pop=NPA density=cu
 rrent Geom=AllCheck Guess=Read
 ----------------------------------------------------------------------

 Structure from the checkpoint file:  "azadicarboxylate_5_conf153.chk"
 -------------------
 Title Card Required
 -------------------
 Charge =  0 Multiplicity = 1

                         Standard orientation:
 ---------------------------------------------------------------------
 Center     Atomic      Atomic             Coordinates (Angstroms)
 Number     Number       Type             X           Y           Z
 ---------------------------------------------------------------------
      1          6           0        1.432145    0.947061   -0.256348
      2          8           0        1.220476    2.147140   -0.332762
      3          7           0        0.316422    0.055652    0.058668
      4          7           0       -0.437126   -0.122561   -0.915510
      5          6           0       -1.554304   -1.010692   -0.592411
      6          8           0       -1.344435   -2.208849   -0.488281
      7          7           0       -2.756197   -0.387561   -0.551829
      8          6           0       -3.970075   -1.169006   -0.302547
      9          6           0       -4.667506   -0.687916    0.976782
     10          6           0       -4.914209    0.828624    0.936506
     11          6           0       -3.612069    1.591908    0.646761
     12          6           0       -2.937870    1.066709   -0.628205
     13          7           0        2.634775    0.326772   -0.314506
     14          6           0        3.850797    1.123162   -0.501127
     15          6           0        4.881222    0.798498    0.587486
     16          6           0        5.147404   -0.712825    0.664453
     17          6           0        3.834902   -1.490088    0.846580
     18          6           0        2.818583   -1.127725   -0.244319
     19          1           0       -3.678804   -2.218189   -0.240246
     20          1           0       -4.642041   -1.048538   -1.165643
     21          1           0       -4.035830   -0.938835    1.839111
     22          1           0       -5.612755   -1.231042    1.099212
     23          1           0       -5.352431    1.169006    1.882239
     24          1           0       -5.649253    1.055670    0.149894
     25          1           0       -2.915591    1.475899    1.487579
     26          1           0       -3.807569    2.665186    0.533362
     27          1           0       -1.970757    1.544335   -0.790785
     28          1           0       -3.568376    1.287744   -1.502498
     29          1           0        3.558707    2.173942   -0.488995
     30          1           0        4.269271    0.896574   -1.493601
     31          1           0        4.502871    1.158310    1.553432
     32          1           0        5.808765    1.345924    0.379122
     33          1           0        5.840280   -0.937816    1.483964
     34          1           0        5.639131   -1.042704   -0.262839
     35          1           0        3.398268   -1.257992    1.826885
     36          1           0        4.016298   -2.571437    0.820258
     37          1           0        1.854797   -1.603656   -0.058406
     38          1           0        3.177451   -1.481093   -1.223115
 ---------------------------------------------------------------------

 SCF Done:  E(RB3LYP) =  -838.763315172     a.u. after    1 cycles

 Excitation energies and oscillator strengths:

 Excited State   1:      Singlet-A      2.6553 eV  466.94 nm  f=0.0000  <S**2>=0.000
      68 -> 69         0.69733
 This state for optimization and/or second-order correction.
 Total Energy, E(TD-HF/TD-DFT) =  -838.665735989
 Copying the excited state density for this state as the 1-particle RhoCI density.

 Excited State   2:      Singlet-A      3.8373 eV  323.11 nm  f=0.0015  <S**2>=0.000
      66 -> 69        -0.30045
      67 -> 69         0.63420

 Excited State   3:      Singlet-A      3.8610 eV  321.12 nm  f=0.0019  <S**2>=0.000
      66 -> 69         0.63323
      67 -> 69         0.30281

 Excited State   4:      Singlet-A      4.3830 eV  282.87 nm  f=0.0428  <S**2>=0.000
      65 -> 69         0.69355

 Excited State   5:      Singlet-A      5.0150 eV  247.23 nm  f=0.0000  <S**2>=0.000
      64 -> 69         0.68252
      68 -> 70        -0.10543

 Excited State   6:      Singlet-A      5.7565 eV  215.38 nm  f=0.0484  <S**2>=0.000
      65 -> 70         0.18693
      68 -> 70         0.52218
      68 -> 71         0.41414

 Excited State   7:      Singlet-A      5.8116 eV  213.34 nm  f=0.0052  <S**2>=0.000
      64 -> 69        -0.12585
      65 -> 71        -0.18765
      68 -> 70        -0.40292
      68 -> 71         0.51814

 Excited State   8:      Singlet-A      6.3931 eV  193.93 nm  f=0.0022  <S**2>=0.000
      59 -> 69        -0.15739
      61 -> 69         0.16397
      63 -> 69         0.65067

 Excited State   9:      Singlet-A      6.4682 eV  191.68 nm  f=0.0004  <S**2>=0.000
      60 -> 69         0.23618
      62 -> 69         0.65471

 Excited State  10:      Singlet-A      6.5051 eV  190.59 nm  f=0.0540  <S**2>=0.000
      59 -> 69        -0.39253
      60 -> 69         0.45242
      62 -> 69        -0.23301
      63 -> 69        -0.21377

 The electronic state is 1-A.
 Alpha  occ. eigenvalues --  -19.12112 -19.12073 -14.40321 -14.40263 -14.37157
 Alpha  occ. eigenvalues --  -14.37117 -10.30881 -10.30849 -10.22687 -10.22654
 Alpha  occ. eigenvalues --  -10.22198 -10.22182 -10.19209 -10.19190 -10.19157
 Alpha  occ. eigenvalues --  -10.19129 -10.19114 -10.19094  -1.08207  -1.04575
 Alpha  occ. eigenvalues --   -1.00769  -0.94884  -0.94734  -0.81200  -0.80552
 Alpha  occ. eigenvalues --   -0.77507  -0.76847  -0.75001  -0.69199  -0.66895
 Alpha  occ. eigenvalues --   -0.64264  -0.63572  -0.60178  -0.58897  -0.55815
 Alpha  occ. eigenvalues --   -0.54349  -0.52855  -0.49127  -0.48019  -0.47639
 Alpha  occ. eigenvalues --   -0.46599  -0.46417  -0.45846  -0.45010  -0.43866
 Alpha  occ. eigenvalues --   -0.43817  -0.43136  -0.42389  -0.41796  -0.41420
 Alpha  occ. eigenvalues --   -0.39994  -0.39659  -0.38380  -0.38082  -0.36538
 Alpha  occ. eigenvalues --   -0.36123  -0.36012  -0.34372  -0.34076  -0.33404
 Alpha  occ. eigenvalues --   -0.33304  -0.33018  -0.32874  -0.29745  -0.26872
 Alpha  occ. eigenvalues --   -0.24577  -0.24450  -0.22418
 Alpha virt. eigenvalues --   -0.06820   0.03299   0.03506   0.08740   0.08894
 Alpha virt. eigenvalues --    0.10868   0.10941   0.12675   0.12774   0.13998
 Alpha virt. eigenvalues --    0.14300   0.14441   0.14579   0.15620   0.15882

 Mulliken charges:
               1
     1  C    0.699497
     2  O   -0.468626
     3  N   -0.283257
     4  N   -0.281336
     5  C    0.700318
     6  O   -0.468368
     7  N   -0.399726
     8  C   -0.151037
     9  C   -0.262855
    10  C   -0.269407
    11  C   -0.261410
    12  C   -0.154963
    13  N   -0.403286
    14  C   -0.148342
    15  C   -0.264499
    16  C   -0.269359
    17  C   -0.263861
    18  C   -0.149545
    19  H    0.190368
    20  H    0.146447
    21  H    0.149482
    22  H    0.141517
    23  H    0.142606
    24  H    0.131670
    25  H    0.151139
    26  H    0.143830
    27  H    0.208232
    28  H    0.144677
    29  H    0.190549
    30  H    0.147457
    31  H    0.148261
    32  H    0.142839
    33  H    0.142580
    34  H    0.133102
    35  H    0.147463
    36  H    0.144593
    37  H    0.207471
    38  H    0.145778
 Sum of Mulliken charges =  -0.00000

 Dipole moment (field-independent basis, Debye):
    X=              0.1335    Y=              0.0568    Z=              0.6736  Tot=              0.6891
 Quadrupole moment (field-independent basis, Debye-Ang):
   XX=            -76.4785   YY=           -116.4186   ZZ=           -106.6172
   XY=             -4.7696   XZ=             -0.3046   YZ=             -0.5834

 Summary of Natural Population Analysis:

                                       Natural Population
                Natural  -----------------------------------------------
    Atom  No    Charge         Core      Valence    Rydberg      Total
 -----------------------------------------------------------------------
      C    1    0.79711      1.99934     3.15683    0.04672     5.20289
      O    2   -0.57264      1.99979     6.55431    0.01854     8.57264
      N    3   -0.25251      1.99941     5.22706    0.02603     7.25251
      N    4   -0.24921      1.99941     5.22367    0.02613     7.24921
      C    5    0.79533      1.99934     3.15849    0.04684     5.20467
      O    6   -0.57138      1.99979     6.55304    0.01855     8.57138
      N    7   -0.47011      1.99928     5.45794    0.01289     7.47011
      C    8   -0.25936      1.99932     4.24388    0.01616     6.25936
      C    9   -0.47181      1.99932     4.46117    0.01132     6.47181
      C   10   -0.46554      1.99933     4.45466    0.01155     6.46554
      C   11   -0.47197      1.99932     4.46120    0.01145     6.47197
      C   12   -0.26153      1.99930     4.24592    0.01631     6.26153
      N   13   -0.47109      1.99927     5.45892    0.01290     7.47109
      C   14   -0.25927      1.99932     4.24375    0.01620     6.25927
      C   15   -0.47146      1.99932     4.46074    0.01140     6.47146
      C   16   -0.46524      1.99933     4.45437    0.01154     6.46524
      C   17   -0.47070      1.99932     4.45990    0.01148     6.47070
      C   18   -0.26150      1.99930     4.24608    0.01613     6.26150
      H   19    0.26759      0.00000     0.73035    0.00205     0.73241
      H   20    0.22575      0.00000     0.77220    0.00205     0.77425
      H   21    0.23686      0.00000     0.76125    0.00189     0.76314
      H   22    0.24438      0.00000     0.75449    0.00113     0.75562
      H   23    0.24435      0.00000     0.75454    0.00111     0.75565
      H   24    0.22579      0.00000     0.77227    0.00194     0.77421
      H   25    0.23793      0.00000     0.76008    0.00199     0.76207
      H   26    0.24593      0.00000     0.75295    0.00112     0.75407
      H   27    0.27343      0.00000     0.72415    0.00243     0.72657
      H   28    0.22524      0.00000     0.77258    0.00217     0.77476
      H   29    0.26780      0.00000     0.73017    0.00203     0.73220
      H   30    0.22495      0.00000     0.77304    0.00201     0.77505
      H   31    0.23631      0.00000     0.76181    0.00188     0.76369
      H   32    0.24561      0.00000     0.75326    0.00113     0.75439
      H   33    0.24436      0.00000     0.75453    0.00111     0.75564
      H   34    0.22670      0.00000     0.77136    0.00194     0.77330
      H   35    0.23579      0.00000     0.76214    0.00207     0.76421
      H   36    0.24646      0.00000     0.75245    0.00110     0.75354
      H   37    0.27345      0.00000     0.72412    0.00243     0.72655
      H   38    0.22422      0.00000     0.77351    0.00227     0.77578
 =======================================================================
   * Total *   -0.00000     35.98882    99.63317    0.37801   136.00000

 Normal termination of Gaussian 16 at Sat Aug 22 16:38:11 2020.
