 Gaussian 16, Revision A.03,

 ---------------------------------
 # opt=CalcAll B3LYP/6-31G* scf=qc
 ---------------------------------

 -------------------
 Title Card Required
 -------------------
 Symbolic Z-matrix:
 Charge =  0 Multiplicity = 1

 SCF Done:  E(RB3LYP) =  -605.200760518     a.u. after    9 cycles
 SCF Done:  E(RB3LYP) =  -605.229540403     a.u. after   26 cycles
 SCF Done:  E(RB3LYP) =  -605.240498870     a.u. after   19 cycles
 SCF Done:  E(RB3LYP) =  -605.267003176     a.u. after   19 cycles
 SCF Done:  E(RB3LYP) =  -605.274742743     a.u. after   21 cycles
 SCF Done:  E(RB3LYP) =  -605.277398301     a.u. after   19 cycles
 SCF Done:  E(RB3LYP) =  -605.279050029     a.u. after   13 cycles
 SCF Done:  E(RB3LYP) =  -605.279298217     a.u. after   13 cycles
 SCF Done:  E(RB3LYP) =  -605.279327605     a.u. after    9 cycles
 SCF Done:  E(RB3LYP) =  -605.279330097     a.u. after    5 cycles
 SCF Done:  E(RB3LYP) =  -605.279330113     a.u. after    2 cycles
 Optimization completed.
    -- Stationary point found.
 Normal termination of Gaussian 16 at Sat Aug 22 18:23:01 2020.

 ----------------------------------------------------------------------
 # freq B3LYP/6-31G* scf=qc volume NMR pop=NPA density=current Geom=All
 Check Guess=Read
 ----------------------------------------------------------------------

 Structure from the checkpoint file:  "azadicarboxylate_6_conf302.chk"
 -------------------
 Title Card Required
 -------------------
 Charge =  0 Multiplicity = 1

 SCF Done:  E(RB3LYP) =  -605.279330113     a.u. after    1 cycles

      1  C    Isotropic =    35.5301   Anisotropy =    81.0161

      2  O    Isotropic =    -2.0178   Anisotropy =   439.3470

      3  N    Isotropic =  -357.3376   Anisotropy =   735.8173

      4  N    Isotropic =  -357.3101   Anisotropy =   735.7899

      5  C    Isotropic =    35.5310   Anisotropy =    81.0199

      6  O    Isotropic =    -2.0139   Anisotropy =   439.3294

      7  N    Isotropic =   164.3551   Anisotropy =    80.6887

      8  C    Isotropic =   156.2145   Anisotropy =    46.0146

      9  C    Isotropic =   156.2408   Anisotropy =    48.9305

     10  N    Isotropic =   164.3628   Anisotropy =    80.6869

     11  C    Isotropic =   156.2155   Anisotropy =    46.0120

     12  C    Isotropic =   156.2416   Anisotropy =    48.9302

     13  H    Isotropic =    29.2317   Anisotropy =     8.0916

     14  H    Isotropic =    29.7882   Anisotropy =     8.1470

     15  H    Isotropic =    29.8634   Anisotropy =     8.5515

     16  H    Isotropic =    28.0473   Anisotropy =     6.4816

     17  H    Isotropic =    29.9319   Anisotropy =     8.7869

     18  H    Isotropic =    29.8738   Anisotropy =     8.2982

     19  H    Isotropic =    29.2321   Anisotropy =     8.0915

     20  H    Isotropic =    29.8636   Anisotropy =     8.5516

     21  H    Isotropic =    29.7884   Anisotropy =     8.1472

     22  H    Isotropic =    28.0474   Anisotropy =     6.4816

     23  H    Isotropic =    29.8738   Anisotropy =     8.2986

     24  H    Isotropic =    29.9321   Anisotropy =     8.7868

  Exact polarizability: 137.976  -6.502  98.264  -1.115  -0.142  63.610
 Approx polarizability: 156.825 -11.148 160.814  -5.915  -0.181  97.925

                      1                      2                      3
                      A                      A                      A
 Frequencies --     22.7117                51.3505                60.6845
 Red. masses --      4.8444                 6.5552                 4.3797
 Frc consts  --      0.0015                 0.0102                 0.0095
 IR Inten    --      9.6761                 0.0000                 9.4483

                      4                      5                      6
                      A                      A                      A
 Frequencies --     71.6005               103.7075               105.0724
 Red. masses --      2.7753                 1.7447                 1.4325
 Frc consts  --      0.0084                 0.0111                 0.0093
 IR Inten    --      0.3656                 0.0000                 0.0370

                      7                      8                      9
                      A                      A                      A
 Frequencies --    109.0906               151.5071               152.3798
 Red. masses --      2.0165                 1.0575                 1.0907
 Frc consts  --      0.0141                 0.0143                 0.0149
 IR Inten    --      0.0000                 0.2718                 0.0000

                     10                     11                     12
                      A                      A                      A
 Frequencies --    196.5941               226.5978               253.0739
 Red. masses --      2.9862                 2.3590                 4.9214
 Frc consts  --      0.0680                 0.0714                 0.1857
 IR Inten    --      0.6016                 0.0000                 0.0000

                     13                     14                     15
                      A                      A                      A
 Frequencies --    261.9371               296.9984               328.3491
 Red. masses --      3.0785                 3.7707                 4.1767
 Frc consts  --      0.1244                 0.1960                 0.2653
 IR Inten    --     11.7878                 0.0000                29.8266

                     16                     17                     18
                      A                      A                      A
 Frequencies --    382.6191               392.7248               461.5211
 Red. masses --      3.1511                 2.5416                 4.5287
 Frc consts  --      0.2718                 0.2310                 0.5683
 IR Inten    --      0.0000                 2.8009                 0.0000

                     19                     20                     21
                      A                      A                      A
 Frequencies --    581.5805               582.5892               599.3009
 Red. masses --      9.5716                 7.1897                 6.7316
 Frc consts  --      1.9074                 1.4378                 1.4245
 IR Inten    --      0.0026                26.2791                 8.2742

                     22                     23                     24
                      A                      A                      A
 Frequencies --    695.2067               771.3863               799.2457
 Red. masses --      5.9246                 7.4610                11.3883
 Frc consts  --      1.6871                 2.6157                 4.2862
 IR Inten    --      0.0000                 7.9990                20.7401

                     25                     26                     27
                      A                      A                      A
 Frequencies --    923.4962               997.6698              1003.5598
 Red. masses --      6.2766                 4.7009                 3.0348
 Frc consts  --      3.1539                 2.7568                 1.8008
 IR Inten    --      0.0000                 0.0000                13.4386

                     28                     29                     30
                      A                      A                      A
 Frequencies --   1093.9989              1094.1896              1138.8060
 Red. masses --      1.3831                 1.3883                 1.2195
 Frc consts  --      0.9753                 0.9793                 0.9318
 IR Inten    --     11.9773                 0.0052                 0.0001

                     31                     32                     33
                      A                      A                      A
 Frequencies --   1138.9009              1162.6469              1174.5537
 Red. masses --      1.2187                 2.1501                 2.4310
 Frc consts  --      0.9314                 1.7124                 1.9759
 IR Inten    --      0.3631                 0.0001               415.8686

                     34                     35                     36
                      A                      A                      A
 Frequencies --   1189.2597              1189.4789              1291.3122
 Red. masses --      1.3688                 1.3910                 5.7899
 Frc consts  --      1.1407                 1.1596                 5.6883
 IR Inten    --      0.0002                21.5028               133.5230

                     37                     38                     39
                      A                      A                      A
 Frequencies --   1293.0807              1445.9577              1452.3373
 Red. masses --      5.5932                 2.8317                 2.7542
 Frc consts  --      5.5102                 3.4883                 3.4228
 IR Inten    --      0.0002               359.2276                 0.0006

                     40                     41                     42
                      A                      A                      A
 Frequencies --   1458.5909              1458.6175              1493.7158
 Red. masses --      1.1530                 1.1603                 1.1803
 Frc consts  --      1.4452                 1.4544                 1.5516
 IR Inten    --     16.3535                 0.0554                22.4924

                     43                     44                     45
                      A                      A                      A
 Frequencies --   1494.8817              1513.8457              1513.8590
 Red. masses --      1.1968                 1.0462                 1.0449
 Frc consts  --      1.5757                 1.4127                 1.4109
 IR Inten    --      0.0008                 0.4466                 3.9998

                     46                     47                     48
                      A                      A                      A
 Frequencies --   1527.1737              1527.3271              1529.1916
 Red. masses --      1.0482                 1.0489                 1.0465
 Frc consts  --      1.4404                 1.4416                 1.4419
 IR Inten    --      0.0021                28.7375                 0.0010

                     49                     50                     51
                      A                      A                      A
 Frequencies --   1529.3583              1563.6915              1564.9371
 Red. masses --      1.0458                 1.2511                 1.2403
 Frc consts  --      1.4412                 1.8024                 1.7897
 IR Inten    --     33.7793                 0.0002                58.3817

                     52                     53                     54
                      A                      A                      A
 Frequencies --   1656.5748              1783.8663              1804.8351
 Red. masses --     13.0585                10.6258                10.8335
 Frc consts  --     21.1138                19.9221                20.7920
 IR Inten    --      0.0000                 0.0001               772.1099

                     55                     56                     57
                      A                      A                      A
 Frequencies --   3035.9355              3035.9367              3041.9892
 Red. masses --      1.0382                 1.0381                 1.0388
 Frc consts  --      5.6376                 5.6376                 5.6638
 IR Inten    --     42.7943                 2.7833               168.6936

                     58                     59                     60
                      A                      A                      A
 Frequencies --   3042.6434              3088.3280              3088.4628
 Red. masses --      1.0389                 1.1041                 1.1042
 Frc consts  --      5.6665                 6.2047                 6.2055
 IR Inten    --      0.0000                 0.0013               120.1652

                     61                     62                     63
                      A                      A                      A
 Frequencies --   3091.1697              3091.1879              3176.7099
 Red. masses --      1.1052                 1.1052                 1.0983
 Frc consts  --      6.2224                 6.2224                 6.5303
 IR Inten    --      4.2566                 0.0023                 8.3620

                     64                     65                     66
                      A                      A                      A
 Frequencies --   3177.0092              3187.6199              3187.6336
 Red. masses --      1.0984                 1.0975                 1.0975
 Frc consts  --      6.5321                 6.5702                 6.5702
 IR Inten    --      0.0022                 1.5353                 0.2518

 - Thermochemistry -
 -------------------
 Temperature   298.150 Kelvin.  Pressure   1.00000 Atm.
 Atom     1 has atomic number  6 and mass  12.00000

 Molecular mass:   172.09603 amu.
 Principal axes and moments of inertia in atomic units:
                           1         2         3
     Eigenvalues --   831.694573959.666364689.56388
           X            0.99974  -0.02270   0.00376
           Y            0.02268   0.99972   0.00616
           Z           -0.00390  -0.00607   0.99997
 This molecule is an asymmetric top.
 Rotational symmetry number  1.
 Warning -- assumption of classical behavior for rotation
           may cause significant error
 Rotational temperatures (Kelvin)      0.10414     0.02187     0.01847
 Rotational constants (GHZ):           2.16996     0.45578     0.38484
 Zero-point vibrational energy     513868.9 (Joules/Mol)
                                  122.81761 (Kcal/Mol)
 Warning -- explicit consideration of  21 degrees of freedom as
           vibrations may cause significant error
 Vibrational temperatures:     32.68    73.88    87.31   103.02   149.21
          (Kelvin)            151.18   156.96   217.98   219.24   282.86
                              326.02   364.12   376.87   427.31   472.42
                              550.50   565.04   664.03   836.76   838.22
                              862.26  1000.25  1109.85  1149.94  1328.70
                             1435.42  1443.90  1574.02  1574.29  1638.49
                             1638.62  1672.79  1689.92  1711.08  1711.39
                             1857.91  1860.45  2080.41  2089.59  2098.59
                             2098.63  2149.12  2150.80  2178.09  2178.11
                             2197.26  2197.48  2200.17  2200.41  2249.80
                             2251.60  2383.44  2566.59  2596.76  4368.03
                             4368.04  4376.74  4377.69  4443.42  4443.61
                             4447.50  4447.53  4570.58  4571.01  4586.27
                             4586.29

 Zero-point correction=                           0.195722 (Hartree/Particle)
 Thermal correction to Energy=                    0.210246
 Thermal correction to Enthalpy=                  0.211190
 Thermal correction to Gibbs Free Energy=         0.152512
 Sum of electronic and zero-point Energies=           -605.083608
 Sum of electronic and thermal Energies=              -605.069084
 Sum of electronic and thermal Enthalpies=            -605.068140
 Sum of electronic and thermal Free Energies=         -605.126818

                     E (Thermal)             CV                S
                      KCal/Mol        Cal/Mol-Kelvin    Cal/Mol-Kelvin
 Total                  131.931             48.237            123.499
 Electronic               0.000              0.000              0.000
 Translational            0.889              2.981             41.336
 Rotational               0.889              2.981             31.113
 Vibrational            130.154             42.275             51.049
 Vibration     1          0.593              1.985              6.382
 Vibration     2          0.596              1.977              4.765
 Vibration     3          0.597              1.973              4.435
 Vibration     4          0.598              1.968              4.109
 Vibration     5          0.605              1.946              3.383
 Vibration     6          0.605              1.945              3.358
 Vibration     7          0.606              1.942              3.285
 Vibration     8          0.619              1.901              2.653
 Vibration     9          0.619              1.900              2.642
 Vibration    10          0.636              1.845              2.165
 Vibration    11          0.650              1.800              1.906
 Vibration    12          0.664              1.758              1.709
 Vibration    13          0.669              1.742              1.649
 Vibration    14          0.691              1.679              1.434
 Vibration    15          0.712              1.619              1.268
 Vibration    16          0.752              1.507              1.029
 Vibration    17          0.760              1.486              0.990
 Vibration    18          0.819              1.335              0.762
 Vibration    19          0.938              1.071              0.482
 Vibration    20          0.939              1.069              0.481
 Vibration    21          0.957              1.033              0.451

 Optimization completed.
    -- Stationary point found.
 Normal termination of Gaussian 16 at Sat Aug 22 18:27:44 2020.
 Gaussian 16:  ES64L-G16RevA.03 25-Dec-2016

 ----------------------------------------------------------------------
 # TD(NStates=10, Root=1) B3LYP/6-31G* scf=qc volume pop=NPA density=cu
 rrent Geom=AllCheck Guess=Read
 ----------------------------------------------------------------------

 Structure from the checkpoint file:  "azadicarboxylate_6_conf303.chk"
 -------------------
 Title Card Required
 -------------------
 Charge =  0 Multiplicity = 1

                         Standard orientation:
 ---------------------------------------------------------------------
 Center     Atomic      Atomic             Coordinates (Angstroms)
 Number     Number       Type             X           Y           Z
 ---------------------------------------------------------------------
      1          6           0        1.671581    0.634922   -0.144104
      2          8           0        1.697891    1.853578   -0.094242
      3          7           0        0.413790   -0.042280   -0.462271
      4          7           0       -0.413718    0.042385    0.461959
      5          6           0       -1.671493   -0.634863    0.143781
      6          8           0       -1.697679   -1.853502    0.093425
      7          7           0       -2.732673    0.205539    0.052191
      8          6           0       -2.615976    1.658471    0.070966
      9          6           0       -4.059250   -0.351716   -0.166320
     10          7           0        2.732624   -0.205575   -0.051953
     11          6           0        2.615733   -1.658496   -0.070212
     12          6           0        4.059241    0.351589    0.166524
     13          1           0       -1.596096    1.956163    0.314857
     14          1           0       -3.295060    2.075893    0.824477
     15          1           0       -2.881810    2.079964   -0.907438
     16          1           0       -3.988116   -1.438753   -0.143646
     17          1           0       -4.456240   -0.032284   -1.138429
     18          1           0       -4.744972   -0.011008    0.619481
     19          1           0        1.595855   -1.956158   -0.314154
     20          1           0        2.881367   -2.079666    0.908385
     21          1           0        3.294866   -2.076291   -0.823475
     22          1           0        3.988235    1.438628    0.143485
     23          1           0        4.745019    0.010548   -0.619085
     24          1           0        4.456077    0.032430    1.138785
 ---------------------------------------------------------------------

 SCF Done:  E(RB3LYP) =  -605.279330113     a.u. after    1 cycles

 Excitation energies and oscillator strengths:

 Excited State   1:      Singlet-A      2.6051 eV  475.93 nm  f=0.0000  <S**2>=0.000
      46 -> 47         0.69816
 This state for optimization and/or second-order correction.
 Total Energy, E(TD-HF/TD-DFT) =  -605.183594582
 Copying the excited state density for this state as the 1-particle RhoCI density.

 Excited State   2:      Singlet-A      3.8805 eV  319.50 nm  f=0.0000  <S**2>=0.000
      44 -> 47         0.70054

 Excited State   3:      Singlet-A      3.8876 eV  318.93 nm  f=0.0066  <S**2>=0.000
      45 -> 47         0.70096

 Excited State   4:      Singlet-A      4.3022 eV  288.19 nm  f=0.0297  <S**2>=0.000
      43 -> 47         0.69233

 Excited State   5:      Singlet-A      4.9901 eV  248.46 nm  f=0.0000  <S**2>=0.000
      42 -> 47         0.68512
      46 -> 49         0.11428

 Excited State   6:      Singlet-A      5.8216 eV  212.97 nm  f=0.0481  <S**2>=0.000
      43 -> 49        -0.19005
      46 -> 48         0.67020

 Excited State   7:      Singlet-A      5.8918 eV  210.43 nm  f=0.0000  <S**2>=0.000
      42 -> 47        -0.12997
      43 -> 48        -0.19847
      46 -> 49         0.65627

 Excited State   8:      Singlet-A      6.7260 eV  184.34 nm  f=0.1197  <S**2>=0.000
      40 -> 47        -0.19302
      41 -> 47         0.63173
      43 -> 49         0.15765
      44 -> 48        -0.10200

 Excited State   9:      Singlet-A      6.9080 eV  179.48 nm  f=0.0000  <S**2>=0.000
      39 -> 47         0.11077
      42 -> 49        -0.26187
      43 -> 48         0.57985
      44 -> 49        -0.12036
      45 -> 48        -0.12294
      46 -> 49         0.22123

 Excited State  10:      Singlet-A      6.9234 eV  179.08 nm  f=0.0078  <S**2>=0.000
      41 -> 47        -0.13234
      42 -> 48        -0.26505
      43 -> 49         0.55563
      45 -> 49        -0.21786
      46 -> 48         0.20273

 The electronic state is 1-A.
 Alpha  occ. eigenvalues --  -19.12473 -19.12472 -14.40716 -14.40665 -14.37974
 Alpha  occ. eigenvalues --  -14.37974 -10.31285 -10.31285 -10.22755 -10.22755
 Alpha  occ. eigenvalues --  -10.22269 -10.22269  -1.08632  -1.05002  -1.01178
 Alpha  occ. eigenvalues --   -0.94986  -0.94815  -0.77930  -0.73450  -0.72911
 Alpha  occ. eigenvalues --   -0.71230  -0.67431  -0.57924  -0.54610  -0.52852
 Alpha  occ. eigenvalues --   -0.50074  -0.48674  -0.48407  -0.47426  -0.46757
 Alpha  occ. eigenvalues --   -0.43297  -0.43266  -0.41278  -0.41278  -0.41160
 Alpha  occ. eigenvalues --   -0.41065  -0.41060  -0.39430  -0.38280  -0.38166
 Alpha  occ. eigenvalues --   -0.35963  -0.30281  -0.27252  -0.25248  -0.25173
 Alpha  occ. eigenvalues --   -0.22806
 Alpha virt. eigenvalues --   -0.07391   0.03339   0.03374   0.08944   0.09049
 Alpha virt. eigenvalues --    0.13444   0.13519   0.14158   0.14254   0.14813
 Alpha virt. eigenvalues --    0.15113   0.15657   0.15667   0.16954   0.17003

 Mulliken charges:
               1
     1  C    0.704215
     2  O   -0.463688
     3  N   -0.277714
     4  N   -0.277730
     5  C    0.704242
     6  O   -0.463698
     7  N   -0.386814
     8  C   -0.322030
     9  C   -0.320153
    10  N   -0.386792
    11  C   -0.322040
    12  C   -0.320154
    13  H    0.219711
    14  H    0.158812
    15  H    0.160689
    16  H    0.203668
    17  H    0.162314
    18  H    0.160977
    19  H    0.219723
    20  H    0.160687
    21  H    0.158813
    22  H    0.203668
    23  H    0.160980
    24  H    0.162313
 Sum of Mulliken charges =   0.00000

 Dipole moment (field-independent basis, Debye):
    X=             -0.0003    Y=             -0.0002    Z=              0.0016  Tot=              0.0017
 Quadrupole moment (field-independent basis, Debye-Ang):
   XX=            -46.6831   YY=            -77.3293   ZZ=            -70.9912
   XY=            -10.5421   XZ=              1.1215   YZ=              0.4904

 Summary of Natural Population Analysis:

                                       Natural Population
                Natural  -----------------------------------------------
    Atom  No    Charge         Core      Valence    Rydberg      Total
 -----------------------------------------------------------------------
      C    1    0.79151      1.99935     3.16275    0.04640     5.20849
      O    2   -0.56890      1.99979     6.55041    0.01871     8.56890
      N    3   -0.24641      1.99941     5.22069    0.02631     7.24641
      N    4   -0.24644      1.99941     5.22071    0.02631     7.24644
      C    5    0.79149      1.99935     3.16276    0.04640     5.20851
      O    6   -0.56891      1.99979     6.55042    0.01871     8.56891
      N    7   -0.45844      1.99930     5.44839    0.01076     7.45844
      C    8   -0.47244      1.99945     4.46122    0.01177     6.47244
      C    9   -0.47032      1.99947     4.45889    0.01196     6.47032
      N   10   -0.45844      1.99930     5.44839    0.01076     7.45844
      C   11   -0.47244      1.99945     4.46122    0.01177     6.47244
      C   12   -0.47032      1.99947     4.45890    0.01196     6.47032
      H   13    0.26602      0.00000     0.73208    0.00190     0.73398
      H   14    0.22548      0.00000     0.77316    0.00135     0.77452
      H   15    0.22334      0.00000     0.77511    0.00155     0.77666
      H   16    0.26036      0.00000     0.73793    0.00171     0.73964
      H   17    0.22449      0.00000     0.77424    0.00127     0.77551
      H   18    0.22533      0.00000     0.77339    0.00128     0.77467
      H   19    0.26602      0.00000     0.73208    0.00190     0.73398
      H   20    0.22334      0.00000     0.77511    0.00155     0.77666
      H   21    0.22548      0.00000     0.77316    0.00135     0.77452
      H   22    0.26036      0.00000     0.73793    0.00171     0.73964
      H   23    0.22533      0.00000     0.77339    0.00128     0.77467
      H   24    0.22449      0.00000     0.77424    0.00127     0.77551
 =======================================================================
   * Total *   -0.00000     23.99350    67.73657    0.26992    92.00000

 Normal termination of Gaussian 16 at Sat Aug 22 18:33:23 2020.
