 Gaussian 16, Revision A.03,

 ---------------------------------
 # opt=CalcAll B3LYP/6-31G* scf=qc
 ---------------------------------

 -------------------
 Title Card Required
 -------------------
 Symbolic Z-matrix:
 Charge =  0 Multiplicity = 1

 SCF Done:  E(RB3LYP) =  -838.711103165     a.u. after   10 cycles
 SCF Done:  E(RB3LYP) =  -838.722575141     a.u. after   21 cycles
 SCF Done:  E(RB3LYP) =  -838.747686569     a.u. after   17 cycles
 SCF Done:  E(RB3LYP) =  -838.758515387     a.u. after   21 cycles
 SCF Done:  E(RB3LYP) =  -838.762568998     a.u. after   15 cycles
 SCF Done:  E(RB3LYP) =  -838.763242672     a.u. after   17 cycles
 SCF Done:  E(RB3LYP) =  -838.763309392     a.u. after   13 cycles
 SCF Done:  E(RB3LYP) =  -838.763354788     a.u. after    9 cycles
 SCF Done:  E(RB3LYP) =  -838.763356129     a.u. after    3 cycles
 SCF Done:  E(RB3LYP) =  -838.763356560     a.u. after    3 cycles
 SCF Done:  E(RB3LYP) =  -838.763356574     a.u. after    2 cycles
 Optimization completed.
    -- Stationary point found.
 Normal termination of Gaussian 16 at Sat Aug 22 17:31:28 2020.

 ----------------------------------------------------------------------
 # freq B3LYP/6-31G* scf=qc volume NMR pop=NPA density=current Geom=All
 Check Guess=Read
 ----------------------------------------------------------------------

 Structure from the checkpoint file:  "azadicarboxylate_5_conf252.chk"
 -------------------
 Title Card Required
 -------------------
 Charge =  0 Multiplicity = 1

 SCF Done:  E(RB3LYP) =  -838.763356574     a.u. after    1 cycles

      1  C    Isotropic =    35.9341   Anisotropy =    76.3433

      2  O    Isotropic =     1.9080   Anisotropy =   441.3772

      3  N    Isotropic =  -348.7693   Anisotropy =   720.0007

      4  N    Isotropic =  -348.7719   Anisotropy =   720.0037

      5  C    Isotropic =    35.9340   Anisotropy =    76.3429

      6  O    Isotropic =     1.9077   Anisotropy =   441.3802

      7  N    Isotropic =   148.1943   Anisotropy =    64.2666

      8  C    Isotropic =   146.6500   Anisotropy =    26.1020

      9  C    Isotropic =   162.9815   Anisotropy =     7.0029

     10  C    Isotropic =   164.1210   Anisotropy =     3.8414

     11  C    Isotropic =   163.2844   Anisotropy =     5.5674

     12  C    Isotropic =   145.5258   Anisotropy =    25.3974

     13  N    Isotropic =   148.1939   Anisotropy =    64.2670

     14  C    Isotropic =   145.5257   Anisotropy =    25.3974

     15  C    Isotropic =   163.2843   Anisotropy =     5.5674

     16  C    Isotropic =   164.1210   Anisotropy =     3.8414

     17  C    Isotropic =   162.9815   Anisotropy =     7.0029

     18  C    Isotropic =   146.6499   Anisotropy =    26.1020

     19  H    Isotropic =    27.8332   Anisotropy =     6.0937

     20  H    Isotropic =    29.5331   Anisotropy =     7.9739

     21  H    Isotropic =    30.5960   Anisotropy =     7.0948

     22  H    Isotropic =    30.7209   Anisotropy =     9.4681

     23  H    Isotropic =    30.4386   Anisotropy =     9.5519

     24  H    Isotropic =    30.6786   Anisotropy =     7.8723

     25  H    Isotropic =    30.7345   Anisotropy =     7.2994

     26  H    Isotropic =    30.8577   Anisotropy =     9.2399

     27  H    Isotropic =    28.9981   Anisotropy =     8.1198

     28  H    Isotropic =    29.3698   Anisotropy =     7.2256

     29  H    Isotropic =    28.9981   Anisotropy =     8.1197

     30  H    Isotropic =    29.3698   Anisotropy =     7.2256

     31  H    Isotropic =    30.7345   Anisotropy =     7.2994

     32  H    Isotropic =    30.8577   Anisotropy =     9.2399

     33  H    Isotropic =    30.4386   Anisotropy =     9.5519

     34  H    Isotropic =    30.6786   Anisotropy =     7.8723

     35  H    Isotropic =    30.5960   Anisotropy =     7.0948

     36  H    Isotropic =    30.7209   Anisotropy =     9.4681

     37  H    Isotropic =    27.8331   Anisotropy =     6.0937

     38  H    Isotropic =    29.5331   Anisotropy =     7.9739

  Exact polarizability: 207.011   1.032 150.812  -7.112  -4.152 116.377
 Approx polarizability: 236.797   6.079 236.508 -20.864 -11.379 187.181

                      1                      2                      3
                      A                      A                      A
 Frequencies --     14.7050                30.1400                34.5715
 Red. masses --      4.7169                 4.4090                 4.4483
 Frc consts  --      0.0006                 0.0024                 0.0031
 IR Inten    --      3.1068                 0.0000                 2.4636

                      4                      5                      6
                      A                      A                      A
 Frequencies --     45.7094                60.8046                63.0381
 Red. masses --      3.8464                 4.3159                 5.9163
 Frc consts  --      0.0047                 0.0094                 0.0139
 IR Inten    --      3.6959                 2.7537                 0.0000

                      7                      8                      9
                      A                      A                      A
 Frequencies --     83.4195               173.6037               188.3208
 Red. masses --      4.5731                 3.1724                 2.7597
 Frc consts  --      0.0187                 0.0563                 0.0577
 IR Inten    --      0.0000                 0.0000                 9.5151

                     10                     11                     12
                      A                      A                      A
 Frequencies --    201.6056               219.7672               264.6188
 Red. masses --      8.3564                 4.1936                 2.2092
 Frc consts  --      0.2001                 0.1193                 0.0911
 IR Inten    --      2.9026                 0.0000                 3.5912

                     13                     14                     15
                      A                      A                      A
 Frequencies --    270.0499               304.5709               330.5964
 Red. masses --      2.5937                 2.6028                 2.8010
 Frc consts  --      0.1114                 0.1423                 0.1804
 IR Inten    --      0.0000                 0.0000                22.5822

                     16                     17                     18
                      A                      A                      A
 Frequencies --    361.6335               386.9884               406.6988
 Red. masses --      5.8095                 4.6908                 1.7766
 Frc consts  --      0.4476                 0.4139                 0.1731
 IR Inten    --      0.0000                 2.6181                 0.0000

                     19                     20                     21
                      A                      A                      A
 Frequencies --    406.8994               444.4258               450.8535
 Red. masses --      1.8104                 3.0919                 2.9347
 Frc consts  --      0.1766                 0.3598                 0.3515
 IR Inten    --      4.6668                 0.0000                 1.0589

                     22                     23                     24
                      A                      A                      A
 Frequencies --    476.2714               530.6721               553.6335
 Red. masses --      3.8157                 2.0349                 1.9052
 Frc consts  --      0.5100                 0.3376                 0.3441
 IR Inten    --      0.0000                 9.3491                 0.0000

                     25                     26                     27
                      A                      A                      A
 Frequencies --    575.5238               579.2819               623.4692
 Red. masses --      6.1383                 7.9395                 3.4578
 Frc consts  --      1.1979                 1.5697                 0.7919
 IR Inten    --     22.0760                 0.0000                13.1023

                     28                     29                     30
                      A                      A                      A
 Frequencies --    690.5941               747.9018               794.8815
 Red. masses --      3.9106                 5.6228                11.4598
 Frc consts  --      1.0988                 1.8531                 4.2661
 IR Inten    --      0.0000                 2.7042                21.4614

                     31                     32                     33
                      A                      A                      A
 Frequencies --    824.9354               825.4310               832.8548
 Red. masses --      1.5307                 1.4986                 3.1305
 Frc consts  --      0.6137                 0.6016                 1.2794
 IR Inten    --      0.0000                 0.4489                 0.0000

                     34                     35                     36
                      A                      A                      A
 Frequencies --    841.1336               869.4306               869.6325
 Red. masses --      3.0329                 1.4411                 1.4071
 Frc consts  --      1.2643                 0.6418                 0.6270
 IR Inten    --      2.7446                 0.0000                17.4987

                     37                     38                     39
                      A                      A                      A
 Frequencies --    889.7283               908.7128               920.7000
 Red. masses --      3.1956                 2.4928                 3.1575
 Frc consts  --      1.4905                 1.2128                 1.5770
 IR Inten    --      0.0000                 7.4873                 0.0000

                     40                     41                     42
                      A                      A                      A
 Frequencies --    970.9368               978.3142               979.5817
 Red. masses --      2.6623                 1.4959                 1.3653
 Frc consts  --      1.4787                 0.8436                 0.7719
 IR Inten    --      4.6781                 0.0000                 5.0772

                     43                     44                     45
                      A                      A                      A
 Frequencies --    981.7507              1037.9083              1040.7388
 Red. masses --      2.9044                 2.8133                 2.5469
 Frc consts  --      1.6493                 1.7856                 1.6253
 IR Inten    --      0.0000                 0.0000                87.4246

                     46                     47                     48
                      A                      A                      A
 Frequencies --   1046.8817              1052.5529              1083.3371
 Red. masses --      2.1589                 2.2562                 1.7198
 Frc consts  --      1.3940                 1.4727                 1.1892
 IR Inten    --      0.0000                 4.0683                 0.0000

                     49                     50                     51
                      A                      A                      A
 Frequencies --   1083.4034              1154.3461              1156.9480
 Red. masses --      1.7245                 2.1578                 2.0747
 Frc consts  --      1.1926                 1.6941                 1.6362
 IR Inten    --      0.5590                 0.0000                14.7572

                     52                     53                     54
                      A                      A                      A
 Frequencies --   1170.8046              1173.4006              1196.8905
 Red. masses --      1.8936                 2.0376                 1.2614
 Frc consts  --      1.5293                 1.6529                 1.0646
 IR Inten    --      0.0000                93.5755                 0.0000

                     55                     56                     57
                      A                      A                      A
 Frequencies --   1196.9612              1261.1370              1261.8769
 Red. masses --      1.2637                 1.8060                 1.7934
 Frc consts  --      1.0667                 1.6923                 1.6826
 IR Inten    --      2.5061                 0.0000               264.5858

                     58                     59                     60
                      A                      A                      A
 Frequencies --   1287.0360              1291.8444              1300.4004
 Red. masses --      2.2563                 1.8775                 1.2554
 Frc consts  --      2.2021                 1.8460                 1.2508
 IR Inten    --    289.3068                 0.0000                23.7197

                     61                     62                     63
                      A                      A                      A
 Frequencies --   1302.1599              1323.3977              1323.5362
 Red. masses --      1.3283                 1.2119                 1.2256
 Frc consts  --      1.3270                 1.2505                 1.2650
 IR Inten    --      0.0000                50.0520                 0.0001

                     64                     65                     66
                      A                      A                      A
 Frequencies --   1371.0504              1371.0767              1398.0857
 Red. masses --      1.2814                 1.2812                 1.3675
 Frc consts  --      1.4191                 1.4191                 1.5749
 IR Inten    --      0.0000                 0.0806                 0.0001

                     67                     68                     69
                      A                      A                      A
 Frequencies --   1398.0966              1400.5092              1400.5225
 Red. masses --      1.3599                 1.4619                 1.4788
 Frc consts  --      1.5661                 1.6894                 1.7090
 IR Inten    --      4.1239                 0.0000                 4.2899

                     70                     71                     72
                      A                      A                      A
 Frequencies --   1403.7041              1403.7701              1421.7421
 Red. masses --      1.4442                 1.4447                 1.3296
 Frc consts  --      1.6766                 1.6773                 1.5834
 IR Inten    --      6.0736                 0.0001                 0.0000

                     73                     74                     75
                      A                      A                      A
 Frequencies --   1422.1007              1482.9990              1486.9951
 Red. masses --      1.3381                 2.9371                 3.0954
 Frc consts  --      1.5944                 3.8058                 4.0326
 IR Inten    --     20.7822               417.7441                 0.0000

                     76                     77                     78
                      A                      A                      A
 Frequencies --   1507.8122              1507.8590              1514.2240
 Red. masses --      1.0956                 1.0978                 1.0860
 Frc consts  --      1.4676                 1.4706                 1.4672
 IR Inten    --      1.8864                 0.0000                11.1222

                     79                     80                     81
                      A                      A                      A
 Frequencies --   1514.2479              1516.9966              1517.0421
 Red. masses --      1.0864                 1.0902                 1.0887
 Frc consts  --      1.4677                 1.4782                 1.4762
 IR Inten    --      0.0000                 0.0000                26.4957

                     82                     83                     84
                      A                      A                      A
 Frequencies --   1523.2887              1523.4219              1535.1264
 Red. masses --      1.0933                 1.0950                 1.1023
 Frc consts  --      1.4947                 1.4973                 1.5305
 IR Inten    --      7.8830                 0.0001                 0.0004

                     85                     86                     87
                      A                      A                      A
 Frequencies --   1535.1799              1645.1960              1775.3773
 Red. masses --      1.0968                13.7278                11.5959
 Frc consts  --      1.5230                21.8921                21.5346
 IR Inten    --      7.9496                 0.0000                 0.0000

                     88                     89                     90
                      A                      A                      A
 Frequencies --   1797.6436              3018.5540              3018.5552
 Red. masses --     11.7391                 1.0729                 1.0729
 Frc consts  --     22.3508                 5.7598                 5.7598
 IR Inten    --    864.9806                 0.4766                23.2985

                     91                     92                     93
                      A                      A                      A
 Frequencies --   3021.2805              3021.4501              3025.3805
 Red. masses --      1.0718                 1.0715                 1.0704
 Frc consts  --      5.7641                 5.7634                 5.7725
 IR Inten    --     52.9258                 0.0000               128.9309

                     94                     95                     96
                      A                      A                      A
 Frequencies --   3025.5999              3046.1645              3046.1684
 Red. masses --      1.0707                 1.0608                 1.0608
 Frc consts  --      5.7750                 5.7993                 5.7993
 IR Inten    --      0.0000                 0.0075                51.6465

                     97                     98                     99
                      A                      A                      A
 Frequencies --   3047.9672              3048.0247              3082.1822
 Red. masses --      1.0616                 1.0616                 1.0933
 Frc consts  --      5.8105                 5.8107                 6.1195
 IR Inten    --      0.0000                36.3234                99.6361

                    100                    101                    102
                      A                      A                      A
 Frequencies --   3082.3196              3089.4692              3089.4748
 Red. masses --      1.0932                 1.1039                 1.1039
 Frc consts  --      6.1196                 6.2078                 6.2078
 IR Inten    --      0.0000                 0.0017                63.1820

                    103                    104                    105
                      A                      A                      A
 Frequencies --   3094.6705              3094.6839              3153.5769
 Red. masses --      1.1050                 1.1050                 1.0925
 Frc consts  --      6.2350                 6.2349                 6.4014
 IR Inten    --    130.3509                 0.0001                11.5483

                    106                    107                    108
                      A                      A                      A
 Frequencies --   3153.9557              3157.4286              3157.4555
 Red. masses --      1.0926                 1.0920                 1.0919
 Frc consts  --      6.4036                 6.4140                 6.4138
 IR Inten    --      0.0000                 7.3702                 0.0011

 - Thermochemistry -
 -------------------
 Temperature   298.150 Kelvin.  Pressure   1.00000 Atm.
 Atom     1 has atomic number  6 and mass  12.00000

 Molecular mass:   252.15863 amu.
 Principal axes and moments of inertia in atomic units:
                           1         2         3
     Eigenvalues --  1678.159029822.33252**********
           X            0.99996   0.00896   0.00215
           Y           -0.00895   0.99994  -0.00595
           Z           -0.00220   0.00593   0.99998
 This molecule is an asymmetric top.
 Rotational symmetry number  1.
 Warning -- assumption of classical behavior for rotation
           may cause significant error
 Rotational temperatures (Kelvin)      0.05161     0.00882     0.00792
 Rotational constants (GHZ):           1.07543     0.18374     0.16494
 Zero-point vibrational energy     864914.3 (Joules/Mol)
                                  206.71949 (Kcal/Mol)
 Warning -- explicit consideration of  26 degrees of freedom as
           vibrations may cause significant error
 Vibrational temperatures:     21.16    43.36    49.74    65.77    87.48
          (Kelvin)             90.70   120.02   249.78   270.95   290.07
                              316.20   380.73   388.54   438.21   475.65
                              520.31   556.79   585.15   585.44   639.43
                              648.68   685.25   763.52   796.56   828.05
                              833.46   897.03   993.61  1076.06  1143.66
                             1186.90  1187.61  1198.29  1210.20  1250.92
                             1251.21  1280.12  1307.43  1324.68  1396.96
                             1407.58  1409.40  1412.52  1493.32  1497.39
                             1506.23  1514.39  1558.68  1558.78  1660.85
                             1664.59  1684.53  1688.26  1722.06  1722.16
                             1814.49  1815.56  1851.76  1858.68  1870.99
                             1873.52  1904.07  1904.27  1972.64  1972.67
                             2011.53  2011.55  2015.02  2015.04  2019.62
                             2019.71  2045.57  2046.09  2133.70  2139.45
                             2169.41  2169.47  2178.63  2178.67  2182.62
                             2182.69  2191.67  2191.86  2208.70  2208.78
                             2367.07  2554.37  2586.41  4343.03  4343.03
                             4346.95  4347.19  4352.85  4353.16  4382.75
                             4382.76  4385.34  4385.43  4434.57  4434.77
                             4445.06  4445.07  4452.54  4452.56  4537.29
                             4537.84  4542.84  4542.87

 Zero-point correction=                           0.329428 (Hartree/Particle)
 Thermal correction to Energy=                    0.346603
 Thermal correction to Enthalpy=                  0.347548
 Thermal correction to Gibbs Free Energy=         0.281218
 Sum of electronic and zero-point Energies=           -838.433928
 Sum of electronic and thermal Energies=              -838.416753
 Sum of electronic and thermal Enthalpies=            -838.415809
 Sum of electronic and thermal Free Energies=         -838.482138

                     E (Thermal)             CV                S
                      KCal/Mol        Cal/Mol-Kelvin    Cal/Mol-Kelvin
 Total                  217.497             64.676            139.601
 Electronic               0.000              0.000              0.000
 Translational            0.889              2.981             42.475
 Rotational               0.889              2.981             33.555
 Vibrational            215.719             58.714             63.571
 Vibration     1          0.593              1.986              7.245
 Vibration     2          0.594              1.984              5.820
 Vibration     3          0.594              1.983              5.548
 Vibration     4          0.595              1.979              4.995
 Vibration     5          0.597              1.973              4.431
 Vibration     6          0.597              1.972              4.360
 Vibration     7          0.600              1.961              3.809
 Vibration     8          0.627              1.875              2.396
 Vibration     9          0.633              1.856              2.244
 Vibration    10          0.638              1.838              2.118
 Vibration    11          0.647              1.811              1.961
 Vibration    12          0.671              1.738              1.631
 Vibration    13          0.674              1.728              1.596
 Vibration    14          0.695              1.665              1.392
 Vibration    15          0.713              1.614              1.257
 Vibration    16          0.736              1.551              1.115
 Vibration    17          0.755              1.498              1.012
 Vibration    18          0.771              1.456              0.938
 Vibration    19          0.772              1.455              0.938
 Vibration    20          0.804              1.373              0.813
 Vibration    21          0.810              1.359              0.793
 Vibration    22          0.833              1.303              0.720
 Vibration    23          0.886              1.182              0.586
 Vibration    24          0.909              1.132              0.537
 Vibration    25          0.932              1.084              0.494
 Vibration    26          0.936              1.076              0.487

 Optimization completed.
    -- Stationary point found.
 Normal termination of Gaussian 16 at Sat Aug 22 17:41:30 2020.
 Gaussian 16:  ES64L-G16RevA.03 25-Dec-2016

 ----------------------------------------------------------------------
 # TD(NStates=10, Root=1) B3LYP/6-31G* scf=qc volume pop=NPA density=cu
 rrent Geom=AllCheck Guess=Read
 ----------------------------------------------------------------------

 Structure from the checkpoint file:  "azadicarboxylate_5_conf253.chk"
 -------------------
 Title Card Required
 -------------------
 Charge =  0 Multiplicity = 1

                         Standard orientation:
 ---------------------------------------------------------------------
 Center     Atomic      Atomic             Coordinates (Angstroms)
 Number     Number       Type             X           Y           Z
 ---------------------------------------------------------------------
      1          6           0        1.414140   -1.072416   -0.250387
      2          8           0        1.213575   -2.226034    0.096010
      3          7           0        0.261237   -0.215305   -0.522429
      4          7           0       -0.261249    0.215327    0.522504
      5          6           0       -1.414156    1.072432    0.250464
      6          8           0       -1.213594    2.226067   -0.095880
      7          7           0       -2.609738    0.500559    0.527424
      8          6           0       -3.840673    1.277483    0.359699
      9          6           0       -4.759020    0.613871   -0.675118
     10          6           0       -5.010590   -0.862003   -0.327135
     11          6           0       -3.685935   -1.617708   -0.136085
     12          6           0       -2.791158   -0.909828    0.890532
     13          7           0        2.609723   -0.500570   -0.527405
     14          6           0        2.791154    0.909799   -0.890577
     15          6           0        3.685969    1.617709    0.135986
     16          6           0        5.010619    0.861993    0.327031
     17          6           0        4.759037   -0.613863    0.675083
     18          6           0        3.840652   -1.277505   -0.359681
     19          1           0       -3.554497    2.287766    0.064877
     20          1           0       -4.349410    1.333620    1.333841
     21          1           0       -4.287607    0.687407   -1.663993
     22          1           0       -5.705250    1.166642   -0.725759
     23          1           0       -5.612482   -1.340759   -1.108672
     24          1           0       -5.597603   -0.920605    0.601623
     25          1           0       -3.147570   -1.676827   -1.091108
     26          1           0       -3.869858   -2.646437    0.196900
     27          1           0       -1.816664   -1.393669    0.966511
     28          1           0       -3.259787   -0.949396    1.885303
     29          1           0        1.816665    1.393650   -0.966550
     30          1           0        3.259757    0.949318   -1.885363
     31          1           0        3.147632    1.676877    1.091021
     32          1           0        3.869898    2.646422   -0.197048
     33          1           0        5.612539    1.340773    1.108532
     34          1           0        5.597607    0.920548   -0.601745
     35          1           0        4.287649   -0.687351    1.663974
     36          1           0        5.705260   -1.166645    0.725722
     37          1           0        3.554470   -2.287772   -0.064810
     38          1           0        4.349362   -1.333689   -1.333835
 ---------------------------------------------------------------------

 SCF Done:  E(RB3LYP) =  -838.763356574     a.u. after    1 cycles

 Excitation energies and oscillator strengths:

 Excited State   1:      Singlet-A      2.6955 eV  459.97 nm  f=0.0000  <S**2>=0.000
      68 -> 69         0.69896
 This state for optimization and/or second-order correction.
 Total Energy, E(TD-HF/TD-DFT) =  -838.664299845
 Copying the excited state density for this state as the 1-particle RhoCI density.

 Excited State   2:      Singlet-A      3.8534 eV  321.75 nm  f=0.0000  <S**2>=0.000
      66 -> 69         0.70263

 Excited State   3:      Singlet-A      3.8604 eV  321.17 nm  f=0.0019  <S**2>=0.000
      67 -> 69         0.70380

 Excited State   4:      Singlet-A      4.4413 eV  279.16 nm  f=0.0495  <S**2>=0.000
      65 -> 69         0.69352

 Excited State   5:      Singlet-A      5.0351 eV  246.24 nm  f=0.0000  <S**2>=0.000
      64 -> 69         0.68249
      68 -> 70         0.12405

 Excited State   6:      Singlet-A      5.7682 eV  214.95 nm  f=0.0444  <S**2>=0.000
      65 -> 70         0.19666
      68 -> 71         0.66695

 Excited State   7:      Singlet-A      5.7965 eV  213.89 nm  f=0.0000  <S**2>=0.000
      64 -> 69        -0.13381
      65 -> 71         0.19205
      68 -> 70         0.65591

 Excited State   8:      Singlet-A      6.4151 eV  193.27 nm  f=0.0063  <S**2>=0.000
      61 -> 69        -0.10978
      63 -> 69         0.68714

 Excited State   9:      Singlet-A      6.4657 eV  191.76 nm  f=0.0000  <S**2>=0.000
      60 -> 69        -0.22740
      62 -> 69         0.66332

 Excited State  10:      Singlet-A      6.5445 eV  189.45 nm  f=0.0000  <S**2>=0.000
      58 -> 69         0.18480
      60 -> 69         0.63410
      62 -> 69         0.23985

 The electronic state is 1-A.
 Alpha  occ. eigenvalues --  -19.12129 -19.12129 -14.40352 -14.40302 -14.37175
 Alpha  occ. eigenvalues --  -14.37175 -10.30905 -10.30904 -10.22693 -10.22693
 Alpha  occ. eigenvalues --  -10.22213 -10.22213 -10.19132 -10.19132 -10.19122
 Alpha  occ. eigenvalues --  -10.19122 -10.19101 -10.19101  -1.08248  -1.04615
 Alpha  occ. eigenvalues --   -1.00813  -0.94930  -0.94773  -0.81161  -0.80510
 Alpha  occ. eigenvalues --   -0.77494  -0.76836  -0.75022  -0.69219  -0.66949
 Alpha  occ. eigenvalues --   -0.64232  -0.63558  -0.60100  -0.59039  -0.56144
 Alpha  occ. eigenvalues --   -0.54220  -0.52701  -0.48948  -0.48159  -0.47661
 Alpha  occ. eigenvalues --   -0.46468  -0.46457  -0.45767  -0.45663  -0.43897
 Alpha  occ. eigenvalues --   -0.43616  -0.42539  -0.42437  -0.41733  -0.41733
 Alpha  occ. eigenvalues --   -0.39968  -0.39670  -0.38274  -0.38194  -0.36644
 Alpha  occ. eigenvalues --   -0.36134  -0.35983  -0.34357  -0.34139  -0.33366
 Alpha  occ. eigenvalues --   -0.33311  -0.32999  -0.32867  -0.29729  -0.26933
 Alpha  occ. eigenvalues --   -0.24518  -0.24480  -0.22530
 Alpha virt. eigenvalues --   -0.06753   0.03271   0.03403   0.08523   0.08998
 Alpha virt. eigenvalues --    0.10826   0.10898   0.12711   0.12763   0.13979
 Alpha virt. eigenvalues --    0.14315   0.14450   0.14570   0.15621   0.15886

 Mulliken charges:
               1
     1  C    0.699265
     2  O   -0.468461
     3  N   -0.283482
     4  N   -0.283480
     5  C    0.699263
     6  O   -0.468460
     7  N   -0.398503
     8  C   -0.151254
     9  C   -0.262972
    10  C   -0.269563
    11  C   -0.261503
    12  C   -0.155207
    13  N   -0.398505
    14  C   -0.155206
    15  C   -0.261503
    16  C   -0.269563
    17  C   -0.262972
    18  C   -0.151254
    19  H    0.190582
    20  H    0.146514
    21  H    0.149953
    22  H    0.141620
    23  H    0.142863
    24  H    0.131596
    25  H    0.151981
    26  H    0.144002
    27  H    0.207988
    28  H    0.144582
    29  H    0.207986
    30  H    0.144582
    31  H    0.151982
    32  H    0.144002
    33  H    0.142863
    34  H    0.131596
    35  H    0.149954
    36  H    0.141620
    37  H    0.190582
    38  H    0.146514
 Sum of Mulliken charges =   0.00000

 Dipole moment (field-independent basis, Debye):
    X=              0.0000    Y=             -0.0001    Z=             -0.0002  Tot=              0.0002
 Quadrupole moment (field-independent basis, Debye-Ang):
   XX=            -77.2912   YY=           -116.7981   ZZ=           -105.9948
   XY=              3.7839   XZ=             -3.0661   YZ=              0.6533

 Summary of Natural Population Analysis:

                                       Natural Population
                Natural  -----------------------------------------------
    Atom  No    Charge         Core      Valence    Rydberg      Total
 -----------------------------------------------------------------------
      C    1    0.79687      1.99934     3.15702    0.04677     5.20313
      O    2   -0.57204      1.99979     6.55373    0.01853     8.57204
      N    3   -0.25233      1.99941     5.22696    0.02596     7.25233
      N    4   -0.25232      1.99941     5.22695    0.02596     7.25232
      C    5    0.79687      1.99934     3.15702    0.04677     5.20313
      O    6   -0.57204      1.99979     6.55373    0.01853     8.57204
      N    7   -0.47012      1.99928     5.45794    0.01290     7.47012
      C    8   -0.25927      1.99932     4.24380    0.01615     6.25927
      C    9   -0.47189      1.99932     4.46124    0.01132     6.47189
      C   10   -0.46563      1.99933     4.45475    0.01155     6.46563
      C   11   -0.47198      1.99932     4.46118    0.01147     6.47198
      C   12   -0.26148      1.99930     4.24580    0.01637     6.26148
      N   13   -0.47012      1.99928     5.45794    0.01290     7.47012
      C   14   -0.26147      1.99930     4.24580    0.01637     6.26147
      C   15   -0.47198      1.99932     4.46118    0.01147     6.47198
      C   16   -0.46563      1.99933     4.45475    0.01155     6.46563
      C   17   -0.47189      1.99932     4.46124    0.01132     6.47189
      C   18   -0.25927      1.99932     4.24380    0.01615     6.25927
      H   19    0.26773      0.00000     0.73020    0.00207     0.73227
      H   20    0.22577      0.00000     0.77219    0.00204     0.77423
      H   21    0.23712      0.00000     0.76099    0.00189     0.76288
      H   22    0.24445      0.00000     0.75443    0.00113     0.75555
      H   23    0.24451      0.00000     0.75438    0.00111     0.75549
      H   24    0.22574      0.00000     0.77232    0.00194     0.77426
      H   25    0.23843      0.00000     0.75957    0.00200     0.76157
      H   26    0.24603      0.00000     0.75286    0.00112     0.75397
      H   27    0.27299      0.00000     0.72451    0.00249     0.72701
      H   28    0.22510      0.00000     0.77273    0.00217     0.77490
      H   29    0.27299      0.00000     0.72451    0.00249     0.72701
      H   30    0.22510      0.00000     0.77273    0.00217     0.77490
      H   31    0.23843      0.00000     0.75957    0.00200     0.76157
      H   32    0.24603      0.00000     0.75286    0.00112     0.75397
      H   33    0.24451      0.00000     0.75438    0.00111     0.75549
      H   34    0.22574      0.00000     0.77232    0.00194     0.77426
      H   35    0.23712      0.00000     0.76099    0.00189     0.76288
      H   36    0.24445      0.00000     0.75443    0.00113     0.75555
      H   37    0.26773      0.00000     0.73020    0.00207     0.73227
      H   38    0.22577      0.00000     0.77219    0.00204     0.77423
 =======================================================================
   * Total *   -0.00000     35.98882    99.63320    0.37798   136.00000

 Normal termination of Gaussian 16 at Sat Aug 22 17:53:37 2020.
