 Gaussian 16, Revision A.03,

 ---------------------------------
 # opt=CalcAll B3LYP/6-31G* scf=qc
 ---------------------------------

 -------------------
 Title Card Required
 -------------------
 Symbolic Z-matrix:
 Charge =  0 Multiplicity = 1

 SCF Done:  E(RB3LYP) =  -802.249003596     a.u. after   10 cycles
 SCF Done:  E(RB3LYP) =  -802.273769529     a.u. after   23 cycles
 SCF Done:  E(RB3LYP) =  -802.280082136     a.u. after   25 cycles
 SCF Done:  E(RB3LYP) =  -802.280730498     a.u. after   17 cycles
 SCF Done:  E(RB3LYP) =  -802.280953865     a.u. after   17 cycles
 SCF Done:  E(RB3LYP) =  -802.280453526     a.u. after   23 cycles
 SCF Done:  E(RB3LYP) =  -802.281107816     a.u. after   19 cycles
 SCF Done:  E(RB3LYP) =  -802.281106944     a.u. after    5 cycles
 SCF Done:  E(RB3LYP) =  -802.281103737     a.u. after   15 cycles
 SCF Done:  E(RB3LYP) =  -802.281142996     a.u. after   11 cycles
 SCF Done:  E(RB3LYP) =  -802.281139547     a.u. after    7 cycles
 SCF Done:  E(RB3LYP) =  -802.281144081     a.u. after    7 cycles
 SCF Done:  E(RB3LYP) =  -802.281144101     a.u. after    2 cycles
 Optimization completed.
    -- Stationary point found.
 Normal termination of Gaussian 16 at Sat Aug 22 14:20:57 2020.

 ----------------------------------------------------------------------
 # freq B3LYP/6-31G* scf=qc volume NMR pop=NPA density=current Geom=All
 Check Guess=Read
 ----------------------------------------------------------------------

 Structure from the checkpoint file:  "azadicarboxylate_1_conf272.chk"
 -------------------
 Title Card Required
 -------------------
 Charge =  0 Multiplicity = 1

 SCF Done:  E(RB3LYP) =  -802.281144101     a.u. after    1 cycles

      1  C    Isotropic =   164.2276   Anisotropy =    35.8387

      2  C    Isotropic =   106.1560   Anisotropy =    74.9702

      3  C    Isotropic =   165.3122   Anisotropy =    35.4399

      4  C    Isotropic =   159.6191   Anisotropy =    41.2006

      5  O    Isotropic =   125.3173   Anisotropy =   128.3461

      6  C    Isotropic =    35.1502   Anisotropy =    79.3209

      7  O    Isotropic =   -24.5272   Anisotropy =   484.7827

      8  N    Isotropic =  -316.5650   Anisotropy =   661.9291

      9  N    Isotropic =  -316.5676   Anisotropy =   661.9347

     10  C    Isotropic =    35.1509   Anisotropy =    79.3130

     11  O    Isotropic =   -24.5200   Anisotropy =   484.7693

     12  O    Isotropic =   125.3173   Anisotropy =   128.3500

     13  C    Isotropic =   106.1550   Anisotropy =    74.9719

     14  C    Isotropic =   165.3123   Anisotropy =    35.4399

     15  C    Isotropic =   159.6191   Anisotropy =    41.2004

     16  C    Isotropic =   164.2269   Anisotropy =    35.8389

     17  H    Isotropic =    31.1121   Anisotropy =     7.8970

     18  H    Isotropic =    30.8320   Anisotropy =     7.3157

     19  H    Isotropic =    29.5434   Anisotropy =     6.3099

     20  H    Isotropic =    31.0637   Anisotropy =     7.7610

     21  H    Isotropic =    29.3931   Anisotropy =     6.6121

     22  H    Isotropic =    30.7937   Anisotropy =     7.3840

     23  H    Isotropic =    31.1368   Anisotropy =     7.5948

     24  H    Isotropic =    30.6735   Anisotropy =     7.2486

     25  H    Isotropic =    30.6800   Anisotropy =     7.4347

     26  H    Isotropic =    30.7937   Anisotropy =     7.3840

     27  H    Isotropic =    29.3932   Anisotropy =     6.6120

     28  H    Isotropic =    31.0637   Anisotropy =     7.7610

     29  H    Isotropic =    30.6735   Anisotropy =     7.2485

     30  H    Isotropic =    31.1368   Anisotropy =     7.5948

     31  H    Isotropic =    30.6800   Anisotropy =     7.4347

     32  H    Isotropic =    29.5434   Anisotropy =     6.3100

     33  H    Isotropic =    30.8319   Anisotropy =     7.3156

     34  H    Isotropic =    31.1121   Anisotropy =     7.8971

  Exact polarizability: 176.979   3.652 120.131  -1.843  -0.272 105.366
 Approx polarizability: 199.616  11.802 195.564  -3.278   0.509 152.424

                      1                      2                      3
                      A                      A                      A
 Frequencies --     11.4635                33.6578                45.0657
 Red. masses --      4.1839                 3.2129                 4.7569
 Frc consts  --      0.0003                 0.0021                 0.0057
 IR Inten    --      2.2151                 0.8423                 2.3995

                      4                      5                      6
                      A                      A                      A
 Frequencies --     54.0476                56.9916               108.2902
 Red. masses --      6.1330                 4.6592                 4.5015
 Frc consts  --      0.0106                 0.0089                 0.0311
 IR Inten    --      0.0000                 0.0000                 1.0509

                      7                      8                      9
                      A                      A                      A
 Frequencies --    111.1059               178.6973               197.9452
 Red. masses --      4.0122                 3.9130                 5.7007
 Frc consts  --      0.0292                 0.0736                 0.1316
 IR Inten    --      0.0000                 0.0000                 4.4138

                     10                     11                     12
                      A                      A                      A
 Frequencies --    198.6339               206.9098               207.1876
 Red. masses --      7.5035                 1.0526                 1.0822
 Frc consts  --      0.1744                 0.0266                 0.0274
 IR Inten    --      0.0000                 0.0000                 0.3519

                     13                     14                     15
                      A                      A                      A
 Frequencies --    211.4456               255.9349               256.6098
 Red. masses --      4.7895                 1.0374                 1.0320
 Frc consts  --      0.1262                 0.0400                 0.0400
 IR Inten    --     14.7975                 0.0000                 0.0895

                     16                     17                     18
                      A                      A                      A
 Frequencies --    268.7611               269.3103               316.5538
 Red. masses --      1.0672                 1.0793                 3.0695
 Frc consts  --      0.0454                 0.0461                 0.1812
 IR Inten    --      0.0000                 0.0924                16.6075

                     19                     20                     21
                      A                      A                      A
 Frequencies --    316.6671               342.9339               352.0025
 Red. masses --      2.9596                 2.7038                 2.5466
 Frc consts  --      0.1749                 0.1873                 0.1859
 IR Inten    --      0.0007                 0.0000                 3.0805

                     22                     23                     24
                      A                      A                      A
 Frequencies --    368.4925               374.6874               427.6610
 Red. masses --      3.0188                 3.9284                 2.7655
 Frc consts  --      0.2415                 0.3249                 0.2980
 IR Inten    --      0.0805                 0.0000                 8.0843

                     25                     26                     27
                      A                      A                      A
 Frequencies --    435.7747               462.8894               465.1141
 Red. masses --      2.8980                 3.6692                 2.7961
 Frc consts  --      0.3242                 0.4632                 0.3564
 IR Inten    --      0.0000                 0.0000                 0.0000

                     28                     29                     30
                      A                      A                      A
 Frequencies --    465.6062               550.1543               604.9089
 Red. masses --      3.1302                 3.7921                 8.2972
 Frc consts  --      0.3998                 0.6762                 1.7888
 IR Inten    --      7.4215                15.2711                 0.0000

                     31                     32                     33
                      A                      A                      A
 Frequencies --    661.8932               745.3486               772.8004
 Red. masses --     10.6111                 5.3582                 4.6316
 Frc consts  --      2.7390                 1.7538                 1.6297
 IR Inten    --     15.8050                 0.0000                12.8735

                     34                     35                     36
                      A                      A                      A
 Frequencies --    815.8468               845.2209               855.2141
 Red. masses --     12.0879                 3.3642                 4.2202
 Frc consts  --      4.7404                 1.4160                 1.8186
 IR Inten    --     33.1750                 0.0000               108.6932

                     37                     38                     39
                      A                      A                      A
 Frequencies --    865.8866               936.8790               936.9598
 Red. masses --      9.1693                 1.6315                 1.6298
 Frc consts  --      4.0505                 0.8438                 0.8430
 IR Inten    --      0.0000                 0.0000                 0.2443

                     40                     41                     42
                      A                      A                      A
 Frequencies --    937.8454               938.8736               971.4173
 Red. masses --      1.6260                 1.6314                 7.9003
 Frc consts  --      0.8426                 0.8473                 4.3924
 IR Inten    --      0.2082                 0.0000                16.8537

                     43                     44                     45
                      A                      A                      A
 Frequencies --    984.5573               984.5807               993.8084
 Red. masses --      1.2010                 1.1992                 9.7829
 Frc consts  --      0.6859                 0.6849                 5.6928
 IR Inten    --      0.0001                 0.2927                 0.0000

                     46                     47                     48
                      A                      A                      A
 Frequencies --   1066.2244              1066.2724              1073.2437
 Red. masses --      1.4087                 1.4091                 1.4581
 Frc consts  --      0.9436                 0.9439                 0.9895
 IR Inten    --      0.8631                 0.0000                 0.0000

                     49                     50                     51
                      A                      A                      A
 Frequencies --   1073.6930              1194.7999              1212.6334
 Red. masses --      1.4648                 2.4749                 2.2395
 Frc consts  --      0.9949                 2.0816                 1.9402
 IR Inten    --      4.8070              1056.1192                 0.0000

                     52                     53                     54
                      A                      A                      A
 Frequencies --   1285.5775              1285.9382              1286.2874
 Red. masses --      4.4757                 2.8112                 2.7573
 Frc consts  --      4.3582                 2.7390                 2.6879
 IR Inten    --    590.3755                 0.0060                45.4969

                     55                     56                     57
                      A                      A                      A
 Frequencies --   1290.3300              1305.0778              1305.3948
 Red. masses --      4.5456                 3.3093                 3.7466
 Frc consts  --      4.4590                 3.3209                 3.7615
 IR Inten    --      0.0004               195.3033                 0.0082

                     58                     59                     60
                      A                      A                      A
 Frequencies --   1427.3002              1427.3037              1430.1134
 Red. masses --      1.2713                 1.2714                 1.2782
 Frc consts  --      1.5259                 1.5260                 1.5402
 IR Inten    --     33.5806                 0.3004                39.5063

                     61                     62                     63
                      A                      A                      A
 Frequencies --   1430.3847              1455.3127              1455.5471
 Red. masses --      1.2804                 1.2312                 1.2309
 Frc consts  --      1.5435                 1.5363                 1.5365
 IR Inten    --      0.0000                24.3837                 0.0003

                     64                     65                     66
                      A                      A                      A
 Frequencies --   1500.1746              1500.1828              1518.7211
 Red. masses --      1.0461                 1.0461                 1.0462
 Frc consts  --      1.3872                 1.3871                 1.4217
 IR Inten    --      0.0001                 0.8132                 0.0001

                     67                     68                     69
                      A                      A                      A
 Frequencies --   1518.7444              1520.2148              1520.3321
 Red. masses --      1.0461                 1.0512                 1.0513
 Frc consts  --      1.4217                 1.4314                 1.4317
 IR Inten    --      0.9385                 0.0000                 1.0591

                     70                     71                     72
                      A                      A                      A
 Frequencies --   1526.0413              1526.2936              1532.2687
 Red. masses --      1.0629                 1.0627                 1.0530
 Frc consts  --      1.4584                 1.4586                 1.4567
 IR Inten    --     24.3064                 0.0000                 2.9665

                     73                     74                     75
                      A                      A                      A
 Frequencies --   1532.3111              1554.2772              1554.3003
 Red. masses --      1.0531                 1.0543                 1.0542
 Frc consts  --      1.4568                 1.5006                 1.5005
 IR Inten    --      0.0000                22.2590                 0.0004

                     76                     77                     78
                      A                      A                      A
 Frequencies --   1649.1342              1828.2086              1841.9666
 Red. masses --     13.9758                12.4540                12.3431
 Frc consts  --     22.3944                24.5252                24.6739
 IR Inten    --      0.0000                 0.0002               540.6574

                     79                     80                     81
                      A                      A                      A
 Frequencies --   3060.3799              3060.3824              3061.4953
 Red. masses --      1.0355                 1.0355                 1.0374
 Frc consts  --      5.7143                 5.7144                 5.7291
 IR Inten    --      0.2506                13.5936                 0.0013

                     82                     83                     84
                      A                      A                      A
 Frequencies --   3061.5119              3068.5051              3068.6076
 Red. masses --      1.0375                 1.0376                 1.0376
 Frc consts  --      5.7291                 5.7563                 5.7565
 IR Inten    --     35.4280                34.6265                 0.0001

                     85                     86                     87
                      A                      A                      A
 Frequencies --   3125.2289              3125.2603              3126.8970
 Red. masses --      1.1025                 1.1025                 1.1025
 Frc consts  --      6.3445                 6.3446                 6.3512
 IR Inten    --      0.0000                14.2111                22.5518

                     88                     89                     90
                      A                      A                      A
 Frequencies --   3126.9312              3138.1959              3138.2676
 Red. masses --      1.1025                 1.1026                 1.1025
 Frc consts  --      6.3513                 6.3976                 6.3977
 IR Inten    --      0.0007                82.7181                 0.0006

                     91                     92                     93
                      A                      A                      A
 Frequencies --   3139.9397              3139.9599              3164.8537
 Red. masses --      1.1034                 1.1034                 1.1011
 Frc consts  --      6.4096                 6.4098                 6.4980
 IR Inten    --      0.0093                48.3145                 2.1292

                     94                     95                     96
                      A                      A                      A
 Frequencies --   3164.8545              3167.9048              3167.9199
 Red. masses --      1.1011                 1.1004                 1.1004
 Frc consts  --      6.4980                 6.5064                 6.5064
 IR Inten    --      0.3206                26.4788                 0.0103

 - Thermochemistry -
 -------------------
 Temperature   298.150 Kelvin.  Pressure   1.00000 Atm.
 Atom     1 has atomic number  6 and mass  12.00000

 Molecular mass:   230.12666 amu.
 Principal axes and moments of inertia in atomic units:
                           1         2         3
     Eigenvalues --  1299.142699365.569009805.01525
           X            0.99997  -0.00727   0.00123
           Y            0.00727   0.99997  -0.00364
           Z           -0.00120   0.00365   0.99999
 This molecule is an asymmetric top.
 Rotational symmetry number  1.
 Warning -- assumption of classical behavior for rotation
           may cause significant error
 Rotational temperatures (Kelvin)      0.06667     0.00925     0.00883
 Rotational constants (GHZ):           1.38918     0.19270     0.18406
 Zero-point vibrational energy     742906.9 (Joules/Mol)
                                  177.55901 (Kcal/Mol)
 Warning -- explicit consideration of  30 degrees of freedom as
           vibrations may cause significant error
 Vibrational temperatures:     16.49    48.43    64.84    77.76    82.00
          (Kelvin)            155.81   159.86   257.11   284.80   285.79
                              297.70   298.10   304.22   368.23   369.20
                              386.69   387.48   455.45   455.61   493.41
                              506.45   530.18   539.09   615.31   626.98
                              665.99   669.20   669.90   791.55   870.33
                              952.32  1072.39  1111.89  1173.82  1216.08
                             1230.46  1245.82  1347.96  1348.08  1349.35
                             1350.83  1397.65  1416.56  1416.59  1429.87
                             1534.06  1534.13  1544.16  1544.80  1719.05
                             1744.71  1849.66  1850.18  1850.68  1856.50
                             1877.72  1878.17  2053.57  2053.57  2057.61
                             2058.00  2093.87  2094.21  2158.42  2158.43
                             2185.10  2185.13  2187.25  2187.42  2195.63
                             2196.00  2204.59  2204.65  2236.26  2236.29
                             2372.74  2630.38  2650.18  4403.20  4403.21
                             4404.81  4404.83  4414.89  4415.04  4496.51
                             4496.55  4498.91  4498.96  4515.16  4515.27
                             4517.67  4517.70  4553.52  4553.52  4557.91
                             4557.93

 Zero-point correction=                           0.282958 (Hartree/Particle)
 Thermal correction to Energy=                    0.301841
 Thermal correction to Enthalpy=                  0.302785
 Thermal correction to Gibbs Free Energy=         0.234290
 Sum of electronic and zero-point Energies=           -801.998186
 Sum of electronic and thermal Energies=              -801.979303
 Sum of electronic and thermal Enthalpies=            -801.978359
 Sum of electronic and thermal Free Energies=         -802.046854

                     E (Thermal)             CV                S
                      KCal/Mol        Cal/Mol-Kelvin    Cal/Mol-Kelvin
 Total                  189.408             68.261            144.160
 Electronic               0.000              0.000              0.000
 Translational            0.889              2.981             42.202
 Rotational               0.889              2.981             33.145
 Vibrational            187.631             62.299             68.813
 Vibration     1          0.593              1.987              7.740
 Vibration     2          0.594              1.983              5.601
 Vibration     3          0.595              1.979              5.023
 Vibration     4          0.596              1.976              4.664
 Vibration     5          0.596              1.975              4.559
 Vibration     6          0.606              1.943              3.299
 Vibration     7          0.607              1.940              3.250
 Vibration     8          0.629              1.869              2.342
 Vibration     9          0.637              1.843              2.152
 Vibration    10          0.637              1.842              2.146
 Vibration    11          0.641              1.830              2.071
 Vibration    12          0.641              1.830              2.068
 Vibration    13          0.643              1.823              2.031
 Vibration    14          0.666              1.753              1.689
 Vibration    15          0.666              1.752              1.685
 Vibration    16          0.673              1.731              1.604
 Vibration    17          0.674              1.730              1.601
 Vibration    18          0.703              1.642              1.328
 Vibration    19          0.704              1.642              1.327
 Vibration    20          0.722              1.590              1.198
 Vibration    21          0.729              1.571              1.157
 Vibration    22          0.741              1.537              1.086
 Vibration    23          0.746              1.524              1.061
 Vibration    24          0.789              1.410              0.866
 Vibration    25          0.796              1.392              0.840
 Vibration    26          0.821              1.332              0.758
 Vibration    27          0.823              1.327              0.751
 Vibration    28          0.823              1.326              0.750
 Vibration    29          0.905              1.139              0.544
 Vibration    30          0.963              1.021              0.441

 Optimization completed.
    -- Stationary point found.
 Normal termination of Gaussian 16 at Sat Aug 22 14:26:14 2020.
 Gaussian 16:  ES64L-G16RevA.03 25-Dec-2016

 ----------------------------------------------------------------------
 # TD(NStates=10, Root=1) B3LYP/6-31G* scf=qc volume pop=NPA density=cu
 rrent Geom=AllCheck Guess=Read
 ----------------------------------------------------------------------

 Structure from the checkpoint file:  "azadicarboxylate_1_conf273.chk"
 -------------------
 Title Card Required
 -------------------
 Charge =  0 Multiplicity = 1

                         Standard orientation:
 ---------------------------------------------------------------------
 Center     Atomic      Atomic             Coordinates (Angstroms)
 Number     Number       Type             X           Y           Z
 ---------------------------------------------------------------------
      1          6           0        4.203326    0.314940    1.426096
      2          6           0        3.930631   -0.196497    0.009739
      3          6           0        4.493043    0.729093   -1.071423
      4          6           0        4.432409   -1.629272   -0.169306
      5          8           0        2.461811   -0.348516   -0.183629
      6          6           0        1.646035    0.693920   -0.115559
      7          8           0        1.890626    1.856530    0.098234
      8          7           0        0.297081    0.283356   -0.468282
      9          7           0       -0.297068   -0.283465    0.467986
     10          6           0       -1.646032   -0.693969    0.115264
     11          8           0       -1.890651   -1.856531   -0.098744
     12          8           0       -2.461775    0.348469    0.183621
     13          6           0       -3.930633    0.196522   -0.009555
     14          6           0       -4.492905   -0.729260    1.071514
     15          6           0       -4.432347    1.629275    0.169837
     16          6           0       -4.203546   -0.314637   -1.425971
     17          1           0        5.283286    0.312087    1.610749
     18          1           0        3.729532   -0.338821    2.165889
     19          1           0        3.829462    1.331611    1.560396
     20          1           0        5.585902    0.749796   -0.996972
     21          1           0        4.117661    1.747847   -0.958697
     22          1           0        4.227677    0.359795   -2.067771
     23          1           0        5.519996   -1.660412   -0.046145
     24          1           0        4.184649   -2.005090   -1.166927
     25          1           0        3.978910   -2.293685    0.572701
     26          1           0       -4.227394   -0.360152    2.067893
     27          1           0       -4.117553   -1.747998    0.958544
     28          1           0       -5.585774   -0.749935    0.997214
     29          1           0       -4.184428    2.004898    1.167492
     30          1           0       -5.519951    1.660464    0.046846
     31          1           0       -3.978945    2.293818   -0.572114
     32          1           0       -3.829743   -1.331298   -1.560517
     33          1           0       -3.729826    0.339243   -2.165705
     34          1           0       -5.283532   -0.311703   -1.610474
 ---------------------------------------------------------------------

 SCF Done:  E(RB3LYP) =  -802.281144101     a.u. after    1 cycles

 Excitation energies and oscillator strengths:

 Excited State   1:      Singlet-A      2.9537 eV  419.75 nm  f=0.0000  <S**2>=0.000
      62 -> 63         0.70033
 This state for optimization and/or second-order correction.
 Total Energy, E(TD-HF/TD-DFT) =  -802.172596126
 Copying the excited state density for this state as the 1-particle RhoCI density.

 Excited State   2:      Singlet-A      4.9681 eV  249.56 nm  f=0.0911  <S**2>=0.000
      61 -> 63         0.69453

 Excited State   3:      Singlet-A      5.1187 eV  242.22 nm  f=0.0000  <S**2>=0.000
      60 -> 63         0.68880

 Excited State   4:      Singlet-A      5.4188 eV  228.80 nm  f=0.0134  <S**2>=0.000
      59 -> 63         0.70087

 Excited State   5:      Singlet-A      5.4424 eV  227.81 nm  f=0.0000  <S**2>=0.000
      58 -> 63         0.69875

 Excited State   6:      Singlet-A      5.6284 eV  220.28 nm  f=0.0000  <S**2>=0.000
      61 -> 65         0.17814
      62 -> 64         0.67150

 Excited State   7:      Singlet-A      5.6507 eV  219.41 nm  f=0.0152  <S**2>=0.000
      61 -> 64         0.17275
      62 -> 65         0.67496

 Excited State   8:      Singlet-A      6.5024 eV  190.67 nm  f=0.0000  <S**2>=0.000
      52 -> 63        -0.16570
      57 -> 63         0.67443

 Excited State   9:      Singlet-A      6.5422 eV  189.51 nm  f=0.0007  <S**2>=0.000
      53 -> 63        -0.25462
      55 -> 63        -0.10071
      56 -> 63         0.63758

 Excited State  10:      Singlet-A      6.6807 eV  185.59 nm  f=0.0163  <S**2>=0.000
      55 -> 63        -0.12446
      60 -> 65         0.33933
      61 -> 64         0.55388
      62 -> 65        -0.19244

 The electronic state is 1-A.
 Alpha  occ. eigenvalues --  -19.20272 -19.20272 -19.15007 -19.15007 -14.41519
 Alpha  occ. eigenvalues --  -14.41468 -10.34707 -10.34707 -10.26929 -10.26929
 Alpha  occ. eigenvalues --  -10.18661 -10.18661 -10.18422 -10.18422 -10.18346
 Alpha  occ. eigenvalues --  -10.18346  -1.12905  -1.11575  -1.04776  -1.03377
 Alpha  occ. eigenvalues --   -1.02948  -0.83234  -0.82104  -0.76518  -0.70292
 Alpha  occ. eigenvalues --   -0.70276  -0.70184  -0.70183  -0.65332  -0.61863
 Alpha  occ. eigenvalues --   -0.56655  -0.52086  -0.51861  -0.50496  -0.48656
 Alpha  occ. eigenvalues --   -0.48060  -0.47623  -0.46326  -0.45420  -0.45395
 Alpha  occ. eigenvalues --   -0.43636  -0.43079  -0.42383  -0.42200  -0.40997
 Alpha  occ. eigenvalues --   -0.40063  -0.39213  -0.39050  -0.38504  -0.37658
 Alpha  occ. eigenvalues --   -0.37609  -0.36867  -0.36462  -0.35882  -0.35644
 Alpha  occ. eigenvalues --   -0.34702  -0.34593  -0.31073  -0.30985  -0.30463
 Alpha  occ. eigenvalues --   -0.29062  -0.24280
 Alpha virt. eigenvalues --   -0.07473   0.01085   0.01286   0.07954   0.08017
 Alpha virt. eigenvalues --    0.09052   0.09331   0.14240   0.14244   0.14779
 Alpha virt. eigenvalues --    0.14811   0.15682   0.15695   0.16195   0.16213

 Mulliken charges:
               1
     1  C   -0.467880
     2  C    0.295334
     3  C   -0.469221
     4  C   -0.452374
     5  O   -0.446083
     6  C    0.740041
     7  O   -0.425277
     8  N   -0.241004
     9  N   -0.241000
    10  C    0.740041
    11  O   -0.425267
    12  O   -0.446077
    13  C    0.295332
    14  C   -0.469222
    15  C   -0.452374
    16  C   -0.467878
    17  H    0.149239
    18  H    0.158824
    19  H    0.186197
    20  H    0.151314
    21  H    0.186349
    22  H    0.157538
    23  H    0.150182
    24  H    0.162436
    25  H    0.164373
    26  H    0.157539
    27  H    0.186347
    28  H    0.151317
    29  H    0.162436
    30  H    0.150182
    31  H    0.164374
    32  H    0.186195
    33  H    0.158827
    34  H    0.149239
 Sum of Mulliken charges =  -0.00000

 Dipole moment (field-independent basis, Debye):
    X=             -0.0003    Y=             -0.0000    Z=              0.0007  Tot=              0.0007
 Quadrupole moment (field-independent basis, Debye-Ang):
   XX=            -63.5593   YY=           -104.0418   ZZ=            -93.2157
   XY=             -6.3073   XZ=             -0.0578   YZ=             -1.1665

 Summary of Natural Population Analysis:

                                       Natural Population
                Natural  -----------------------------------------------
    Atom  No    Charge         Core      Valence    Rydberg      Total
 -----------------------------------------------------------------------
      C    1   -0.70336      1.99932     4.69495    0.00909     6.70336
      C    2    0.27974      1.99900     3.70255    0.01871     5.72026
      C    3   -0.70432      1.99932     4.69578    0.00922     6.70432
      C    4   -0.68686      1.99932     4.67728    0.01025     6.68686
      O    5   -0.54098      1.99970     6.52813    0.01315     8.54098
      C    6    0.92393      1.99951     3.02467    0.05189     5.07607
      O    7   -0.55438      1.99977     6.53429    0.02032     8.55438
      N    8   -0.22152      1.99939     5.19566    0.02648     7.22152
      N    9   -0.22153      1.99939     5.19566    0.02648     7.22153
      C   10    0.92394      1.99951     3.02466    0.05189     5.07606
      O   11   -0.55437      1.99977     6.53428    0.02032     8.55437
      O   12   -0.54098      1.99970     6.52813    0.01315     8.54098
      C   13    0.27974      1.99900     3.70255    0.01871     5.72026
      C   14   -0.70432      1.99932     4.69578    0.00922     6.70432
      C   15   -0.68686      1.99932     4.67729    0.01025     6.68686
      C   16   -0.70336      1.99932     4.69495    0.00909     6.70336
      H   17    0.23977      0.00000     0.75946    0.00077     0.76023
      H   18    0.24163      0.00000     0.75725    0.00112     0.75837
      H   19    0.25745      0.00000     0.74130    0.00125     0.74255
      H   20    0.24155      0.00000     0.75771    0.00074     0.75845
      H   21    0.25721      0.00000     0.74141    0.00138     0.74279
      H   22    0.24083      0.00000     0.75805    0.00112     0.75917
      H   23    0.23891      0.00000     0.76041    0.00068     0.76109
      H   24    0.24463      0.00000     0.75432    0.00105     0.75537
      H   25    0.24576      0.00000     0.75320    0.00104     0.75424
      H   26    0.24083      0.00000     0.75805    0.00112     0.75917
      H   27    0.25721      0.00000     0.74141    0.00138     0.74279
      H   28    0.24155      0.00000     0.75771    0.00074     0.75845
      H   29    0.24463      0.00000     0.75432    0.00105     0.75537
      H   30    0.23891      0.00000     0.76041    0.00068     0.76109
      H   31    0.24576      0.00000     0.75319    0.00104     0.75424
      H   32    0.25745      0.00000     0.74130    0.00125     0.74255
      H   33    0.24163      0.00000     0.75724    0.00112     0.75837
      H   34    0.23977      0.00000     0.75946    0.00077     0.76023
 =======================================================================
   * Total *   -0.00000     31.99063    91.67281    0.33656   124.00000

 Normal termination of Gaussian 16 at Sat Aug 22 14:32:20 2020.
