 Gaussian 16, Revision A.03,

 ---------------------------------
 # opt=CalcAll B3LYP/6-31G* scf=qc
 ---------------------------------

 -------------------
 Title Card Required
 -------------------
 Symbolic Z-matrix:
 Charge =  0 Multiplicity = 1

 SCF Done:  E(RB3LYP) =  -723.594240669     a.u. after    9 cycles
 SCF Done:  E(RB3LYP) =  -723.607078910     a.u. after   15 cycles
 SCF Done:  E(RB3LYP) =  -723.638379584     a.u. after   15 cycles
 SCF Done:  E(RB3LYP) =  -723.645618427     a.u. after   21 cycles
 SCF Done:  E(RB3LYP) =  -723.648519723     a.u. after   25 cycles
 SCF Done:  E(RB3LYP) =  -723.648933065     a.u. after   11 cycles
 SCF Done:  E(RB3LYP) =  -723.648954100     a.u. after    9 cycles
 SCF Done:  E(RB3LYP) =  -723.648956147     a.u. after    5 cycles
 SCF Done:  E(RB3LYP) =  -723.648956255     a.u. after    4 cycles
 SCF Done:  E(RB3LYP) =  -723.648956266     a.u. after    2 cycles
 Optimization completed.
    -- Stationary point found.
 Normal termination of Gaussian 16 at Sat Aug 22 14:01:47 2020.

 ----------------------------------------------------------------------
 # freq B3LYP/6-31G* scf=qc volume NMR pop=NPA density=current Geom=All
 Check Guess=Read
 ----------------------------------------------------------------------

 Structure from the checkpoint file:  "azadicarboxylate_2_conf292.chk"
 -------------------
 Title Card Required
 -------------------
 Charge =  0 Multiplicity = 1

 SCF Done:  E(RB3LYP) =  -723.648956266     a.u. after    1 cycles

      1  C    Isotropic =   168.6617   Anisotropy =    31.0706

      2  C    Isotropic =   118.4746   Anisotropy =    63.2954

      3  C    Isotropic =   168.2622   Anisotropy =    30.1776

      4  O    Isotropic =   126.5870   Anisotropy =   139.0530

      5  C    Isotropic =    35.4744   Anisotropy =    82.3793

      6  O    Isotropic =   -18.5371   Anisotropy =   472.7525

      7  N    Isotropic =  -330.9626   Anisotropy =   686.9782

      8  N    Isotropic =  -345.9416   Anisotropy =   700.9532

      9  C    Isotropic =    34.7536   Anisotropy =    70.9736

     10  O    Isotropic =   -27.6857   Anisotropy =   471.6423

     11  O    Isotropic =   138.2983   Anisotropy =   150.8936

     12  C    Isotropic =   113.2235   Anisotropy =    71.9934

     13  C    Isotropic =   169.5411   Anisotropy =    27.8497

     14  C    Isotropic =   170.3784   Anisotropy =    27.9030

     15  H    Isotropic =    31.0977   Anisotropy =     8.5403

     16  H    Isotropic =    30.9021   Anisotropy =     6.7054

     17  H    Isotropic =    30.1296   Anisotropy =     7.3593

     18  H    Isotropic =    27.0206   Anisotropy =     2.7461

     19  H    Isotropic =    30.7372   Anisotropy =     6.4793

     20  H    Isotropic =    31.1047   Anisotropy =     8.3569

     21  H    Isotropic =    30.7776   Anisotropy =     8.7071

     22  H    Isotropic =    27.5965   Anisotropy =     4.2458

     23  H    Isotropic =    29.7401   Anisotropy =     5.3038

     24  H    Isotropic =    30.7054   Anisotropy =     8.1751

     25  H    Isotropic =    31.1877   Anisotropy =     8.4461

     26  H    Isotropic =    29.5802   Anisotropy =     5.6255

     27  H    Isotropic =    31.1319   Anisotropy =     8.3326

     28  H    Isotropic =    30.5759   Anisotropy =     8.2344

  Exact polarizability: 154.982  -0.058  98.022  -1.611   0.522  85.998
 Approx polarizability: 175.183  -3.283 155.206  -0.658   1.885 126.371

                      1                      2                      3
                      A                      A                      A
 Frequencies --      8.1203                36.8986                41.8160
 Red. masses --      4.0100                 3.4570                 6.9747
 Frc consts  --      0.0002                 0.0028                 0.0072
 IR Inten    --      0.4186                 1.1383                 0.4325

                      4                      5                      6
                      A                      A                      A
 Frequencies --     45.6008                67.9406                86.8796
 Red. masses --      4.1732                 5.3631                 4.8400
 Frc consts  --      0.0051                 0.0146                 0.0215
 IR Inten    --      0.6316                 0.3087                 0.2283

                      7                      8                      9
                      A                      A                      A
 Frequencies --    109.0876               172.4622               185.3151
 Red. masses --      3.4735                 5.9289                 4.0066
 Frc consts  --      0.0244                 0.1039                 0.0811
 IR Inten    --      0.2419                 0.4703                 2.2438

                     10                     11                     12
                      A                      A                      A
 Frequencies --    213.6216               222.9622               230.9192
 Red. masses --      3.1018                 1.0857                 1.0900
 Frc consts  --      0.0834                 0.0318                 0.0342
 IR Inten    --      8.4981                 0.8111                 0.0726

                     13                     14                     15
                      A                      A                      A
 Frequencies --    246.8083               250.1568               268.6676
 Red. masses --      3.1411                 1.0785                 1.6100
 Frc consts  --      0.1127                 0.0398                 0.0685
 IR Inten    --      3.5523                 0.1794                 2.2057

                     16                     17                     18
                      A                      A                      A
 Frequencies --    312.8954               348.1911               404.6776
 Red. masses --      3.0633                 2.7797                 3.6482
 Frc consts  --      0.1767                 0.1986                 0.3520
 IR Inten    --      3.7908                 1.0825                 5.1393

                     19                     20                     21
                      A                      A                      A
 Frequencies --    417.6625               427.1421               467.5712
 Red. masses --      3.5454                 3.3000                 3.4271
 Frc consts  --      0.3644                 0.3547                 0.4414
 IR Inten    --      8.4326                16.7522                 4.9875

                     22                     23                     24
                      A                      A                      A
 Frequencies --    485.2434               532.8746               640.4926
 Red. masses --      3.1592                 4.6608                 5.6915
 Frc consts  --      0.4383                 0.7798                 1.3756
 IR Inten    --      4.2325                 4.4843                 2.4551

                     25                     26                     27
                      A                      A                      A
 Frequencies --    668.4212               792.6525               815.4327
 Red. masses --      9.0507                 5.8218                 7.8161
 Frc consts  --      2.3825                 2.1551                 3.0621
 IR Inten    --      1.7441                30.8639                23.0044

                     28                     29                     30
                      A                      A                      A
 Frequencies --    840.7002               855.8148               904.6640
 Red. masses --      3.3696                 7.0993                 3.2938
 Frc consts  --      1.4032                 3.0636                 1.5883
 IR Inten    --     11.2059                 8.4189                49.2036

                     31                     32                     33
                      A                      A                      A
 Frequencies --    929.1764               949.9517               950.3696
 Red. masses --      3.1585                 1.2812                 1.2539
 Frc consts  --      1.6067                 0.6812                 0.6673
 IR Inten    --      1.4887                 1.3662                 0.6224

                     34                     35                     36
                      A                      A                      A
 Frequencies --    957.2567               962.1642               976.8105
 Red. masses --      1.3118                 1.3693                 4.9049
 Frc consts  --      0.7082                 0.7469                 2.7574
 IR Inten    --      0.4136                 2.7141                 8.9702

                     37                     38                     39
                      A                      A                      A
 Frequencies --    993.3394              1145.8208              1168.3071
 Red. masses --      8.7213                 1.8485                 1.9217
 Frc consts  --      5.0702                 1.4299                 1.5455
 IR Inten    --      1.4012               238.8788               114.8701

                     40                     41                     42
                      A                      A                      A
 Frequencies --   1171.5763              1175.1207              1218.5148
 Red. masses --      2.1505                 2.0295                 1.9572
 Frc consts  --      1.7391                 1.6512                 1.7121
 IR Inten    --     10.8730                 8.6211                40.0083

                     43                     44                     45
                      A                      A                      A
 Frequencies --   1219.0839              1254.0015              1290.6764
 Red. masses --      1.9352                 5.4984                 6.4043
 Frc consts  --      1.6945                 5.0943                 6.2858
 IR Inten    --     10.6043              1104.9323               259.8677

                     46                     47                     48
                      A                      A                      A
 Frequencies --   1383.7015              1391.3345              1399.9962
 Red. masses --      1.4040                 1.3206                 1.2518
 Frc consts  --      1.5839                 1.5062                 1.4455
 IR Inten    --      6.8519                 3.2528                 4.4341

                     49                     50                     51
                      A                      A                      A
 Frequencies --   1421.1877              1430.7016              1433.1882
 Red. masses --      1.3097                 1.3277                 1.3398
 Frc consts  --      1.5585                 1.6012                 1.6214
 IR Inten    --     22.7060                18.5442                16.8042

                     52                     53                     54
                      A                      A                      A
 Frequencies --   1445.0188              1448.5955              1511.1670
 Red. masses --      1.2416                 1.2592                 1.0482
 Frc consts  --      1.5275                 1.5568                 1.4103
 IR Inten    --     17.8696                 7.2264                 0.1180

                     55                     56                     57
                      A                      A                      A
 Frequencies --   1511.7685              1516.6332              1522.1956
 Red. masses --      1.0543                 1.0440                 1.0470
 Frc consts  --      1.4196                 1.4149                 1.4293
 IR Inten    --      1.8375                 1.1955                16.2844

                     58                     59                     60
                      A                      A                      A
 Frequencies --   1525.6706              1526.6581              1540.0671
 Red. masses --      1.0508                 1.0485                 1.0495
 Frc consts  --      1.4411                 1.4398                 1.4666
 IR Inten    --      3.6301                 0.0676                 9.6929

                     61                     62                     63
                      A                      A                      A
 Frequencies --   1546.6594              1660.1059              1829.6829
 Red. masses --      1.0540                13.9892                12.3995
 Frc consts  --      1.4855                22.7151                24.4572
 IR Inten    --      7.3194                 0.1643                64.0142

                     64                     65                     66
                      A                      A                      A
 Frequencies --   1846.3215              3058.3476              3062.4466
 Red. masses --     12.2579                 1.0354                 1.0374
 Frc consts  --     24.6195                 5.7062                 5.7322
 IR Inten    --    456.4351                11.0738                15.7613

                     67                     68                     69
                      A                      A                      A
 Frequencies --   3062.8342              3066.5711              3095.8544
 Red. masses --      1.0360                 1.0382                 1.0866
 Frc consts  --      5.7260                 5.7524                 6.1360
 IR Inten    --     15.9339                10.8969                19.8903

                     70                     71                     72
                      A                      A                      A
 Frequencies --   3098.4785              3126.4526              3127.4282
 Red. masses --      1.0875                 1.1029                 1.1016
 Frc consts  --      6.1512                 6.3516                 6.3480
 IR Inten    --      1.7302                 2.4084                11.3720

                     73                     74                     75
                      A                      A                      A
 Frequencies --   3130.1044              3136.2377              3139.3866
 Red. masses --      1.1020                 1.1017                 1.1027
 Frc consts  --      6.3613                 6.3844                 6.4033
 IR Inten    --     32.9410                40.1365                23.8969

                     76                     77                     78
                      A                      A                      A
 Frequencies --   3148.5685              3161.9612              3166.6507
 Red. masses --      1.1026                 1.1022                 1.1011
 Frc consts  --      6.4404                 6.4926                 6.5053
 IR Inten    --     15.2270                 1.9412                19.8404

 - Thermochemistry -
 -------------------
 Temperature   298.150 Kelvin.  Pressure   1.00000 Atm.
 Atom     1 has atomic number  6 and mass  12.00000

 Molecular mass:   202.09536 amu.
 Principal axes and moments of inertia in atomic units:
                           1         2         3
     Eigenvalues --  1046.513847384.612767797.01258
           X            1.00000  -0.00175  -0.00106
           Y            0.00175   0.99999  -0.00500
           Z            0.00107   0.00500   0.99999
 This molecule is an asymmetric top.
 Rotational symmetry number  1.
 Warning -- assumption of classical behavior for rotation
           may cause significant error
 Rotational temperatures (Kelvin)      0.08276     0.01173     0.01111
 Rotational constants (GHZ):           1.72453     0.24439     0.23147
 Zero-point vibrational energy     597749.1 (Joules/Mol)
                                  142.86545 (Kcal/Mol)
 Warning -- explicit consideration of  23 degrees of freedom as
           vibrations may cause significant error
 Vibrational temperatures:     11.68    53.09    60.16    65.61    97.75
          (Kelvin)            125.00   156.95   248.13   266.63   307.35
                              320.79   332.24   355.10   359.92   386.55
                              450.19   500.97   582.24   600.92   614.56
                              672.73   698.16   766.69   921.53   961.71
                             1140.45  1173.23  1209.58  1231.33  1301.61
                             1336.88  1366.77  1367.37  1377.28  1384.34
                             1405.41  1429.19  1648.58  1680.93  1685.64
                             1690.74  1753.17  1753.99  1804.23  1857.00
                             1990.84  2001.82  2014.28  2044.77  2058.46
                             2062.04  2079.06  2084.21  2174.23  2175.10
                             2182.10  2190.10  2195.10  2196.52  2215.81
                             2225.30  2388.52  2632.51  2656.44  4400.28
                             4406.18  4406.74  4412.11  4454.24  4458.02
                             4498.27  4499.67  4503.52  4512.35  4516.88
                             4530.09  4549.36  4556.10

 Zero-point correction=                           0.227671 (Hartree/Particle)
 Thermal correction to Energy=                    0.243938
 Thermal correction to Enthalpy=                  0.244882
 Thermal correction to Gibbs Free Energy=         0.180589
 Sum of electronic and zero-point Energies=           -723.421286
 Sum of electronic and thermal Energies=              -723.405018
 Sum of electronic and thermal Enthalpies=            -723.404074
 Sum of electronic and thermal Free Energies=         -723.468367

                     E (Thermal)             CV                S
                      KCal/Mol        Cal/Mol-Kelvin    Cal/Mol-Kelvin
 Total                  153.074             56.285            135.317
 Electronic               0.000              0.000              0.000
 Translational            0.889              2.981             41.815
 Rotational               0.889              2.981             32.466
 Vibrational            151.296             50.324             61.036
 Vibration     1          0.593              1.987              8.425
 Vibration     2          0.594              1.982              5.419
 Vibration     3          0.594              1.980              5.171
 Vibration     4          0.595              1.979              5.000
 Vibration     5          0.598              1.969              4.212
 Vibration     6          0.601              1.958              3.729
 Vibration     7          0.606              1.942              3.285
 Vibration     8          0.626              1.876              2.408
 Vibration     9          0.631              1.860              2.274
 Vibration    10          0.644              1.820              2.013
 Vibration    11          0.649              1.806              1.935
 Vibration    12          0.653              1.794              1.872
 Vibration    13          0.661              1.768              1.753
 Vibration    14          0.663              1.762              1.729
 Vibration    15          0.673              1.731              1.605
 Vibration    16          0.701              1.649              1.347
 Vibration    17          0.726              1.579              1.174
 Vibration    18          0.770              1.460              0.946
 Vibration    19          0.781              1.432              0.900
 Vibration    20          0.789              1.411              0.868
 Vibration    21          0.825              1.322              0.744
 Vibration    22          0.841              1.283              0.696
 Vibration    23          0.888              1.177              0.581

 Optimization completed.
    -- Stationary point found.
 Normal termination of Gaussian 16 at Sat Aug 22 14:05:57 2020.
 Gaussian 16:  ES64L-G16RevA.03 25-Dec-2016

 ----------------------------------------------------------------------
 # TD(NStates=10, Root=1) B3LYP/6-31G* scf=qc volume pop=NPA density=cu
 rrent Geom=AllCheck Guess=Read
 ----------------------------------------------------------------------

 Structure from the checkpoint file:  "azadicarboxylate_2_conf293.chk"
 -------------------
 Title Card Required
 -------------------
 Charge =  0 Multiplicity = 1

                         Standard orientation:
 ---------------------------------------------------------------------
 Center     Atomic      Atomic             Coordinates (Angstroms)
 Number     Number       Type             X           Y           Z
 ---------------------------------------------------------------------
      1          6           0       -4.612728   -0.211661    0.963478
      2          6           0       -3.855878    0.366921   -0.225922
      3          6           0       -4.251207    1.793396   -0.575019
      4          8           0       -2.424909    0.420320    0.096841
      5          6           0       -1.725748   -0.697485   -0.089487
      6          8           0       -2.124662   -1.770080   -0.468348
      7          7           0       -0.361315   -0.448907    0.358347
      8          7           0        0.475275   -0.705811   -0.526294
      9          6           0        1.844064   -0.582356   -0.060240
     10          8           0        2.430749   -1.523292    0.413976
     11          8           0        2.292462    0.631322   -0.357117
     12          6           0        3.705702    0.973371   -0.112128
     13          6           0        4.026355    0.945014    1.378533
     14          6           0        4.633255    0.127325   -0.977879
     15          1           0       -5.685459   -0.241482    0.742253
     16          1           0       -4.460619    0.406237    1.855093
     17          1           0       -4.279937   -1.231425    1.175163
     18          1           0       -3.964480   -0.290625   -1.093158
     19          1           0       -4.099690    2.459302    0.281248
     20          1           0       -5.309270    1.826983   -0.855768
     21          1           0       -3.658507    2.168296   -1.415009
     22          1           0        3.726905    2.008036   -0.465572
     23          1           0        4.024851   -0.075896    1.766379
     24          1           0        3.298474    1.539938    1.939556
     25          1           0        5.018833    1.380423    1.540576
     26          1           0        4.642778   -0.914681   -0.651108
     27          1           0        5.651696    0.525588   -0.907351
     28          1           0        4.324691    0.169021   -2.027502
 ---------------------------------------------------------------------

 SCF Done:  E(RB3LYP) =  -723.648956266     a.u. after    1 cycles

 Excitation energies and oscillator strengths:

 Excited State   1:      Singlet-A      2.7655 eV  448.33 nm  f=0.0003  <S**2>=0.000
      54 -> 55         0.70096
 This state for optimization and/or second-order correction.
 Total Energy, E(TD-HF/TD-DFT) =  -723.547326214
 Copying the excited state density for this state as the 1-particle RhoCI density.

 Excited State   2:      Singlet-A      4.7268 eV  262.30 nm  f=0.0004  <S**2>=0.000
      52 -> 55         0.31408
      53 -> 55         0.60312

 Excited State   3:      Singlet-A      4.9979 eV  248.07 nm  f=0.0681  <S**2>=0.000
      50 -> 55        -0.12236
      52 -> 55         0.59037
      53 -> 55        -0.33033

 Excited State   4:      Singlet-A      5.2986 eV  233.99 nm  f=0.0041  <S**2>=0.000
      50 -> 55         0.30785
      51 -> 55         0.62846

 Excited State   5:      Singlet-A      5.3794 eV  230.48 nm  f=0.0059  <S**2>=0.000
      50 -> 55         0.59323
      51 -> 55        -0.29779
      52 -> 55         0.17737

 Excited State   6:      Singlet-A      5.5910 eV  221.76 nm  f=0.0217  <S**2>=0.000
      53 -> 56         0.16933
      54 -> 56         0.66265

 Excited State   7:      Singlet-A      5.9222 eV  209.36 nm  f=0.0251  <S**2>=0.000
      50 -> 55        -0.11563
      54 -> 57         0.67136

 Excited State   8:      Singlet-A      6.3771 eV  194.42 nm  f=0.0001  <S**2>=0.000
      49 -> 55         0.68179

 Excited State   9:      Singlet-A      6.5068 eV  190.54 nm  f=0.0012  <S**2>=0.000
      44 -> 55         0.10370
      45 -> 55         0.12205
      48 -> 55         0.67364

 Excited State  10:      Singlet-A      6.7277 eV  184.29 nm  f=0.0113  <S**2>=0.000
      47 -> 55        -0.17503
      52 -> 56        -0.30631
      53 -> 56         0.56325
      54 -> 56        -0.16829

 The electronic state is 1-A.
 Alpha  occ. eigenvalues --  -19.20798 -19.20613 -19.15356 -19.15268 -14.41951
 Alpha  occ. eigenvalues --  -14.41740 -10.35049 -10.34721 -10.26571 -10.26088
 Alpha  occ. eigenvalues --  -10.19139 -10.18848 -10.18836 -10.18808  -1.13280
 Alpha  occ. eigenvalues --   -1.12066  -1.05547  -1.03635  -1.02893  -0.82300
 Alpha  occ. eigenvalues --   -0.80630  -0.76274  -0.70506  -0.70434  -0.66884
 Alpha  occ. eigenvalues --   -0.63047  -0.57433  -0.55755  -0.52290  -0.50766
 Alpha  occ. eigenvalues --   -0.50067  -0.48515  -0.47605  -0.46640  -0.46251
 Alpha  occ. eigenvalues --   -0.44357  -0.43134  -0.42680  -0.41414  -0.40633
 Alpha  occ. eigenvalues --   -0.40295  -0.39986  -0.39317  -0.38077  -0.37510
 Alpha  occ. eigenvalues --   -0.36910  -0.36474  -0.35412  -0.34813  -0.31523
 Alpha  occ. eigenvalues --   -0.31431  -0.30568  -0.30044  -0.24463
 Alpha virt. eigenvalues --   -0.08354   0.00727   0.02055   0.08592   0.08821
 Alpha virt. eigenvalues --    0.10478   0.10817   0.13301   0.13736   0.14504
 Alpha virt. eigenvalues --    0.14773   0.15565   0.16566   0.16934   0.17360

 Mulliken charges:
               1
     1  C   -0.459991
     2  C    0.117546
     3  C   -0.453340
     4  O   -0.432558
     5  C    0.739171
     6  O   -0.414016
     7  N   -0.248712
     8  N   -0.227769
     9  C    0.732117
    10  O   -0.412030
    11  O   -0.432943
    12  C    0.129501
    13  C   -0.470212
    14  C   -0.471936
    15  H    0.153481
    16  H    0.158854
    17  H    0.177301
    18  H    0.167157
    19  H    0.161671
    20  H    0.153916
    21  H    0.164675
    22  H    0.157258
    23  H    0.187714
    24  H    0.163754
    25  H    0.152947
    26  H    0.188006
    27  H    0.154829
    28  H    0.163608
 Sum of Mulliken charges =   0.00000

 Dipole moment (field-independent basis, Debye):
    X=              0.0330    Y=              3.6641    Z=             -0.0652  Tot=              3.6649
 Quadrupole moment (field-independent basis, Debye-Ang):
   XX=            -56.1938   YY=            -88.5555   ZZ=            -81.2294
   XY=              2.1525   XZ=             -1.2379   YZ=             -0.4119

 Summary of Natural Population Analysis:

                                       Natural Population
                Natural  -----------------------------------------------
    Atom  No    Charge         Core      Valence    Rydberg      Total
 -----------------------------------------------------------------------
      C    1   -0.70435      1.99940     4.69641    0.00855     6.70435
      C    2    0.08156      1.99913     3.90187    0.01744     5.91844
      C    3   -0.69576      1.99939     4.68732    0.00904     6.69576
      O    4   -0.53783      1.99972     6.52556    0.01255     8.53783
      C    5    0.90407      1.99951     3.04464    0.05178     5.09593
      O    6   -0.54113      1.99977     6.52073    0.02062     8.54113
      N    7   -0.21599      1.99939     5.19043    0.02618     7.21599
      N    8   -0.21047      1.99939     5.18451    0.02656     7.21047
      C    9    0.91910      1.99952     3.02873    0.05266     5.08090
      O   10   -0.54557      1.99977     6.52533    0.02047     8.54557
      O   11   -0.53178      1.99972     6.52001    0.01204     8.53178
      C   12    0.08440      1.99912     3.89824    0.01824     5.91560
      C   13   -0.70935      1.99939     4.70195    0.00801     6.70935
      C   14   -0.71048      1.99939     4.70299    0.00810     6.71048
      H   15    0.24055      0.00000     0.75868    0.00077     0.75945
      H   16    0.23593      0.00000     0.76270    0.00136     0.76407
      H   17    0.25065      0.00000     0.74834    0.00100     0.74935
      H   18    0.24281      0.00000     0.75458    0.00261     0.75719
      H   19    0.23814      0.00000     0.76057    0.00129     0.76186
      H   20    0.24036      0.00000     0.75897    0.00066     0.75964
      H   21    0.24521      0.00000     0.75379    0.00100     0.75479
      H   22    0.24533      0.00000     0.75301    0.00166     0.75467
      H   23    0.25231      0.00000     0.74630    0.00139     0.74769
      H   24    0.24345      0.00000     0.75548    0.00107     0.75655
      H   25    0.24090      0.00000     0.75836    0.00074     0.75910
      H   26    0.25216      0.00000     0.74645    0.00139     0.74784
      H   27    0.24246      0.00000     0.75681    0.00072     0.75754
      H   28    0.24332      0.00000     0.75563    0.00105     0.75668
 =======================================================================
   * Total *   -0.00000     27.99262    79.69841    0.30898   108.00000

 Normal termination of Gaussian 16 at Sat Aug 22 14:11:02 2020.
