 Gaussian 16, Revision A.03,

 ---------------------------------
 # opt=CalcAll B3LYP/6-31G* scf=qc
 ---------------------------------

 -------------------
 Title Card Required
 -------------------
 Symbolic Z-matrix:
 Charge =  0 Multiplicity = 1

 SCF Done:  E(RB3LYP) =  -723.590642892     a.u. after   10 cycles
 SCF Done:  E(RB3LYP) =  -723.604113419     a.u. after   15 cycles
 SCF Done:  E(RB3LYP) =  -723.637397254     a.u. after   17 cycles
 SCF Done:  E(RB3LYP) =  -723.643793073     a.u. after   23 cycles
 SCF Done:  E(RB3LYP) =  -723.648470688     a.u. after   27 cycles
 SCF Done:  E(RB3LYP) =  -723.648883689     a.u. after   15 cycles
 SCF Done:  E(RB3LYP) =  -723.648914097     a.u. after    7 cycles
 SCF Done:  E(RB3LYP) =  -723.648916266     a.u. after    6 cycles
 SCF Done:  E(RB3LYP) =  -723.648917084     a.u. after    4 cycles
 SCF Done:  E(RB3LYP) =  -723.648916889     a.u. after    3 cycles
 Optimization completed on the basis of negligible forces.
    -- Stationary point found.
 Normal termination of Gaussian 16 at Sat Aug 22 14:22:54 2020.

 ----------------------------------------------------------------------
 # freq B3LYP/6-31G* scf=qc volume NMR pop=NPA density=current Geom=All
 Check Guess=Read
 ----------------------------------------------------------------------

 Structure from the checkpoint file:  "azadicarboxylate_2_conf72.chk"
 -------------------
 Title Card Required
 -------------------
 Charge =  0 Multiplicity = 1

 SCF Done:  E(RB3LYP) =  -723.648916889     a.u. after    1 cycles

      1  C    Isotropic =   168.9703   Anisotropy =    30.6433

      2  C    Isotropic =   118.6357   Anisotropy =    64.7044

      3  C    Isotropic =   168.2448   Anisotropy =    30.2743

      4  O    Isotropic =   135.3955   Anisotropy =   117.0453

      5  C    Isotropic =    34.8982   Anisotropy =    76.9590

      6  O    Isotropic =   -19.6496   Anisotropy =   492.5925

      7  N    Isotropic =  -319.8285   Anisotropy =   667.9912

      8  N    Isotropic =  -321.9142   Anisotropy =   670.1270

      9  C    Isotropic =    35.5059   Anisotropy =    79.1513

     10  O    Isotropic =   -27.5944   Anisotropy =   481.7579

     11  O    Isotropic =   139.5274   Anisotropy =   142.8154

     12  C    Isotropic =   113.3382   Anisotropy =    72.1292

     13  C    Isotropic =   169.6120   Anisotropy =    27.8392

     14  C    Isotropic =   170.6043   Anisotropy =    27.5746

     15  H    Isotropic =    31.1341   Anisotropy =     8.6289

     16  H    Isotropic =    30.9834   Anisotropy =     6.6126

     17  H    Isotropic =    30.1773   Anisotropy =     7.3366

     18  H    Isotropic =    26.9433   Anisotropy =     2.6838

     19  H    Isotropic =    30.8125   Anisotropy =     6.3958

     20  H    Isotropic =    31.1220   Anisotropy =     8.4769

     21  H    Isotropic =    30.7655   Anisotropy =     8.6491

     22  H    Isotropic =    27.6414   Anisotropy =     4.2772

     23  H    Isotropic =    29.7395   Anisotropy =     5.3984

     24  H    Isotropic =    30.7031   Anisotropy =     8.0877

     25  H    Isotropic =    31.1974   Anisotropy =     8.5098

     26  H    Isotropic =    29.5979   Anisotropy =     5.6248

     27  H    Isotropic =    31.1536   Anisotropy =     8.3622

     28  H    Isotropic =    30.6354   Anisotropy =     8.1435

  Exact polarizability: 150.927   2.419  98.749  -2.599   0.962  87.612
 Approx polarizability: 173.639   3.320 155.753  -7.062   8.719 127.684

                      1                      2                      3
                      A                      A                      A
 Frequencies --      9.3951                33.1775                44.6207
 Red. masses --      4.0702                 4.1151                 4.6161
 Frc consts  --      0.0002                 0.0027                 0.0054
 IR Inten    --      0.0229                 1.0670                 0.8193

                      4                      5                      6
                      A                      A                      A
 Frequencies --     49.4725                57.9899                82.7786
 Red. masses --      5.4018                 4.1853                 4.9489
 Frc consts  --      0.0078                 0.0083                 0.0200
 IR Inten    --      0.8097                 0.1349                 0.4946

                      7                      8                      9
                      A                      A                      A
 Frequencies --    111.2350               185.6139               195.6100
 Red. masses --      3.4912                 4.4394                 3.8112
 Frc consts  --      0.0255                 0.0901                 0.0859
 IR Inten    --      0.2769                 3.0246                 2.7235

                     10                     11                     12
                      A                      A                      A
 Frequencies --    204.7445               222.9991               231.4778
 Red. masses --      5.5186                 1.0423                 1.0924
 Frc consts  --      0.1363                 0.0305                 0.0345
 IR Inten    --      2.8341                 0.1509                 0.0797

                     13                     14                     15
                      A                      A                      A
 Frequencies --    238.6216               250.6701               265.6663
 Red. masses --      4.8725                 1.0515                 1.3485
 Frc consts  --      0.1635                 0.0389                 0.0561
 IR Inten    --      4.4454                 0.0021                 1.6937

                     16                     17                     18
                      A                      A                      A
 Frequencies --    311.3734               351.5723               410.4709
 Red. masses --      3.1444                 2.5775                 3.5233
 Frc consts  --      0.1796                 0.1877                 0.3498
 IR Inten    --      5.9710                 0.6932                 3.4490

                     19                     20                     21
                      A                      A                      A
 Frequencies --    419.4694               426.9384               473.0203
 Red. masses --      3.3954                 3.8954                 2.8365
 Frc consts  --      0.3520                 0.4183                 0.3739
 IR Inten    --     15.9103                13.9350                 1.0468

                     22                     23                     24
                      A                      A                      A
 Frequencies --    479.4891               584.9948               603.6521
 Red. masses --      3.2325                 6.4108                10.7586
 Frc consts  --      0.4379                 1.2926                 2.3098
 IR Inten    --     13.4063                 3.3232                 1.4201

                     25                     26                     27
                      A                      A                      A
 Frequencies --    643.1959               799.3396               815.2787
 Red. masses --      5.0358                 5.1646                11.2067
 Frc consts  --      1.2275                 1.9442                 4.3887
 IR Inten    --      4.9696                26.9291                29.9966

                     28                     29                     30
                      A                      A                      A
 Frequencies --    834.2280               860.1778               906.0639
 Red. masses --      3.4372                 6.5442                 3.2317
 Frc consts  --      1.4094                 2.8529                 1.5631
 IR Inten    --      8.2432                 2.7600                46.9822

                     31                     32                     33
                      A                      A                      A
 Frequencies --    922.9617               950.1074               951.0360
 Red. masses --      3.2148                 1.2837                 1.2454
 Frc consts  --      1.6135                 0.6827                 0.6637
 IR Inten    --      0.1413                 1.3320                 0.6533

                     34                     35                     36
                      A                      A                      A
 Frequencies --    957.2737               962.2484               971.0357
 Red. masses --      1.3103                 1.4118                 4.5626
 Frc consts  --      0.7075                 0.7702                 2.5347
 IR Inten    --      0.4977                 3.8259                 3.8598

                     37                     38                     39
                      A                      A                      A
 Frequencies --    999.4612              1143.8986              1168.2470
 Red. masses --      8.3739                 1.8432                 1.9259
 Frc consts  --      4.9284                 1.4210                 1.5486
 IR Inten    --     14.9193               237.6622               106.2642

                     40                     41                     42
                      A                      A                      A
 Frequencies --   1171.8128              1175.4452              1217.8056
 Red. masses --      2.1500                 2.0359                 1.9962
 Frc consts  --      1.7394                 1.6573                 1.7443
 IR Inten    --     13.3329                 8.8459                66.7290

                     43                     44                     45
                      A                      A                      A
 Frequencies --   1219.1235              1245.5534              1290.8545
 Red. masses --      1.9320                 5.2546                 6.0701
 Frc consts  --      1.6918                 4.8030                 5.9594
 IR Inten    --      6.8452               979.1267               273.9980

                     46                     47                     48
                      A                      A                      A
 Frequencies --   1384.8636              1391.4650              1397.8827
 Red. masses --      1.4074                 1.3202                 1.2536
 Frc consts  --      1.5904                 1.5061                 1.4433
 IR Inten    --      9.1536                 3.2459                 4.0436

                     49                     50                     51
                      A                      A                      A
 Frequencies --   1420.3331              1430.6638              1433.9852
 Red. masses --      1.3024                 1.3283                 1.3439
 Frc consts  --      1.5480                 1.6018                 1.6282
 IR Inten    --     17.9138                18.8269                18.6960

                     52                     53                     54
                      A                      A                      A
 Frequencies --   1444.9633              1448.6126              1511.1444
 Red. masses --      1.2412                 1.2567                 1.0481
 Frc consts  --      1.5269                 1.5538                 1.4101
 IR Inten    --     18.2407                 6.8327                 0.1136

                     55                     56                     57
                      A                      A                      A
 Frequencies --   1511.9443              1516.6275              1522.3507
 Red. masses --      1.0542                 1.0441                 1.0469
 Frc consts  --      1.4199                 1.4150                 1.4294
 IR Inten    --      1.8243                 1.1994                16.3334

                     58                     59                     60
                      A                      A                      A
 Frequencies --   1525.7815              1526.7449              1539.8556
 Red. masses --      1.0506                 1.0485                 1.0494
 Frc consts  --      1.4411                 1.4399                 1.4660
 IR Inten    --      3.8695                 0.0819                 9.9092

                     61                     62                     63
                      A                      A                      A
 Frequencies --   1546.7270              1656.9320              1833.9785
 Red. masses --      1.0540                13.9830                12.3654
 Frc consts  --      1.4856                22.6183                24.5046
 IR Inten    --      7.1633                 0.1970                55.1533

                     64                     65                     66
                      A                      A                      A
 Frequencies --   1851.4136              3058.3157              3062.4519
 Red. masses --     12.3476                 1.0354                 1.0374
 Frc consts  --     24.9368                 5.7060                 5.7323
 IR Inten    --    507.1478                10.6582                16.0805

                     67                     68                     69
                      A                      A                      A
 Frequencies --   3062.7766              3066.5611              3095.7563
 Red. masses --      1.0360                 1.0383                 1.0866
 Frc consts  --      5.7256                 5.7525                 6.1355
 IR Inten    --     15.2791                10.9129                19.5372

                     70                     71                     72
                      A                      A                      A
 Frequencies --   3102.4672              3126.3750              3127.2755
 Red. masses --      1.0880                 1.1029                 1.1016
 Frc consts  --      6.1700                 6.3515                 6.3477
 IR Inten    --      0.9741                 1.8427                12.1725

                     73                     74                     75
                      A                      A                      A
 Frequencies --   3130.0923              3136.3663              3140.6197
 Red. masses --      1.1020                 1.1013                 1.1027
 Frc consts  --      6.3611                 6.3828                 6.4084
 IR Inten    --     32.2274                41.9819                20.7014

                     76                     77                     78
                      A                      A                      A
 Frequencies --   3147.3487              3162.2556              3166.9042
 Red. masses --      1.1026                 1.1021                 1.1010
 Frc consts  --      6.4354                 6.4934                 6.5060
 IR Inten    --     16.5414                 1.9309                19.2492

 - Thermochemistry -
 -------------------
 Temperature   298.150 Kelvin.  Pressure   1.00000 Atm.
 Atom     1 has atomic number  6 and mass  12.00000

 Molecular mass:   202.09536 amu.
 Principal axes and moments of inertia in atomic units:
                           1         2         3
     Eigenvalues --  1144.271117070.252457452.74470
           X            0.99999  -0.00425   0.00167
           Y            0.00434   0.99823  -0.05935
           Z           -0.00141   0.05935   0.99824
 This molecule is an asymmetric top.
 Rotational symmetry number  1.
 Warning -- assumption of classical behavior for rotation
           may cause significant error
 Rotational temperatures (Kelvin)      0.07569     0.01225     0.01162
 Rotational constants (GHZ):           1.57720     0.25526     0.24216
 Zero-point vibrational energy     597726.3 (Joules/Mol)
                                  142.86002 (Kcal/Mol)
 Warning -- explicit consideration of  24 degrees of freedom as
           vibrations may cause significant error
 Vibrational temperatures:     13.52    47.73    64.20    71.18    83.43
          (Kelvin)            119.10   160.04   267.06   281.44   294.58
                              320.85   333.04   343.32   360.66   382.23
                              448.00   505.83   590.58   603.52   614.27
                              680.57   689.88   841.68   868.52   925.42
                             1150.07  1173.00  1200.27  1237.60  1303.62
                             1327.94  1366.99  1368.33  1377.30  1384.46
                             1397.10  1438.00  1645.81  1680.85  1685.98
                             1691.20  1752.15  1754.05  1792.07  1857.25
                             1992.51  2002.01  2011.24  2043.54  2058.41
                             2063.18  2078.98  2084.23  2174.20  2175.35
                             2182.09  2190.32  2195.26  2196.65  2215.51
                             2225.40  2383.96  2638.69  2663.77  4400.23
                             4406.19  4406.65  4412.10  4454.10  4463.76
                             4498.16  4499.45  4503.50  4512.53  4518.65
                             4528.33  4549.78  4556.47

 Zero-point correction=                           0.227662 (Hartree/Particle)
 Thermal correction to Energy=                    0.243924
 Thermal correction to Enthalpy=                  0.244868
 Thermal correction to Gibbs Free Energy=         0.180638
 Sum of electronic and zero-point Energies=           -723.421255
 Sum of electronic and thermal Energies=              -723.404993
 Sum of electronic and thermal Enthalpies=            -723.404049
 Sum of electronic and thermal Free Energies=         -723.468279

                     E (Thermal)             CV                S
                      KCal/Mol        Cal/Mol-Kelvin    Cal/Mol-Kelvin
 Total                  153.065             56.287            135.185
 Electronic               0.000              0.000              0.000
 Translational            0.889              2.981             41.815
 Rotational               0.889              2.981             32.467
 Vibrational            151.287             50.325             60.903
 Vibration     1          0.593              1.987              8.135
 Vibration     2          0.594              1.983              5.630
 Vibration     3          0.595              1.980              5.043
 Vibration     4          0.595              1.978              4.838
 Vibration     5          0.596              1.974              4.524
 Vibration     6          0.600              1.961              3.824
 Vibration     7          0.607              1.940              3.247
 Vibration     8          0.632              1.860              2.271
 Vibration     9          0.636              1.846              2.174
 Vibration    10          0.640              1.833              2.090
 Vibration    11          0.649              1.806              1.935
 Vibration    12          0.653              1.793              1.867
 Vibration    13          0.657              1.781              1.813
 Vibration    14          0.663              1.762              1.726
 Vibration    15          0.671              1.736              1.624
 Vibration    16          0.700              1.652              1.355
 Vibration    17          0.728              1.572              1.159
 Vibration    18          0.775              1.447              0.925
 Vibration    19          0.782              1.428              0.894
 Vibration    20          0.789              1.412              0.869
 Vibration    21          0.830              1.310              0.729
 Vibration    22          0.836              1.296              0.711
 Vibration    23          0.942              1.064              0.476
 Vibration    24          0.962              1.024              0.443

 Optimization completed on the basis of negligible forces.
    -- Stationary point found.
 Normal termination of Gaussian 16 at Sat Aug 22 14:27:16 2020.
 Gaussian 16:  ES64L-G16RevA.03 25-Dec-2016

 ----------------------------------------------------------------------
 # TD(NStates=10, Root=1) B3LYP/6-31G* scf=qc volume pop=NPA density=cu
 rrent Geom=AllCheck Guess=Read
 ----------------------------------------------------------------------

 Structure from the checkpoint file:  "azadicarboxylate_2_conf73.chk"
 -------------------
 Title Card Required
 -------------------
 Charge =  0 Multiplicity = 1

                         Standard orientation:
 ---------------------------------------------------------------------
 Center     Atomic      Atomic             Coordinates (Angstroms)
 Number     Number       Type             X           Y           Z
 ---------------------------------------------------------------------
      1          6           0       -4.430133    0.068948    1.181557
      2          6           0       -3.755829    0.408365   -0.141806
      3          6           0       -4.037273    1.818446   -0.636703
      4          8           0       -2.297235    0.334416    0.029151
      5          6           0       -1.741586   -0.870438   -0.068348
      6          8           0       -2.278571   -1.927202   -0.287652
      7          7           0       -0.330602   -0.788894    0.257621
      8          7           0        0.373774   -0.453555   -0.712425
      9          6           0        1.795905   -0.482463   -0.415670
     10          8           0        2.484639   -1.404776   -0.774801
     11          8           0        2.147060    0.657455    0.167885
     12          6           0        3.568230    0.929633    0.452537
     13          6           0        4.118749   -0.054807    1.478875
     14          6           0        4.378903    1.024498   -0.835727
     15          1           0       -5.518198    0.137288    1.072338
     16          1           0       -4.117146    0.767783    1.964910
     17          1           0       -4.182778   -0.949705    1.492934
     18          1           0       -4.025024   -0.331397   -0.900578
     19          1           0       -3.726503    2.560745    0.106287
     20          1           0       -5.110441    1.940021   -0.818606
     21          1           0       -3.503002    2.017484   -1.570576
     22          1           0        3.496341    1.921704    0.907008
     23          1           0        4.214539   -1.057399    1.056649
     24          1           0        3.466282   -0.099265    2.356799
     25          1           0        5.108005    0.283939    1.806748
     26          1           0        4.477003    0.049401   -1.317561
     27          1           0        5.380808    1.401568   -0.601683
     28          1           0        3.908965    1.722744   -1.535991
 ---------------------------------------------------------------------

 SCF Done:  E(RB3LYP) =  -723.648916889     a.u. after    1 cycles

 Excitation energies and oscillator strengths:

 Excited State   1:      Singlet-A      2.9493 eV  420.39 nm  f=0.0032  <S**2>=0.000
      54 -> 55         0.69894
 This state for optimization and/or second-order correction.
 Total Energy, E(TD-HF/TD-DFT) =  -723.540532363
 Copying the excited state density for this state as the 1-particle RhoCI density.

 Excited State   2:      Singlet-A      5.0511 eV  245.46 nm  f=0.0486  <S**2>=0.000
      52 -> 55        -0.10685
      53 -> 55         0.68004

 Excited State   3:      Singlet-A      5.1650 eV  240.05 nm  f=0.0098  <S**2>=0.000
      52 -> 55         0.67747
      53 -> 55         0.11201
      54 -> 56        -0.10853

 Excited State   4:      Singlet-A      5.4185 eV  228.82 nm  f=0.0076  <S**2>=0.000
      51 -> 55         0.69433

 Excited State   5:      Singlet-A      5.4512 eV  227.44 nm  f=0.0012  <S**2>=0.000
      50 -> 55         0.69250
      54 -> 56         0.10608

 Excited State   6:      Singlet-A      5.6051 eV  221.20 nm  f=0.0031  <S**2>=0.000
      50 -> 55        -0.10380
      53 -> 56        -0.14372
      54 -> 56         0.62742
      54 -> 57         0.19789

 Excited State   7:      Singlet-A      5.6849 eV  218.10 nm  f=0.0176  <S**2>=0.000
      52 -> 56        -0.11420
      52 -> 57         0.12243
      54 -> 56        -0.18961
      54 -> 57         0.64743

 Excited State   8:      Singlet-A      6.5358 eV  189.70 nm  f=0.0060  <S**2>=0.000
      48 -> 55         0.22345
      49 -> 55         0.65109

 Excited State   9:      Singlet-A      6.6465 eV  186.54 nm  f=0.0005  <S**2>=0.000
      44 -> 55         0.10733
      45 -> 55         0.12371
      48 -> 55         0.62376
      49 -> 55        -0.23145

 Excited State  10:      Singlet-A      6.7581 eV  183.46 nm  f=0.0142  <S**2>=0.000
      53 -> 56         0.55264
      53 -> 57         0.34789
      54 -> 56         0.14208
      54 -> 57         0.11488

 The electronic state is 1-A.
 Alpha  occ. eigenvalues --  -19.20816 -19.20761 -19.15312 -19.15282 -14.41951
 Alpha  occ. eigenvalues --  -14.41900 -10.35023 -10.34894 -10.26564 -10.26156
 Alpha  occ. eigenvalues --  -10.19177 -10.18953 -10.18878 -10.18791  -1.13371
 Alpha  occ. eigenvalues --   -1.12103  -1.05339  -1.03646  -1.03245  -0.82278
 Alpha  occ. eigenvalues --   -0.80594  -0.76419  -0.70589  -0.70440  -0.66651
 Alpha  occ. eigenvalues --   -0.63145  -0.57922  -0.56298  -0.52335  -0.50855
 Alpha  occ. eigenvalues --   -0.49904  -0.48301  -0.47979  -0.46630  -0.46424
 Alpha  occ. eigenvalues --   -0.44379  -0.43113  -0.42039  -0.41663  -0.41066
 Alpha  occ. eigenvalues --   -0.40451  -0.39630  -0.39420  -0.38125  -0.37602
 Alpha  occ. eigenvalues --   -0.36801  -0.36490  -0.35441  -0.34877  -0.31493
 Alpha  occ. eigenvalues --   -0.31393  -0.30604  -0.30189  -0.24587
 Alpha virt. eigenvalues --   -0.07773   0.00629   0.01099   0.08598   0.08760
 Alpha virt. eigenvalues --    0.10494   0.10644   0.13221   0.13731   0.14415
 Alpha virt. eigenvalues --    0.14765   0.15611   0.16491   0.16900   0.17280

 Mulliken charges:
               1
     1  C   -0.459989
     2  C    0.116671
     3  C   -0.454108
     4  O   -0.424039
     5  C    0.736137
     6  O   -0.413298
     7  N   -0.248778
     8  N   -0.243046
     9  C    0.737074
    10  O   -0.413115
    11  O   -0.432084
    12  C    0.129358
    13  C   -0.470230
    14  C   -0.471819
    15  H    0.155305
    16  H    0.159658
    17  H    0.176798
    18  H    0.168758
    19  H    0.162106
    20  H    0.154445
    21  H    0.166369
    22  H    0.157192
    23  H    0.188060
    24  H    0.164123
    25  H    0.152682
    26  H    0.187888
    27  H    0.154884
    28  H    0.163000
 Sum of Mulliken charges =  -0.00000

 Dipole moment (field-independent basis, Debye):
    X=             -0.0699    Y=              3.8790    Z=              1.2021  Tot=              4.0616
 Quadrupole moment (field-independent basis, Debye-Ang):
   XX=            -58.3716   YY=            -88.7804   ZZ=            -80.9647
   XY=              0.7608   XZ=              2.9342   YZ=             -2.6282

 Summary of Natural Population Analysis:

                                       Natural Population
                Natural  -----------------------------------------------
    Atom  No    Charge         Core      Valence    Rydberg      Total
 -----------------------------------------------------------------------
      C    1   -0.70455      1.99939     4.69663    0.00853     6.70455
      C    2    0.08182      1.99912     3.90166    0.01740     5.91818
      C    3   -0.69615      1.99939     4.68769    0.00906     6.69615
      O    4   -0.53769      1.99972     6.52524    0.01273     8.53769
      C    5    0.92322      1.99951     3.02626    0.05101     5.07678
      O    6   -0.54206      1.99977     6.52164    0.02065     8.54206
      N    7   -0.22771      1.99938     5.20194    0.02639     7.22771
      N    8   -0.22477      1.99939     5.19876    0.02663     7.22477
      C    9    0.92086      1.99951     3.02735    0.05228     5.07914
      O   10   -0.54316      1.99977     6.52291    0.02049     8.54316
      O   11   -0.53241      1.99972     6.52068    0.01201     8.53241
      C   12    0.08470      1.99912     3.89793    0.01824     5.91530
      C   13   -0.70937      1.99939     4.70199    0.00799     6.70937
      C   14   -0.71048      1.99939     4.70299    0.00810     6.71048
      H   15    0.24197      0.00000     0.75730    0.00073     0.75803
      H   16    0.23640      0.00000     0.76223    0.00137     0.76360
      H   17    0.25026      0.00000     0.74864    0.00110     0.74974
      H   18    0.24391      0.00000     0.75342    0.00267     0.75609
      H   19    0.23833      0.00000     0.76038    0.00129     0.76167
      H   20    0.24075      0.00000     0.75858    0.00066     0.75925
      H   21    0.24616      0.00000     0.75287    0.00097     0.75384
      H   22    0.24539      0.00000     0.75293    0.00168     0.75461
      H   23    0.25251      0.00000     0.74614    0.00135     0.74749
      H   24    0.24370      0.00000     0.75523    0.00106     0.75630
      H   25    0.24072      0.00000     0.75853    0.00074     0.75928
      H   26    0.25210      0.00000     0.74645    0.00145     0.74790
      H   27    0.24257      0.00000     0.75670    0.00072     0.75743
      H   28    0.24297      0.00000     0.75597    0.00105     0.75703
 =======================================================================
   * Total *   -0.00000     27.99258    79.69905    0.30837   108.00000

 Normal termination of Gaussian 16 at Sat Aug 22 14:32:09 2020.
