 Gaussian 16, Revision A.03,

 ---------------------------------
 # opt=CalcAll B3LYP/6-31G* scf=qc
 ---------------------------------

 -------------------
 Title Card Required
 -------------------
 Symbolic Z-matrix:
 Charge =  0 Multiplicity = 1

 SCF Done:  E(RB3LYP) =  -1947.64728269     a.u. after   10 cycles
 SCF Done:  E(RB3LYP) =  -1947.66660941     a.u. after   19 cycles
 SCF Done:  E(RB3LYP) =  -1947.67143644     a.u. after   25 cycles
 SCF Done:  E(RB3LYP) =  -1947.65886720     a.u. after   41 cycles
 SCF Done:  E(RB3LYP) =  -1947.52642452     a.u. after   15 cycles
 SCF Done:  E(RB3LYP) =  -1947.52474117     a.u. after   14 cycles
 SCF Done:  E(RB3LYP) =  -1947.67143753     a.u. after    2 cycles
 SCF Done:  E(RB3LYP) =  -1947.67281550     a.u. after   23 cycles
 SCF Done:  E(RB3LYP) =  -1947.67358640     a.u. after   17 cycles
 SCF Done:  E(RB3LYP) =  -1947.67372753     a.u. after   15 cycles
 SCF Done:  E(RB3LYP) =  -1947.67378566     a.u. after   17 cycles
 SCF Done:  E(RB3LYP) =  -1947.67374889     a.u. after   21 cycles
 SCF Done:  E(RB3LYP) =  -1947.67342425     a.u. after   11 cycles
 SCF Done:  E(RB3LYP) =  -1947.67381151     a.u. after   11 cycles
 SCF Done:  E(RB3LYP) =  -1947.67384192     a.u. after   11 cycles
 SCF Done:  E(RB3LYP) =  -1947.67384754     a.u. after    9 cycles
 SCF Done:  E(RB3LYP) =  -1947.67384852     a.u. after    6 cycles
 SCF Done:  E(RB3LYP) =  -1947.67384853     a.u. after    3 cycles
 Optimization completed.
    -- Stationary point found.
 Normal termination of Gaussian 16 at Sat Aug 22 18:32:32 2020.

 ----------------------------------------------------------------------
 # freq B3LYP/6-31G* scf=qc volume NMR pop=NPA density=current Geom=All
 Check Guess=Read
 ----------------------------------------------------------------------

 Structure from the checkpoint file:  "azadicarboxylate_3_conf82.chk"
 -------------------
 Title Card Required
 -------------------
 Charge =  0 Multiplicity = 1

 SCF Done:  E(RB3LYP) =  -1947.67384853     a.u. after    1 cycles

      1  C    Isotropic =    63.8794   Anisotropy =   172.1173

      2  C    Isotropic =   121.6852   Anisotropy =    40.5273

      3  O    Isotropic =   142.1328   Anisotropy =   139.7124

      4  C    Isotropic =    34.4432   Anisotropy =    74.0695

      5  O    Isotropic =   -19.8094   Anisotropy =   492.4000

      6  N    Isotropic =  -326.6756   Anisotropy =   679.4598

      7  N    Isotropic =  -320.8460   Anisotropy =   672.5510

      8  C    Isotropic =    34.8998   Anisotropy =    86.6112

      9  O    Isotropic =   -21.7355   Anisotropy =   497.1529

     10  O    Isotropic =   141.3859   Anisotropy =   141.0973

     11  C    Isotropic =   121.4987   Anisotropy =    40.0523

     12  C    Isotropic =    63.8282   Anisotropy =   172.1530

     13  C    Isotropic =    64.0862   Anisotropy =   153.0232

     14  C    Isotropic =    67.3739   Anisotropy =   141.3985

     15  C    Isotropic =    51.2448   Anisotropy =   111.2605

     16  C    Isotropic =    66.8546   Anisotropy =   142.4036

     17  C    Isotropic =    62.8392   Anisotropy =   159.3001

     18  Cl   Isotropic =   718.3236   Anisotropy =   454.4922

     19  C    Isotropic =    64.0869   Anisotropy =   152.9278

     20  C    Isotropic =    67.2904   Anisotropy =   141.3250

     21  C    Isotropic =    51.1513   Anisotropy =   111.3159

     22  C    Isotropic =    66.7870   Anisotropy =   142.3143

     23  C    Isotropic =    62.7169   Anisotropy =   158.5563

     24  Cl   Isotropic =   717.9688   Anisotropy =   454.5769

     25  H    Isotropic =    27.7314   Anisotropy =     5.6668

     26  H    Isotropic =    26.4902   Anisotropy =     2.8322

     27  H    Isotropic =    26.5361   Anisotropy =     3.0065

     28  H    Isotropic =    27.6629   Anisotropy =     5.3947

     29  H    Isotropic =    25.0365   Anisotropy =     6.3844

     30  H    Isotropic =    25.1494   Anisotropy =     6.7439

     31  H    Isotropic =    25.1293   Anisotropy =     7.1445

     32  H    Isotropic =    24.4969   Anisotropy =     7.4940

     33  H    Isotropic =    24.9941   Anisotropy =     6.3444

     34  H    Isotropic =    25.1059   Anisotropy =     6.8481

     35  H    Isotropic =    25.0572   Anisotropy =     7.1565

     36  H    Isotropic =    24.3898   Anisotropy =     7.2839

  Exact polarizability: 197.901  15.087 237.509  -3.022  -1.713 190.440
 Approx polarizability: 227.864  25.997 363.130 -12.206  -5.247 357.583

                      1                      2                      3
                      A                      A                      A
 Frequencies --      5.0413                 9.4893                22.6262
 Red. masses --      7.5667                11.8153                 5.5682
 Frc consts  --      0.0001                 0.0006                 0.0017
 IR Inten    --      0.3904                 0.0086                 0.0669

                      4                      5                      6
                      A                      A                      A
 Frequencies --     25.3752                27.9721                45.3503
 Red. masses --      4.7251                 6.3234                11.9428
 Frc consts  --      0.0018                 0.0029                 0.0145
 IR Inten    --      0.4836                 0.2352                 0.7656

                      7                      8                      9
                      A                      A                      A
 Frequencies --     55.1409                66.4797                77.1200
 Red. masses --      9.9750                 8.5954                 7.2365
 Frc consts  --      0.0179                 0.0224                 0.0254
 IR Inten    --      2.1393                 0.3216                 3.4068

                     10                     11                     12
                      A                      A                      A
 Frequencies --     94.3398               105.5408               157.2609
 Red. masses --     10.8038                 9.8270                11.0508
 Frc consts  --      0.0567                 0.0645                 0.1610
 IR Inten    --      0.3764                 0.4658                 0.5686

                     13                     14                     15
                      A                      A                      A
 Frequencies --    198.5445               203.4494               221.5785
 Red. masses --     10.6386                 9.4454                 8.1291
 Frc consts  --      0.2471                 0.2303                 0.2352
 IR Inten    --      4.7828                 4.0698                 4.2002

                     16                     17                     18
                      A                      A                      A
 Frequencies --    242.8421               263.0524               295.3805
 Red. masses --     10.0172                 9.9492                 4.3687
 Frc consts  --      0.3481                 0.4056                 0.2246
 IR Inten    --      1.1557                 2.1688                 1.0657

                     19                     20                     21
                      A                      A                      A
 Frequencies --    299.8786               340.1094               351.5435
 Red. masses --      4.7777                 8.2209                 9.5238
 Frc consts  --      0.2531                 0.5603                 0.6935
 IR Inten    --     11.5478                 5.8553                 1.8908

                     22                     23                     24
                      A                      A                      A
 Frequencies --    377.2550               385.5701               416.6332
 Red. masses --      2.6193                 2.3354                 6.1513
 Frc consts  --      0.2196                 0.2046                 0.6291
 IR Inten    --      0.2844                14.4846                18.1328

                     25                     26                     27
                      A                      A                      A
 Frequencies --    420.4253               420.9837               430.6890
 Red. masses --      3.0447                 3.2546                 7.0025
 Frc consts  --      0.3171                 0.3398                 0.7653
 IR Inten    --      0.0119                 2.7822                11.2381

                     28                     29                     30
                      A                      A                      A
 Frequencies --    459.6904               516.0652               546.1600
 Red. masses --      5.1843                 3.9636                 4.2401
 Frc consts  --      0.6455                 0.6219                 0.7452
 IR Inten    --      1.1803                 3.7106                18.7325

                     31                     32                     33
                      A                      A                      A
 Frequencies --    592.5482               625.4876               643.6583
 Red. masses --      6.6561                 7.7988                 8.1397
 Frc consts  --      1.3769                 1.7977                 1.9869
 IR Inten    --     26.0567                 7.4263                12.8077

                     34                     35                     36
                      A                      A                      A
 Frequencies --    648.0568               648.3404               664.6994
 Red. masses --      6.7610                 6.8838                 5.0045
 Frc consts  --      1.6730                 1.7048                 1.3028
 IR Inten    --      0.0200                 1.8234                 0.3907

                     37                     38                     39
                      A                      A                      A
 Frequencies --    667.6900               736.0077               739.6887
 Red. masses --      4.9767                 4.2908                 4.1571
 Frc consts  --      1.3072                 1.3695                 1.3401
 IR Inten    --      8.2857                 0.2629                10.9884

                     40                     41                     42
                      A                      A                      A
 Frequencies --    810.1873               821.2281               821.9635
 Red. masses --      9.5465                 2.6829                 2.5168
 Frc consts  --      3.6920                 1.0661                 1.0019
 IR Inten    --     10.9643                41.9868                54.7277

                     43                     44                     45
                      A                      A                      A
 Frequencies --    829.2008               843.4155               843.6460
 Red. masses --      4.5169                 1.2871                 1.2915
 Frc consts  --      1.8298                 0.5394                 0.5416
 IR Inten    --      8.7340                 2.4550                 1.3221

                     46                     47                     48
                      A                      A                      A
 Frequencies --    860.2111               860.9577               883.3207
 Red. masses --      2.3673                 2.3591                 4.1403
 Frc consts  --      1.0321                 1.0303                 1.9034
 IR Inten    --     83.6345                52.1877                34.8680

                     49                     50                     51
                      A                      A                      A
 Frequencies --    912.9743               962.2263               963.7405
 Red. masses --      6.6345                 1.4154                 1.3533
 Frc consts  --      3.2582                 0.7721                 0.7406
 IR Inten    --      7.2829                16.4046                 0.7411

                     52                     53                     54
                      A                      A                      A
 Frequencies --    974.2944               975.8524               980.6588
 Red. masses --      1.5361                 1.3371                 2.8438
 Frc consts  --      0.8591                 0.7502                 1.6113
 IR Inten    --     45.2881                 0.6198               121.8151

                     55                     56                     57
                      A                      A                      A
 Frequencies --    990.5740              1024.2712              1025.5923
 Red. masses --      3.9123                 2.5203                 2.5907
 Frc consts  --      2.2618                 1.5579                 1.6055
 IR Inten    --     11.7991                18.3515                19.1731

                     58                     59                     60
                      A                      A                      A
 Frequencies --   1035.4300              1035.4703              1110.7124
 Red. masses --      3.8004                 3.8225                 3.1231
 Frc consts  --      2.4006                 2.4147                 2.2701
 IR Inten    --      7.0465                30.1453                34.1302

                     61                     62                     63
                      A                      A                      A
 Frequencies --   1111.0672              1146.3317              1146.4569
 Red. masses --      3.1251                 1.3243                 1.3243
 Frc consts  --      2.2730                 1.0254                 1.0255
 IR Inten    --    104.6349                 0.9370                 4.7656

                     64                     65                     66
                      A                      A                      A
 Frequencies --   1215.4699              1216.0462              1239.9509
 Red. masses --      1.1577                 1.1451                 3.3000
 Frc consts  --      1.0077                 0.9977                 2.9893
 IR Inten    --     36.0993                 0.4089                94.1514

                     67                     68                     69
                      A                      A                      A
 Frequencies --   1240.3011              1246.4917              1258.2246
 Red. masses --      3.0911                 3.8510                 3.7702
 Frc consts  --      2.8017                 3.5253                 3.5167
 IR Inten    --     23.7488              1140.0206               117.7190

                     70                     71                     72
                      A                      A                      A
 Frequencies --   1296.5591              1298.3016              1336.4438
 Red. masses --      1.5159                 1.5985                 1.8113
 Frc consts  --      1.5014                 1.5875                 1.9061
 IR Inten    --    135.4603                23.7913                 1.8868

                     73                     74                     75
                      A                      A                      A
 Frequencies --   1336.5461              1363.4985              1363.9154
 Red. masses --      1.8136                 2.1661                 2.1553
 Frc consts  --      1.9088                 2.3727                 2.3623
 IR Inten    --      0.9768                 6.6261                 5.2688

                     76                     77                     78
                      A                      A                      A
 Frequencies --   1416.8029              1418.3496              1456.2122
 Red. masses --      1.3515                 1.3572                 2.6060
 Frc consts  --      1.5984                 1.6086                 3.2559
 IR Inten    --     25.2069                24.2103                 7.4466

                     79                     80                     81
                      A                      A                      A
 Frequencies --   1456.3816              1516.7184              1518.4476
 Red. masses --      2.6031                 1.1177                 1.1187
 Frc consts  --      3.2530                 1.5149                 1.5197
 IR Inten    --      6.9655                13.1949                11.9147

                     82                     83                     84
                      A                      A                      A
 Frequencies --   1541.5091              1541.6928              1631.0248
 Red. masses --      2.3093                 2.3065                 6.6818
 Frc consts  --      3.2331                 3.2300                10.4729
 IR Inten    --     24.0227                63.0680                 0.6373

                     85                     86                     87
                      A                      A                      A
 Frequencies --   1631.3398              1651.6079              1656.0522
 Red. masses --      6.6848                13.9395                 5.5922
 Frc consts  --     10.4816                22.4033                 9.0362
 IR Inten    --      0.7017                 0.2712                10.2366

                     88                     89                     90
                      A                      A                      A
 Frequencies --   1656.1175              1832.8262              1846.3166
 Red. masses --      5.5957                12.1854                12.1461
 Frc consts  --      9.0424                24.1176                24.3950
 IR Inten    --     50.1958                20.9749               452.9338

                     91                     92                     93
                      A                      A                      A
 Frequencies --   3108.7819              3112.5517              3166.7753
 Red. masses --      1.0577                 1.0578                 1.1109
 Frc consts  --      6.0226                 6.0378                 6.5637
 IR Inten    --     21.9555                20.6354                 4.1051

                     94                     95                     96
                      A                      A                      A
 Frequencies --   3169.9716              3190.5188              3190.9016
 Red. masses --      1.1109                 1.0897                 1.0897
 Frc consts  --      6.5772                 6.5355                 6.5369
 IR Inten    --      3.5726                 8.5053                 8.6960

                     97                     98                     99
                      A                      A                      A
 Frequencies --   3212.2208              3212.2434              3226.1531
 Red. masses --      1.0889                 1.0890                 1.0935
 Frc consts  --      6.6202                 6.6203                 6.7055
 IR Inten    --      0.7722                 1.2048                 3.0542

                    100                    101                    102
                      A                      A                      A
 Frequencies --   3226.1717              3228.4567              3228.5144
 Red. masses --      1.0935                 1.0949                 1.0948
 Frc consts  --      6.7056                 6.7235                 6.7237
 IR Inten    --      4.1625                 1.1449                 1.0939

 - Thermochemistry -
 -------------------
 Temperature   298.150 Kelvin.  Pressure   1.00000 Atm.
 Atom     1 has atomic number  6 and mass  12.00000

 Molecular mass:   366.01741 amu.
 Principal axes and moments of inertia in atomic units:
                           1         2         3
     Eigenvalues --  7388.72697********************
           X            1.00000  -0.00043   0.00299
           Y            0.00043   1.00000  -0.00057
           Z           -0.00299   0.00057   1.00000
 This molecule is an asymmetric top.
 Rotational symmetry number  1.
 Warning -- assumption of classical behavior for rotation
           may cause significant error
 Rotational temperatures (Kelvin)      0.01172     0.00338     0.00280
 Rotational constants (GHZ):           0.24426     0.07037     0.05839
 Zero-point vibrational energy     678725.0 (Joules/Mol)
                                  162.21917 (Kcal/Mol)
 Warning -- explicit consideration of  31 degrees of freedom as
           vibrations may cause significant error
 Vibrational temperatures:      7.25    13.65    32.55    36.51    40.25
          (Kelvin)             65.25    79.34    95.65   110.96   135.73
                              151.85   226.26   285.66   292.72   318.80
                              349.40   378.47   424.99   431.46   489.34
                              505.79   542.79   554.75   599.44   604.90
                              605.70   619.67   661.39   742.50   785.80
                              852.54   899.94   926.08   932.41   932.82
                              956.35   960.66  1058.95  1064.25  1165.68
                             1181.56  1182.62  1193.03  1213.49  1213.82
                             1237.65  1238.73  1270.90  1313.57  1384.43
                             1386.61  1401.79  1404.03  1410.95  1425.22
                             1473.70  1475.60  1489.75  1489.81  1598.07
                             1598.58  1649.32  1649.50  1748.79  1749.62
                             1784.01  1784.52  1793.42  1810.30  1865.46
                             1867.97  1922.84  1922.99  1961.77  1962.37
                             2038.46  2040.69  2095.16  2095.41  2182.22
                             2184.71  2217.89  2218.15  2346.68  2347.13
                             2376.30  2382.69  2382.78  2637.03  2656.44
                             4472.84  4478.27  4556.28  4560.88  4590.44
                             4591.00  4621.67  4621.70  4641.71  4641.74
                             4645.03  4645.11

 Zero-point correction=                           0.258513 (Hartree/Particle)
 Thermal correction to Energy=                    0.280369
 Thermal correction to Enthalpy=                  0.281313
 Thermal correction to Gibbs Free Energy=         0.199128
 Sum of electronic and zero-point Energies=          -1947.415336
 Sum of electronic and thermal Energies=             -1947.393479
 Sum of electronic and thermal Enthalpies=           -1947.392535
 Sum of electronic and thermal Free Energies=        -1947.474720

                     E (Thermal)             CV                S
                      KCal/Mol        Cal/Mol-Kelvin    Cal/Mol-Kelvin
 Total                  175.934             79.047            172.973
 Electronic               0.000              0.000              0.000
 Translational            0.889              2.981             43.586
 Rotational               0.889              2.981             37.013
 Vibrational            174.157             73.085             92.374
 Vibration     1          0.593              1.987              9.372
 Vibration     2          0.593              1.987              8.115
 Vibration     3          0.593              1.985              6.389
 Vibration     4          0.593              1.985              6.162
 Vibration     5          0.593              1.984              5.968
 Vibration     6          0.595              1.979              5.010
 Vibration     7          0.596              1.976              4.624
 Vibration     8          0.598              1.970              4.255
 Vibration     9          0.599              1.964              3.963
 Vibration    10          0.603              1.953              3.568
 Vibration    11          0.605              1.945              3.349
 Vibration    12          0.621              1.895              2.582
 Vibration    13          0.637              1.842              2.147
 Vibration    14          0.639              1.835              2.102
 Vibration    15          0.648              1.808              1.946
 Vibration    16          0.659              1.775              1.782
 Vibration    17          0.670              1.741              1.641
 Vibration    18          0.690              1.682              1.443
 Vibration    19          0.692              1.674              1.418
 Vibration    20          0.720              1.595              1.212
 Vibration    21          0.728              1.572              1.159
 Vibration    22          0.748              1.519              1.050
 Vibration    23          0.754              1.501              1.017
 Vibration    24          0.780              1.434              0.903
 Vibration    25          0.783              1.426              0.891
 Vibration    26          0.783              1.425              0.889
 Vibration    27          0.792              1.403              0.856
 Vibration    28          0.818              1.339              0.767
 Vibration    29          0.871              1.214              0.619
 Vibration    30          0.901              1.148              0.552
 Vibration    31          0.950              1.048              0.463

 Optimization completed.
    -- Stationary point found.
 Normal termination of Gaussian 16 at Sat Aug 22 18:43:31 2020.
 Gaussian 16:  ES64L-G16RevA.03 25-Dec-2016

 ----------------------------------------------------------------------
 # TD(NStates=10, Root=1) B3LYP/6-31G* scf=qc volume pop=NPA density=cu
 rrent Geom=AllCheck Guess=Read
 ----------------------------------------------------------------------

 Structure from the checkpoint file:  "azadicarboxylate_3_conf83.chk"
 -------------------
 Title Card Required
 -------------------
 Charge =  0 Multiplicity = 1

                         Standard orientation:
 ---------------------------------------------------------------------
 Center     Atomic      Atomic             Coordinates (Angstroms)
 Number     Number       Type             X           Y           Z
 ---------------------------------------------------------------------
      1          6           0        4.294126   -0.815198    0.313752
      2          6           0        3.623876   -2.149408    0.502423
      3          8           0        2.170567   -2.010323    0.649494
      4          6           0        1.460854   -2.026535   -0.475348
      5          8           0        1.854536   -2.156084   -1.607940
      6          7           0        0.071009   -1.739135   -0.188192
      7          7           0       -0.571290   -2.745576    0.165398
      8          6           0       -1.962950   -2.455847    0.447684
      9          8           0       -2.392521   -2.520595    1.572996
     10          8           0       -2.635580   -2.243061   -0.680360
     11          6           0       -4.084471   -2.060971   -0.544738
     12          6           0       -4.447088   -0.615997   -0.330810
     13          6           0       -4.664663    0.227302   -1.427079
     14          6           0       -4.994327    1.569253   -1.246133
     15          6           0       -5.106506    2.067375    0.051599
     16          6           0       -4.893600    1.249347    1.160932
     17          6           0       -4.563637   -0.090280    0.962707
     18         17           0       -5.527964    3.756196    0.292771
     19          6           0        4.690407   -0.059757    1.424159
     20          6           0        5.304168    1.181409    1.266039
     21          6           0        5.521672    1.667343   -0.023014
     22          6           0        5.135712    0.935912   -1.145989
     23          6           0        4.522329   -0.303419   -0.970574
     24         17           0        6.300262    3.228212   -0.235276
     25          1           0        3.925714   -2.623055    1.437661
     26          1           0        3.817446   -2.824558   -0.332605
     27          1           0       -4.428713   -2.692257    0.276569
     28          1           0       -4.475765   -2.437542   -1.491018
     29          1           0       -4.576904   -0.166501   -2.436677
     30          1           0       -5.164762    2.220330   -2.096684
     31          1           0       -4.985748    1.655551    2.162425
     32          1           0       -4.383800   -0.732171    1.819706
     33          1           0        4.519860   -0.443986    2.426858
     34          1           0        5.612925    1.763720    2.127433
     35          1           0        5.313847    1.330770   -2.140391
     36          1           0        4.207356   -0.874929   -1.838323
 ---------------------------------------------------------------------

 SCF Done:  E(RB3LYP) =  -1947.67384853     a.u. after    1 cycles

 Excitation energies and oscillator strengths:

 Excited State   1:      Singlet-A      2.9351 eV  422.42 nm  f=0.0002  <S**2>=0.000
      92 -> 95        -0.48980
      94 -> 95         0.49943
 This state for optimization and/or second-order correction.
 Total Energy, E(TD-HF/TD-DFT) =  -1947.56598698
 Copying the excited state density for this state as the 1-particle RhoCI density.

 Excited State   2:      Singlet-A      3.9750 eV  311.91 nm  f=0.0145  <S**2>=0.000
      92 -> 95         0.15417
      93 -> 95         0.65246
      94 -> 95         0.21928

 Excited State   3:      Singlet-A      4.0365 eV  307.16 nm  f=0.0045  <S**2>=0.000
      92 -> 95         0.47570
      93 -> 95        -0.26390
      94 -> 95         0.44765

 Excited State   4:      Singlet-A      4.4151 eV  280.82 nm  f=0.0008  <S**2>=0.000
      91 -> 95         0.70568

 Excited State   5:      Singlet-A      4.4661 eV  277.61 nm  f=0.0004  <S**2>=0.000
      90 -> 95         0.70567

 Excited State   6:      Singlet-A      5.0311 eV  246.44 nm  f=0.1025  <S**2>=0.000
      86 -> 95        -0.21594
      89 -> 95         0.64757

 Excited State   7:      Singlet-A      5.1627 eV  240.16 nm  f=0.0100  <S**2>=0.000
      84 -> 95         0.20633
      86 -> 95         0.56991
      88 -> 95         0.22468
      89 -> 95         0.22661

 Excited State   8:      Singlet-A      5.2371 eV  236.74 nm  f=0.0004  <S**2>=0.000
      90 -> 96         0.45001
      92 -> 98         0.17238
      93 -> 98        -0.35784
      94 -> 98         0.36460

 Excited State   9:      Singlet-A      5.2491 eV  236.20 nm  f=0.0004  <S**2>=0.000
      91 -> 97         0.45049
      92 -> 99        -0.13009
      93 -> 99        -0.37771
      94 -> 99        -0.36298

 Excited State  10:      Singlet-A      5.4174 eV  228.86 nm  f=0.0204  <S**2>=0.000
      84 -> 95         0.18460
      85 -> 95         0.64913
      86 -> 95        -0.11179

 The electronic state is 1-A.
 Alpha  occ. eigenvalues -- -101.55442-101.55383 -19.22044 -19.22007 -19.16451
 Alpha  occ. eigenvalues --  -19.16432 -14.42989 -14.42928 -10.35989 -10.35981
 Alpha  occ. eigenvalues --  -10.26820 -10.26820 -10.26371 -10.26303 -10.21723
 Alpha  occ. eigenvalues --  -10.21660 -10.21462 -10.21389 -10.21375 -10.21301
 Alpha  occ. eigenvalues --  -10.21278 -10.21212 -10.21122 -10.21049  -9.47074
 Alpha  occ. eigenvalues --   -9.47016  -7.23470  -7.23412  -7.22504  -7.22466
 Alpha  occ. eigenvalues --   -7.22445  -7.22408  -1.14517  -1.13275  -1.06383
 Alpha  occ. eigenvalues --   -1.04710  -1.04306  -0.89961  -0.89894  -0.85318
 Alpha  occ. eigenvalues --   -0.85132  -0.81340  -0.78352  -0.76901  -0.76832
 Alpha  occ. eigenvalues --   -0.76409  -0.71464  -0.69748  -0.63448  -0.63380
 Alpha  occ. eigenvalues --   -0.62658  -0.60783  -0.59436  -0.57498  -0.56353
 Alpha  occ. eigenvalues --   -0.53272  -0.52793  -0.51309  -0.50755  -0.49891
 Alpha  occ. eigenvalues --   -0.48906  -0.48803  -0.48311  -0.47909  -0.46632
 Alpha  occ. eigenvalues --   -0.45521  -0.44687  -0.44577  -0.43864  -0.43826
 Alpha  occ. eigenvalues --   -0.42220  -0.41740  -0.40987  -0.40255  -0.40114
 Alpha  occ. eigenvalues --   -0.38880  -0.38752  -0.38099  -0.37917  -0.36445
 Alpha  occ. eigenvalues --   -0.36401  -0.33968  -0.33865  -0.32787  -0.32559
 Alpha  occ. eigenvalues --   -0.32112  -0.31827  -0.31743  -0.31002  -0.27233
 Alpha  occ. eigenvalues --   -0.27154  -0.26328  -0.25501  -0.25099
 Alpha virt. eigenvalues --   -0.09007  -0.03266  -0.03095  -0.02242  -0.02164
 Alpha virt. eigenvalues --   -0.00031   0.00188   0.02381   0.02438   0.09666
 Alpha virt. eigenvalues --    0.09769   0.10807   0.10963   0.11931   0.12046

 Mulliken charges:
               1
     1  C    0.150150
     2  C   -0.156417
     3  O   -0.406039
     4  C    0.736771
     5  O   -0.414844
     6  N   -0.234266
     7  N   -0.241445
     8  C    0.737242
     9  O   -0.424797
    10  O   -0.409050
    11  C   -0.155720
    12  C    0.150476
    13  C   -0.164298
    14  C   -0.128227
    15  C   -0.062346
    16  C   -0.129274
    17  C   -0.170938
    18  Cl  -0.014634
    19  C   -0.164171
    20  C   -0.127987
    21  C   -0.062118
    22  C   -0.129003
    23  C   -0.171699
    24  Cl  -0.012119
    25  H    0.174388
    26  H    0.186951
    27  H    0.186057
    28  H    0.173585
    29  H    0.145816
    30  H    0.160885
    31  H    0.162493
    32  H    0.170867
    33  H    0.147167
    34  H    0.162055
    35  H    0.163636
    36  H    0.170852
 Sum of Mulliken charges =  -0.00000

 Dipole moment (field-independent basis, Debye):
    X=              0.1583    Y=             -1.5447    Z=             -0.1009  Tot=              1.5560
 Quadrupole moment (field-independent basis, Debye-Ang):
   XX=           -135.2765   YY=           -155.1692   ZZ=           -143.4632
   XY=             -0.7879   XZ=             11.1484   YZ=              0.3521

 Summary of Natural Population Analysis:

                                       Natural Population
                Natural  -----------------------------------------------
    Atom  No    Charge         Core      Valence    Rydberg      Total
 -----------------------------------------------------------------------
      C    1   -0.09429      1.99901     4.08090    0.01438     6.09429
      C    2   -0.12606      1.99912     4.10776    0.01918     6.12606
      O    3   -0.51981      1.99973     6.50773    0.01234     8.51981
      C    4    0.92349      1.99950     3.02643    0.05058     5.07651
      O    5   -0.55041      1.99977     6.52998    0.02067     8.55041
      N    6   -0.21259      1.99938     5.18706    0.02615     7.21259
      N    7   -0.21622      1.99938     5.19039    0.02644     7.21622
      C    8    0.91802      1.99950     3.03215    0.05033     5.08198
      O    9   -0.55918      1.99977     6.53870    0.02071     8.55918
      O   10   -0.52315      1.99973     6.51116    0.01226     8.52315
      C   11   -0.12412      1.99912     4.10567    0.01933     6.12412
      C   12   -0.09379      1.99901     4.08044    0.01434     6.09379
      C   13   -0.19928      1.99903     4.18716    0.01310     6.19928
      C   14   -0.24350      1.99893     4.22966    0.01491     6.24350
      C   15   -0.03581      1.99856     4.01551    0.02175     6.03581
      C   16   -0.24211      1.99894     4.22826    0.01492     6.24211
      C   17   -0.19888      1.99903     4.18653    0.01332     6.19888
     Cl   18    0.00215      9.99967     6.97889    0.01929    16.99785
      C   19   -0.19849      1.99903     4.18635    0.01311     6.19849
      C   20   -0.24305      1.99893     4.22919    0.01492     6.24305
      C   21   -0.03470      1.99856     4.01436    0.02179     6.03470
      C   22   -0.24212      1.99894     4.22824    0.01495     6.24212
      C   23   -0.19860      1.99903     4.18622    0.01335     6.19860
     Cl   24    0.00413      9.99967     6.97690    0.01930    16.99587
      H   25    0.24401      0.00000     0.75484    0.00115     0.75599
      H   26    0.24427      0.00000     0.75362    0.00211     0.75573
      H   27    0.24357      0.00000     0.75425    0.00218     0.75643
      H   28    0.24348      0.00000     0.75541    0.00111     0.75652
      H   29    0.24374      0.00000     0.75526    0.00101     0.75626
      H   30    0.25636      0.00000     0.74262    0.00102     0.74364
      H   31    0.25707      0.00000     0.74192    0.00100     0.74293
      H   32    0.25855      0.00000     0.74013    0.00132     0.74145
      H   33    0.24446      0.00000     0.75454    0.00100     0.75554
      H   34    0.25696      0.00000     0.74203    0.00101     0.74304
      H   35    0.25770      0.00000     0.74130    0.00100     0.74230
      H   36    0.25822      0.00000     0.74040    0.00138     0.74178
 =======================================================================
   * Total *   -0.00000     63.98135   123.52195    0.49670   188.00000

 Normal termination of Gaussian 16 at Sat Aug 22 18:54:33 2020.
