 Gaussian 16, Revision A.03,

 ---------------------------------
 # opt=CalcAll B3LYP/6-31G* scf=qc
 ---------------------------------

 -------------------
 Title Card Required
 -------------------
 Symbolic Z-matrix:
 Charge =  0 Multiplicity = 1

 SCF Done:  E(RB3LYP) =  -1947.64755606     a.u. after    9 cycles
 SCF Done:  E(RB3LYP) =  -1947.66623889     a.u. after   23 cycles
 SCF Done:  E(RB3LYP) =  -1947.66885471     a.u. after   19 cycles
 SCF Done:  E(RB3LYP) =  -1947.67030855     a.u. after   23 cycles
 SCF Done:  E(RB3LYP) =  -1947.67134413     a.u. after   17 cycles
 SCF Done:  E(RB3LYP) =  -1947.67077801     a.u. after   23 cycles
 SCF Done:  E(RB3LYP) =  -1947.67322748     a.u. after   14 cycles
 SCF Done:  E(RB3LYP) =  -1947.67339397     a.u. after   13 cycles
 SCF Done:  E(RB3LYP) =  -1947.67339776     a.u. after   11 cycles
 SCF Done:  E(RB3LYP) =  -1947.67339821     a.u. after   11 cycles
 SCF Done:  E(RB3LYP) =  -1947.67339837     a.u. after    7 cycles
 SCF Done:  E(RB3LYP) =  -1947.67339840     a.u. after    7 cycles
 SCF Done:  E(RB3LYP) =  -1947.67339839     a.u. after    7 cycles
 Optimization completed on the basis of negligible forces.
    -- Stationary point found.
 Normal termination of Gaussian 16 at Sat Aug 22 17:20:27 2020.

 ----------------------------------------------------------------------
 # freq B3LYP/6-31G* scf=qc volume NMR pop=NPA density=current Geom=All
 Check Guess=Read
 ----------------------------------------------------------------------

 Structure from the checkpoint file:  "azadicarboxylate_3_conf32.chk"
 -------------------
 Title Card Required
 -------------------
 Charge =  0 Multiplicity = 1

 SCF Done:  E(RB3LYP) =  -1947.67339839     a.u. after    1 cycles

      1  C    Isotropic =    63.6818   Anisotropy =   172.1440

      2  C    Isotropic =   121.6565   Anisotropy =    39.8507

      3  O    Isotropic =   138.9484   Anisotropy =   154.5118

      4  C    Isotropic =    34.7583   Anisotropy =    80.1191

      5  O    Isotropic =   -20.3472   Anisotropy =   475.3478

      6  N    Isotropic =  -331.9577   Anisotropy =   686.2483

      7  N    Isotropic =  -334.0169   Anisotropy =   686.9534

      8  C    Isotropic =    34.2598   Anisotropy =    80.9893

      9  O    Isotropic =   -20.9381   Anisotropy =   485.7516

     10  O    Isotropic =   141.8043   Anisotropy =   143.1274

     11  C    Isotropic =   121.4883   Anisotropy =    40.2997

     12  C    Isotropic =    63.7184   Anisotropy =   172.1088

     13  C    Isotropic =    64.2654   Anisotropy =   151.9449

     14  C    Isotropic =    67.4923   Anisotropy =   141.1357

     15  C    Isotropic =    51.2216   Anisotropy =   111.3873

     16  C    Isotropic =    66.6653   Anisotropy =   142.8186

     17  C    Isotropic =    62.7918   Anisotropy =   160.1527

     18  Cl   Isotropic =   718.0945   Anisotropy =   454.5161

     19  C    Isotropic =    64.1233   Anisotropy =   152.4811

     20  C    Isotropic =    67.3482   Anisotropy =   141.1372

     21  C    Isotropic =    51.1070   Anisotropy =   111.2759

     22  C    Isotropic =    66.7173   Anisotropy =   142.3739

     23  C    Isotropic =    62.6689   Anisotropy =   159.0627

     24  Cl   Isotropic =   717.9420   Anisotropy =   454.3883

     25  H    Isotropic =    27.7116   Anisotropy =     5.4112

     26  H    Isotropic =    26.5279   Anisotropy =     3.0532

     27  H    Isotropic =    27.6726   Anisotropy =     5.2644

     28  H    Isotropic =    26.4471   Anisotropy =     3.0686

     29  H    Isotropic =    25.0610   Anisotropy =     6.3123

     30  H    Isotropic =    25.1563   Anisotropy =     6.7426

     31  H    Isotropic =    25.1134   Anisotropy =     7.1262

     32  H    Isotropic =    24.4672   Anisotropy =     7.6646

     33  H    Isotropic =    24.9847   Anisotropy =     6.2328

     34  H    Isotropic =    25.1000   Anisotropy =     6.9215

     35  H    Isotropic =    25.0460   Anisotropy =     7.1353

     36  H    Isotropic =    24.3509   Anisotropy =     7.4124

  Exact polarizability: 202.138  14.613 237.003  -9.939   1.127 187.603
 Approx polarizability: 238.422  22.820 365.182 -18.900  11.230 343.923

                      1                      2                      3
                      A                      A                      A
 Frequencies --      1.2955                 9.2372                21.4871
 Red. masses --      7.0964                13.4235                 5.6334
 Frc consts  --      0.0000                 0.0007                 0.0015
 IR Inten    --      0.2250                 0.0750                 0.1296

                      4                      5                      6
                      A                      A                      A
 Frequencies --     24.4767                28.7360                45.0676
 Red. masses --      4.6691                 6.5784                10.1815
 Frc consts  --      0.0016                 0.0032                 0.0122
 IR Inten    --      0.3041                 0.1399                 2.4248

                      7                      8                      9
                      A                      A                      A
 Frequencies --     48.7037                65.4024                74.6251
 Red. masses --     10.7203                 8.6153                 7.6728
 Frc consts  --      0.0150                 0.0217                 0.0252
 IR Inten    --      0.4900                 0.6839                 0.8645

                     10                     11                     12
                      A                      A                      A
 Frequencies --     90.1533               104.5874               154.0860
 Red. masses --     10.7048                 9.6891                10.4550
 Frc consts  --      0.0513                 0.0624                 0.1463
 IR Inten    --      0.3770                 0.3401                 0.8682

                     13                     14                     15
                      A                      A                      A
 Frequencies --    197.1915               207.2630               219.5664
 Red. masses --      9.9723                 8.9905                 8.4755
 Frc consts  --      0.2285                 0.2276                 0.2407
 IR Inten    --      6.0011                 1.1879                 1.9327

                     16                     17                     18
                      A                      A                      A
 Frequencies --    248.7870               261.2011               293.6032
 Red. masses --     11.5542                 9.0652                 4.3850
 Frc consts  --      0.4214                 0.3644                 0.2227
 IR Inten    --      1.4626                 1.5322                 4.1140

                     19                     20                     21
                      A                      A                      A
 Frequencies --    303.2156               322.4111               354.3403
 Red. masses --      5.1113                 8.5661                 7.9052
 Frc consts  --      0.2769                 0.5246                 0.5848
 IR Inten    --      2.8089                 0.6900                 2.6802

                     22                     23                     24
                      A                      A                      A
 Frequencies --    375.7147               388.0566               410.8137
 Red. masses --      2.8334                 2.3631                 6.1302
 Frc consts  --      0.2357                 0.2097                 0.6096
 IR Inten    --      0.3935                 7.2786                38.8062

                     25                     26                     27
                      A                      A                      A
 Frequencies --    420.5530               420.6476               433.4849
 Red. masses --      3.0350                 3.0493                 6.5286
 Frc consts  --      0.3163                 0.3179                 0.7228
 IR Inten    --      0.0144                 1.0210                21.0470

                     28                     29                     30
                      A                      A                      A
 Frequencies --    458.9511               516.4529               543.2399
 Red. masses --      5.1360                 4.2082                 4.1542
 Frc consts  --      0.6374                 0.6613                 0.7223
 IR Inten    --      3.0063                14.2499                30.2856

                     31                     32                     33
                      A                      A                      A
 Frequencies --    596.3050               626.1285               641.2612
 Red. masses --      5.9527                10.3428                 7.3451
 Frc consts  --      1.2471                 2.3890                 1.7796
 IR Inten    --      9.2689                 1.4171                 4.2169

                     34                     35                     36
                      A                      A                      A
 Frequencies --    648.2426               648.4549               664.7693
 Red. masses --      6.5721                 6.8270                 4.9741
 Frc consts  --      1.6271                 1.6914                 1.2951
 IR Inten    --      0.3573                 0.0303                 0.4129

                     37                     38                     39
                      A                      A                      A
 Frequencies --    667.1983               737.5960               738.2554
 Red. masses --      5.0227                 4.2274                 4.2357
 Frc consts  --      1.3173                 1.3551                 1.3602
 IR Inten    --      6.5929                 0.2663                 7.1516

                     40                     41                     42
                      A                      A                      A
 Frequencies --    812.2145               819.0511               822.8944
 Red. masses --      9.2307                 2.8055                 2.5692
 Frc consts  --      3.5878                 1.1089                 1.0250
 IR Inten    --     11.1644                43.3620                66.0967

                     43                     44                     45
                      A                      A                      A
 Frequencies --    828.1379               843.6233               843.9641
 Red. masses --      4.1894                 1.3012                 1.3055
 Frc consts  --      1.6928                 0.5456                 0.5479
 IR Inten    --     11.3839                 0.6938                 4.0663

                     46                     47                     48
                      A                      A                      A
 Frequencies --    857.0744               862.0477               874.1255
 Red. masses --      2.9877                 2.1895                 3.0821
 Frc consts  --      1.2931                 0.9587                 1.3875
 IR Inten    --    138.0154                18.1980                 5.7915

                     49                     50                     51
                      A                      A                      A
 Frequencies --    934.8208               961.5430               963.1722
 Red. masses --      6.5989                 1.4084                 1.3789
 Frc consts  --      3.3977                 0.7672                 0.7537
 IR Inten    --     13.4119                12.7036                 0.3724

                     52                     53                     54
                      A                      A                      A
 Frequencies --    974.8981               977.6367               980.6920
 Red. masses --      1.6136                 1.3929                 2.4391
 Frc consts  --      0.9036                 0.7844                 1.3821
 IR Inten    --     46.4993                10.5169                75.3048

                     55                     56                     57
                      A                      A                      A
 Frequencies --    987.3441              1024.2568              1025.3025
 Red. masses --      4.1268                 2.5408                 2.4716
 Frc consts  --      2.3703                 1.5705                 1.5308
 IR Inten    --     22.7408                20.1383                10.7669

                     58                     59                     60
                      A                      A                      A
 Frequencies --   1035.3366              1035.4876              1110.7444
 Red. masses --      3.8214                 3.7804                 3.1229
 Frc consts  --      2.4134                 2.3882                 2.2701
 IR Inten    --     27.9120                11.2531                39.4696

                     61                     62                     63
                      A                      A                      A
 Frequencies --   1111.1193              1146.3952              1146.4696
 Red. masses --      3.1249                 1.3243                 1.3244
 Frc consts  --      2.2731                 1.0254                 1.0256
 IR Inten    --    102.5343                 5.4618                 1.1061

                     64                     65                     66
                      A                      A                      A
 Frequencies --   1215.0998              1216.0949              1234.2586
 Red. masses --      1.1858                 1.1439                 4.5571
 Frc consts  --      1.0315                 0.9967                 4.0902
 IR Inten    --     79.6928                 0.9433              1166.8607

                     67                     68                     69
                      A                      A                      A
 Frequencies --   1239.9676              1240.5864              1267.9056
 Red. masses --      3.0595                 3.0117                 2.8135
 Frc consts  --      2.7716                 2.7309                 2.6648
 IR Inten    --     13.6306                23.2879               166.8192

                     70                     71                     72
                      A                      A                      A
 Frequencies --   1296.9278              1302.3658              1336.4579
 Red. masses --      1.4738                 1.8381                 1.8089
 Frc consts  --      1.4605                 1.8369                 1.9036
 IR Inten    --     72.9825               113.4951                 1.0857

                     73                     74                     75
                      A                      A                      A
 Frequencies --   1336.5426              1363.8220              1364.1100
 Red. masses --      1.8203                 2.1478                 2.1351
 Frc consts  --      1.9158                 2.3538                 2.3408
 IR Inten    --      1.2117                 4.5349                 9.5954

                     76                     77                     78
                      A                      A                      A
 Frequencies --   1418.2684              1419.8444              1456.2912
 Red. masses --      1.3546                 1.3645                 2.6021
 Frc consts  --      1.6053                 1.6207                 3.2514
 IR Inten    --     22.1235                23.1786                 5.4042

                     79                     80                     81
                      A                      A                      A
 Frequencies --   1456.4203              1516.9301              1518.0262
 Red. masses --      2.6009                 1.1176                 1.1183
 Frc consts  --      3.2505                 1.5152                 1.5183
 IR Inten    --      8.5490                14.5216                10.5955

                     82                     83                     84
                      A                      A                      A
 Frequencies --   1541.4628              1541.6552              1630.9829
 Red. masses --      2.3088                 2.3064                 6.6798
 Frc consts  --      3.2322                 3.2297                10.4691
 IR Inten    --     25.5711                61.9596                 0.6032

                     85                     86                     87
                      A                      A                      A
 Frequencies --   1631.1632              1655.9124              1656.1472
 Red. masses --      6.6814                 5.6006                 5.5922
 Frc consts  --     10.4740                 9.0482                 9.0371
 IR Inten    --      0.9209                26.0243                34.9916

                     88                     89                     90
                      A                      A                      A
 Frequencies --   1659.4296              1830.1103              1846.7377
 Red. masses --     13.9235                12.1570                12.1284
 Frc consts  --     22.5900                23.9900                24.3705
 IR Inten    --      0.3398                40.5769               437.9570

                     91                     92                     93
                      A                      A                      A
 Frequencies --   3109.1482              3110.7586              3167.0122
 Red. masses --      1.0577                 1.0578                 1.1109
 Frc consts  --      6.0239                 6.0307                 6.5647
 IR Inten    --     21.6997                22.5056                 3.8757

                     94                     95                     96
                      A                      A                      A
 Frequencies --   3167.9915              3189.6916              3189.9677
 Red. masses --      1.1109                 1.0896                 1.0896
 Frc consts  --      6.5687                 6.5318                 6.5329
 IR Inten    --      4.0970                 8.7986                 9.7655

                     97                     98                     99
                      A                      A                      A
 Frequencies --   3212.7305              3213.1691              3225.9800
 Red. masses --      1.0890                 1.0889                 1.0935
 Frc consts  --      6.6226                 6.6239                 6.7047
 IR Inten    --      0.7081                 0.8492                 0.3478

                    100                    101                    102
                      A                      A                      A
 Frequencies --   3225.9923              3228.7490              3228.8096
 Red. masses --      1.0935                 1.0949                 1.0949
 Frc consts  --      6.7047                 6.7248                 6.7253
 IR Inten    --      6.8483                 1.0569                 1.2340

 - Thermochemistry -
 -------------------
 Temperature   298.150 Kelvin.  Pressure   1.00000 Atm.
 Atom     1 has atomic number  6 and mass  12.00000

 Molecular mass:   366.01741 amu.
 Principal axes and moments of inertia in atomic units:
                           1         2         3
     Eigenvalues --  7435.52354********************
           X            1.00000   0.00024   0.00093
           Y           -0.00024   1.00000   0.00090
           Z           -0.00093  -0.00090   1.00000
 This molecule is an asymmetric top.
 Rotational symmetry number  1.
 Warning -- assumption of classical behavior for rotation
           may cause significant error
 Rotational temperatures (Kelvin)      0.01165     0.00337     0.00281
 Rotational constants (GHZ):           0.24272     0.07027     0.05846
 Zero-point vibrational energy     678602.2 (Joules/Mol)
                                  162.18983 (Kcal/Mol)
 Warning -- explicit consideration of  31 degrees of freedom as
           vibrations may cause significant error
 Vibrational temperatures:      1.86    13.29    30.92    35.22    41.34
          (Kelvin)             64.84    70.07    94.10   107.37   129.71
                              150.48   221.70   283.71   298.21   315.91
                              357.95   375.81   422.43   436.26   463.88
                              509.82   540.57   558.33   591.07   605.08
                              605.22   623.69   660.33   743.06   781.60
                              857.95   900.86   922.63   932.68   932.98
                              956.45   959.95  1061.24  1062.18  1168.60
                             1178.43  1183.96  1191.51  1213.79  1214.28
                             1233.14  1240.29  1257.67  1345.00  1383.45
                             1385.79  1402.66  1406.60  1411.00  1420.57
                             1473.68  1475.18  1489.62  1489.84  1598.11
                             1598.65  1649.41  1649.51  1748.26  1749.69
                             1775.82  1784.04  1784.93  1824.23  1865.99
                             1873.81  1922.86  1922.99  1962.24  1962.65
                             2040.57  2042.84  2095.28  2095.46  2182.52
                             2184.10  2217.82  2218.10  2346.62  2346.88
                             2382.49  2382.83  2387.55  2633.12  2657.04
                             4473.37  4475.69  4556.62  4558.03  4589.25
                             4589.65  4622.40  4623.03  4641.47  4641.48
                             4645.45  4645.54

 Zero-point correction=                           0.258466 (Hartree/Particle)
 Thermal correction to Energy=                    0.280382
 Thermal correction to Enthalpy=                  0.281326
 Thermal correction to Gibbs Free Energy=         0.197517
 Sum of electronic and zero-point Energies=          -1947.414932
 Sum of electronic and thermal Energies=             -1947.393017
 Sum of electronic and thermal Enthalpies=           -1947.392073
 Sum of electronic and thermal Free Energies=        -1947.475882

                     E (Thermal)             CV                S
                      KCal/Mol        Cal/Mol-Kelvin    Cal/Mol-Kelvin
 Total                  175.942             79.073            176.391
 Electronic               0.000              0.000              0.000
 Translational            0.889              2.981             43.586
 Rotational               0.889              2.981             37.020
 Vibrational            174.165             73.112             95.786
 Vibration     1          0.592              1.987             12.072
 Vibration     2          0.593              1.987              8.169
 Vibration     3          0.593              1.985              6.492
 Vibration     4          0.593              1.985              6.233
 Vibration     5          0.593              1.984              5.915
 Vibration     6          0.595              1.979              5.023
 Vibration     7          0.595              1.978              4.869
 Vibration     8          0.597              1.971              4.287
 Vibration     9          0.599              1.966              4.027
 Vibration    10          0.602              1.956              3.657
 Vibration    11          0.605              1.946              3.367
 Vibration    12          0.620              1.898              2.621
 Vibration    13          0.637              1.844              2.159
 Vibration    14          0.641              1.830              2.068
 Vibration    15          0.647              1.811              1.963
 Vibration    16          0.662              1.765              1.739
 Vibration    17          0.669              1.744              1.654
 Vibration    18          0.688              1.686              1.453
 Vibration    19          0.695              1.668              1.399
 Vibration    20          0.707              1.631              1.298
 Vibration    21          0.730              1.566              1.147
 Vibration    22          0.747              1.522              1.056
 Vibration    23          0.756              1.496              1.008
 Vibration    24          0.775              1.447              0.924
 Vibration    25          0.783              1.426              0.890
 Vibration    26          0.783              1.425              0.890
 Vibration    27          0.794              1.397              0.847
 Vibration    28          0.817              1.341              0.769
 Vibration    29          0.871              1.214              0.618
 Vibration    30          0.898              1.154              0.558
 Vibration    31          0.954              1.040              0.456

 Optimization completed on the basis of negligible forces.
    -- Stationary point found.
 Normal termination of Gaussian 16 at Sat Aug 22 17:33:04 2020.
 Gaussian 16:  ES64L-G16RevA.03 25-Dec-2016

 ----------------------------------------------------------------------
 # TD(NStates=10, Root=1) B3LYP/6-31G* scf=qc volume pop=NPA density=cu
 rrent Geom=AllCheck Guess=Read
 ----------------------------------------------------------------------

 Structure from the checkpoint file:  "azadicarboxylate_3_conf33.chk"
 -------------------
 Title Card Required
 -------------------
 Charge =  0 Multiplicity = 1

                         Standard orientation:
 ---------------------------------------------------------------------
 Center     Atomic      Atomic             Coordinates (Angstroms)
 Number     Number       Type             X           Y           Z
 ---------------------------------------------------------------------
      1          6           0        4.170946   -0.657269    0.711737
      2          6           0        3.415417   -1.878303    1.163519
      3          8           0        1.972331   -1.730944    0.953066
      4          6           0        1.508260   -2.123506   -0.232080
      5          8           0        2.126685   -2.581242   -1.160106
      6          7           0        0.095057   -1.797754   -0.298683
      7          7           0       -0.626523   -2.809267   -0.366527
      8          6           0       -2.026847   -2.492679   -0.553476
      9          8           0       -2.553364   -2.589228   -1.633873
     10          8           0       -2.594698   -2.226678    0.620558
     11          6           0       -4.048345   -2.029188    0.606152
     12          6           0       -4.413496   -0.585619    0.387279
     13          6           0       -4.567118    0.277495    1.478757
     14          6           0       -4.899435    1.618259    1.292925
     15          6           0       -5.078502    2.095136   -0.005150
     16          6           0       -4.930243    1.256951   -1.110123
     17          6           0       -4.597868   -0.081228   -0.907097
     18         17           0       -5.502963    3.782250   -0.252185
     19          6           0        4.371996    0.414202    1.590470
     20          6           0        5.062372    1.555105    1.185667
     21          6           0        5.555696    1.618388   -0.117279
     22          6           0        5.368322    0.566017   -1.013084
     23          6           0        4.675054   -0.567822   -0.592656
     24         17           0        6.433100    3.049175   -0.637474
     25          1           0        3.499230   -2.025917    2.241273
     26          1           0        3.746043   -2.777472    0.640920
     27          1           0       -4.360955   -2.376819    1.591982
     28          1           0       -4.468467   -2.676702   -0.165608
     29          1           0       -4.427844   -0.099817    2.488928
     30          1           0       -5.020878    2.284543    2.140120
     31          1           0       -5.074166    1.646628   -2.112068
     32          1           0       -4.469492   -0.738949   -1.761342
     33          1           0        3.986684    0.359006    2.605692
     34          1           0        5.219598    2.382724    1.868859
     35          1           0        5.759894    0.634004   -2.022306
     36          1           0        4.513393   -1.387199   -1.286305
 ---------------------------------------------------------------------

 SCF Done:  E(RB3LYP) =  -1947.67339839     a.u. after    1 cycles

 Excitation energies and oscillator strengths:

 Excited State   1:      Singlet-A      2.8502 eV  435.01 nm  f=0.0001  <S**2>=0.000
      92 -> 95         0.46352
      94 -> 95         0.52502
 This state for optimization and/or second-order correction.
 Total Energy, E(TD-HF/TD-DFT) =  -1947.56865661
 Copying the excited state density for this state as the 1-particle RhoCI density.

 Excited State   2:      Singlet-A      3.9640 eV  312.77 nm  f=0.0118  <S**2>=0.000
      92 -> 95        -0.23178
      93 -> 95         0.63254
      94 -> 95         0.20804

 Excited State   3:      Singlet-A      3.9869 eV  310.98 nm  f=0.0286  <S**2>=0.000
      92 -> 95         0.47157
      93 -> 95         0.31124
      94 -> 95        -0.42167

 Excited State   4:      Singlet-A      4.4061 eV  281.39 nm  f=0.0008  <S**2>=0.000
      90 -> 95         0.70508

 Excited State   5:      Singlet-A      4.4155 eV  280.79 nm  f=0.0005  <S**2>=0.000
      91 -> 95         0.70407

 Excited State   6:      Singlet-A      4.9489 eV  250.53 nm  f=0.0090  <S**2>=0.000
      87 -> 95         0.29471
      88 -> 95        -0.21541
      89 -> 95         0.57041

 Excited State   7:      Singlet-A      5.1264 eV  241.85 nm  f=0.0827  <S**2>=0.000
      86 -> 95        -0.37045
      88 -> 95         0.53499
      89 -> 95         0.22479

 Excited State   8:      Singlet-A      5.2486 eV  236.22 nm  f=0.0004  <S**2>=0.000
      90 -> 96        -0.39960
      90 -> 97        -0.20908
      92 -> 98        -0.15799
      93 -> 98         0.41002
      94 -> 98         0.31408

 Excited State   9:      Singlet-A      5.2501 eV  236.16 nm  f=0.0006  <S**2>=0.000
      91 -> 96        -0.21278
      91 -> 97         0.39324
      92 -> 99        -0.20132
      93 -> 99        -0.31908
      94 -> 99         0.38906

 Excited State  10:      Singlet-A      5.4212 eV  228.70 nm  f=0.0083  <S**2>=0.000
      84 -> 95        -0.36615
      85 -> 95         0.57896

 The electronic state is 1-A.
 Alpha  occ. eigenvalues -- -101.55440-101.55427 -19.22104 -19.21921 -19.16509
 Alpha  occ. eigenvalues --  -19.16399 -14.43022 -14.42902 -10.36047 -10.35878
 Alpha  occ. eigenvalues --  -10.26902 -10.26830 -10.26367 -10.26355 -10.21735
 Alpha  occ. eigenvalues --  -10.21708 -10.21486 -10.21461 -10.21386 -10.21369
 Alpha  occ. eigenvalues --  -10.21264 -10.21250 -10.21089 -10.21083  -9.47073
 Alpha  occ. eigenvalues --   -9.47060  -7.23469  -7.23456  -7.22503  -7.22490
 Alpha  occ. eigenvalues --   -7.22465  -7.22452  -1.14477  -1.13264  -1.06599
 Alpha  occ. eigenvalues --   -1.04695  -1.04107  -0.89962  -0.89944  -0.85347
 Alpha  occ. eigenvalues --   -0.85171  -0.81424  -0.78462  -0.76900  -0.76883
 Alpha  occ. eigenvalues --   -0.76375  -0.71644  -0.69617  -0.63445  -0.63433
 Alpha  occ. eigenvalues --   -0.62798  -0.60710  -0.59375  -0.57337  -0.56173
 Alpha  occ. eigenvalues --   -0.53288  -0.52809  -0.51308  -0.50585  -0.50146
 Alpha  occ. eigenvalues --   -0.48966  -0.48837  -0.48225  -0.47955  -0.46627
 Alpha  occ. eigenvalues --   -0.45556  -0.44679  -0.44635  -0.43917  -0.43794
 Alpha  occ. eigenvalues --   -0.42397  -0.41826  -0.41012  -0.40318  -0.40105
 Alpha  occ. eigenvalues --   -0.38954  -0.38736  -0.38138  -0.37861  -0.36486
 Alpha  occ. eigenvalues --   -0.36428  -0.33971  -0.33898  -0.32721  -0.32609
 Alpha  occ. eigenvalues --   -0.31911  -0.31869  -0.31661  -0.31583  -0.27227
 Alpha  occ. eigenvalues --   -0.27214  -0.26123  -0.25549  -0.25079
 Alpha virt. eigenvalues --   -0.09153  -0.03186  -0.03113  -0.02241  -0.02220
 Alpha virt. eigenvalues --   -0.00147   0.00404   0.02375   0.02410   0.09581
 Alpha virt. eigenvalues --    0.09749   0.10688   0.10913   0.11948   0.12091

 Mulliken charges:
               1
     1  C    0.150771
     2  C   -0.157779
     3  O   -0.409925
     4  C    0.739486
     5  O   -0.406950
     6  N   -0.238781
     7  N   -0.237118
     8  C    0.735026
     9  O   -0.415593
    10  O   -0.409358
    11  C   -0.157719
    12  C    0.152092
    13  C   -0.165597
    14  C   -0.128214
    15  C   -0.062472
    16  C   -0.129137
    17  C   -0.172451
    18  Cl  -0.014621
    19  C   -0.164976
    20  C   -0.127988
    21  C   -0.062460
    22  C   -0.129046
    23  C   -0.172164
    24  Cl  -0.013228
    25  H    0.172475
    26  H    0.186198
    27  H    0.172250
    28  H    0.187043
    29  H    0.143744
    30  H    0.160168
    31  H    0.163366
    32  H    0.172247
    33  H    0.144882
    34  H    0.161082
    35  H    0.163773
    36  H    0.170974
 Sum of Mulliken charges =  -0.00000

 Dipole moment (field-independent basis, Debye):
    X=             -0.2695    Y=             -1.0190    Z=              3.8145  Tot=              3.9575
 Quadrupole moment (field-independent basis, Debye-Ang):
   XX=           -139.6807   YY=           -157.0875   ZZ=           -141.8664
   XY=              1.0189   XZ=              0.2319   YZ=             -5.8165

 Summary of Natural Population Analysis:

                                       Natural Population
                Natural  -----------------------------------------------
    Atom  No    Charge         Core      Valence    Rydberg      Total
 -----------------------------------------------------------------------
      C    1   -0.09450      1.99901     4.08108    0.01441     6.09450
      C    2   -0.12711      1.99913     4.10873    0.01926     6.12711
      O    3   -0.51957      1.99973     6.50760    0.01224     8.51957
      C    4    0.91488      1.99951     3.03462    0.05100     5.08512
      O    5   -0.53958      1.99977     6.51914    0.02068     8.53958
      N    6   -0.21386      1.99938     5.18831    0.02617     7.21386
      N    7   -0.21636      1.99939     5.19051    0.02646     7.21636
      C    8    0.92256      1.99951     3.02744    0.05050     5.07744
      O    9   -0.55217      1.99977     6.53165    0.02075     8.55217
      O   10   -0.52289      1.99973     6.51087    0.01229     8.52289
      C   11   -0.12498      1.99912     4.10659    0.01926     6.12498
      C   12   -0.09425      1.99901     4.08087    0.01436     6.09425
      C   13   -0.20031      1.99903     4.18823    0.01306     6.20031
      C   14   -0.24375      1.99893     4.22991    0.01491     6.24375
      C   15   -0.03620      1.99856     4.01589    0.02176     6.03620
      C   16   -0.24147      1.99894     4.22761    0.01493     6.24147
      C   17   -0.19930      1.99903     4.18695    0.01332     6.19930
     Cl   18    0.00209      9.99967     6.97893    0.01930    16.99791
      C   19   -0.19996      1.99903     4.18783    0.01310     6.19996
      C   20   -0.24317      1.99893     4.22932    0.01491     6.24317
      C   21   -0.03569      1.99856     4.01536    0.02178     6.03569
      C   22   -0.24173      1.99894     4.22784    0.01495     6.24173
      C   23   -0.19919      1.99903     4.18689    0.01327     6.19919
     Cl   24    0.00319      9.99967     6.97783    0.01930    16.99681
      H   25    0.24260      0.00000     0.75633    0.00106     0.75740
      H   26    0.24352      0.00000     0.75439    0.00208     0.75648
      H   27    0.24239      0.00000     0.75649    0.00112     0.75761
      H   28    0.24391      0.00000     0.75391    0.00217     0.75609
      H   29    0.24267      0.00000     0.75632    0.00101     0.75733
      H   30    0.25600      0.00000     0.74298    0.00102     0.74400
      H   31    0.25750      0.00000     0.74150    0.00100     0.74250
      H   32    0.25907      0.00000     0.73958    0.00135     0.74093
      H   33    0.24333      0.00000     0.75567    0.00101     0.75667
      H   34    0.25645      0.00000     0.74253    0.00102     0.74355
      H   35    0.25777      0.00000     0.74123    0.00100     0.74223
      H   36    0.25810      0.00000     0.74063    0.00127     0.74190
 =======================================================================
   * Total *   -0.00000     63.98137   123.52156    0.49707   188.00000

 Normal termination of Gaussian 16 at Sat Aug 22 17:45:57 2020.
