 Gaussian 16, Revision A.03,

 ---------------------------------
 # opt=CalcAll B3LYP/6-31G* scf=qc
 ---------------------------------

 -------------------
 Title Card Required
 -------------------
 Symbolic Z-matrix:
 Charge =  0 Multiplicity = 1

 SCF Done:  E(RB3LYP) =  -723.600263793     a.u. after    9 cycles
 SCF Done:  E(RB3LYP) =  -723.614224253     a.u. after   17 cycles
 SCF Done:  E(RB3LYP) =  -723.641283814     a.u. after   17 cycles
 SCF Done:  E(RB3LYP) =  -723.647731057     a.u. after   27 cycles
 SCF Done:  E(RB3LYP) =  -723.648817823     a.u. after   13 cycles
 SCF Done:  E(RB3LYP) =  -723.648942092     a.u. after   13 cycles
 SCF Done:  E(RB3LYP) =  -723.648955351     a.u. after   11 cycles
 SCF Done:  E(RB3LYP) =  -723.648956181     a.u. after    5 cycles
 SCF Done:  E(RB3LYP) =  -723.648956285     a.u. after    4 cycles
 Optimization completed on the basis of negligible forces.
    -- Stationary point found.
 Normal termination of Gaussian 16 at Sat Aug 22 14:06:44 2020.

 ----------------------------------------------------------------------
 # freq B3LYP/6-31G* scf=qc volume NMR pop=NPA density=current Geom=All
 Check Guess=Read
 ----------------------------------------------------------------------

 Structure from the checkpoint file:  "azadicarboxylate_2_conf52.chk"
 -------------------
 Title Card Required
 -------------------
 Charge =  0 Multiplicity = 1

 SCF Done:  E(RB3LYP) =  -723.648956285     a.u. after    1 cycles

      1  C    Isotropic =   168.6629   Anisotropy =    31.0699

      2  C    Isotropic =   118.4711   Anisotropy =    63.2818

      3  C    Isotropic =   168.2622   Anisotropy =    30.1766

      4  O    Isotropic =   126.4562   Anisotropy =   139.1948

      5  C    Isotropic =    35.4937   Anisotropy =    82.4660

      6  O    Isotropic =   -18.4745   Anisotropy =   472.7278

      7  N    Isotropic =  -331.0594   Anisotropy =   687.2094

      8  N    Isotropic =  -346.2532   Anisotropy =   701.3766

      9  C    Isotropic =    34.7466   Anisotropy =    70.8591

     10  O    Isotropic =   -27.6811   Anisotropy =   471.5059

     11  O    Isotropic =   138.2797   Anisotropy =   151.0092

     12  C    Isotropic =   113.2215   Anisotropy =    71.9902

     13  C    Isotropic =   169.5401   Anisotropy =    27.8508

     14  C    Isotropic =   170.3753   Anisotropy =    27.9073

     15  H    Isotropic =    31.0974   Anisotropy =     8.5394

     16  H    Isotropic =    30.9018   Anisotropy =     6.7063

     17  H    Isotropic =    30.1288   Anisotropy =     7.3597

     18  H    Isotropic =    27.0215   Anisotropy =     2.7474

     19  H    Isotropic =    30.7365   Anisotropy =     6.4801

     20  H    Isotropic =    31.1045   Anisotropy =     8.3557

     21  H    Isotropic =    30.7773   Anisotropy =     8.7078

     22  H    Isotropic =    27.5958   Anisotropy =     4.2457

     23  H    Isotropic =    29.7402   Anisotropy =     5.3033

     24  H    Isotropic =    30.7055   Anisotropy =     8.1761

     25  H    Isotropic =    31.1874   Anisotropy =     8.4454

     26  H    Isotropic =    29.5798   Anisotropy =     5.6249

     27  H    Isotropic =    31.1315   Anisotropy =     8.3322

     28  H    Isotropic =    30.5751   Anisotropy =     8.2357

  Exact polarizability: 155.025  -0.070  98.000  -1.603   0.517  85.999
 Approx polarizability: 175.198  -3.299 155.120  -0.620   1.832 126.454

                      1                      2                      3
                      A                      A                      A
 Frequencies --      8.2905                36.8815                41.8370
 Red. masses --      4.0074                 3.4595                 6.9127
 Frc consts  --      0.0002                 0.0028                 0.0071
 IR Inten    --      0.4247                 1.1434                 0.4387

                      4                      5                      6
                      A                      A                      A
 Frequencies --     45.5895                68.0725                87.0717
 Red. masses --      4.1864                 5.3739                 4.8451
 Frc consts  --      0.0051                 0.0147                 0.0216
 IR Inten    --      0.6247                 0.3088                 0.2268

                      7                      8                      9
                      A                      A                      A
 Frequencies --    109.0763               172.2523               185.3002
 Red. masses --      3.4721                 5.9371                 4.0046
 Frc consts  --      0.0243                 0.1038                 0.0810
 IR Inten    --      0.2409                 0.4652                 2.2387

                     10                     11                     12
                      A                      A                      A
 Frequencies --    213.7076               222.9616               230.9145
 Red. masses --      3.0864                 1.0868                 1.0900
 Frc consts  --      0.0831                 0.0318                 0.0342
 IR Inten    --      8.5211                 0.8293                 0.0724

                     13                     14                     15
                      A                      A                      A
 Frequencies --    246.8672               250.1049               268.6802
 Red. masses --      3.1065                 1.0822                 1.6121
 Frc consts  --      0.1115                 0.0399                 0.0686
 IR Inten    --      3.5413                 0.2008                 2.2011

                     16                     17                     18
                      A                      A                      A
 Frequencies --    312.9467               348.1712               404.6683
 Red. masses --      3.0621                 2.7821                 3.6506
 Frc consts  --      0.1767                 0.1987                 0.3522
 IR Inten    --      3.7609                 1.0894                 5.1377

                     19                     20                     21
                      A                      A                      A
 Frequencies --    417.6091               427.2243               467.4769
 Red. masses --      3.5416                 3.2994                 3.4339
 Frc consts  --      0.3639                 0.3548                 0.4421
 IR Inten    --      8.4177                16.6901                 4.9552

                     22                     23                     24
                      A                      A                      A
 Frequencies --    485.3721               532.4801               640.5757
 Red. masses --      3.1629                 4.6425                 5.6791
 Frc consts  --      0.4390                 0.7756                 1.3730
 IR Inten    --      4.2431                 4.5080                 2.4354

                     25                     26                     27
                      A                      A                      A
 Frequencies --    668.9727               792.5293               815.3935
 Red. masses --      9.0830                 5.8406                 7.7708
 Frc consts  --      2.3949                 2.1614                 3.0440
 IR Inten    --      1.7618                30.9318                22.8541

                     28                     29                     30
                      A                      A                      A
 Frequencies --    840.7453               855.7818               904.6614
 Red. masses --      3.3707                 7.0991                 3.2951
 Frc consts  --      1.4038                 3.0632                 1.5889
 IR Inten    --     11.2013                 8.5029                49.2394

                     31                     32                     33
                      A                      A                      A
 Frequencies --    929.2254               949.9543               950.3679
 Red. masses --      3.1579                 1.2815                 1.2538
 Frc consts  --      1.6065                 0.6814                 0.6672
 IR Inten    --      1.4931                 1.3640                 0.6215

                     34                     35                     36
                      A                      A                      A
 Frequencies --    957.2639               962.1663               976.8729
 Red. masses --      1.3114                 1.3694                 4.9029
 Frc consts  --      0.7080                 0.7470                 2.7566
 IR Inten    --      0.4149                 2.7082                 8.9858

                     37                     38                     39
                      A                      A                      A
 Frequencies --    993.3049              1145.8433              1168.3111
 Red. masses --      8.7271                 1.8486                 1.9218
 Frc consts  --      5.0732                 1.4300                 1.5455
 IR Inten    --      1.3640               238.8676               114.9593

                     40                     41                     42
                      A                      A                      A
 Frequencies --   1171.5722              1175.1160              1218.5196
 Red. masses --      2.1506                 2.0295                 1.9570
 Frc consts  --      1.7392                 1.6512                 1.7120
 IR Inten    --     10.8638                 8.6181                39.9403

                     43                     44                     45
                      A                      A                      A
 Frequencies --   1219.0878              1254.0780              1290.6557
 Red. masses --      1.9352                 5.5002                 6.4069
 Frc consts  --      1.6945                 5.0966                 6.2881
 IR Inten    --     10.5347              1106.5136               258.7559

                     46                     47                     48
                      A                      A                      A
 Frequencies --   1383.6859              1391.3323              1400.0011
 Red. masses --      1.4041                 1.3206                 1.2517
 Frc consts  --      1.5838                 1.5062                 1.4455
 IR Inten    --      6.8364                 3.2541                 4.4276

                     49                     50                     51
                      A                      A                      A
 Frequencies --   1421.2044              1430.7099              1433.1792
 Red. masses --      1.3098                 1.3277                 1.3397
 Frc consts  --      1.5587                 1.6012                 1.6213
 IR Inten    --     22.7793                18.5433                16.7895

                     52                     53                     54
                      A                      A                      A
 Frequencies --   1445.0317              1448.5945              1511.1721
 Red. masses --      1.2416                 1.2592                 1.0482
 Frc consts  --      1.5276                 1.5568                 1.4103
 IR Inten    --     17.8647                 7.2337                 0.1180

                     55                     56                     57
                      A                      A                      A
 Frequencies --   1511.7672              1516.6325              1522.1953
 Red. masses --      1.0543                 1.0440                 1.0470
 Frc consts  --      1.4196                 1.4149                 1.4293
 IR Inten    --      1.8386                 1.1972                16.2858

                     58                     59                     60
                      A                      A                      A
 Frequencies --   1525.6725              1526.6473              1540.0718
 Red. masses --      1.0508                 1.0485                 1.0495
 Frc consts  --      1.4412                 1.4397                 1.4666
 IR Inten    --      3.6260                 0.0677                 9.6913

                     61                     62                     63
                      A                      A                      A
 Frequencies --   1546.6434              1660.0949              1829.6700
 Red. masses --      1.0540                13.9892                12.3991
 Frc consts  --      1.4855                22.7148                24.4561
 IR Inten    --      7.3215                 0.1650                64.7286

                     64                     65                     66
                      A                      A                      A
 Frequencies --   1846.2760              3058.3513              3062.4486
 Red. masses --     12.2577                 1.0354                 1.0374
 Frc consts  --     24.6180                 5.7062                 5.7322
 IR Inten    --    455.3029                11.0744                15.7575

                     67                     68                     69
                      A                      A                      A
 Frequencies --   3062.8371              3066.5738              3095.8485
 Red. masses --      1.0360                 1.0382                 1.0866
 Frc consts  --      5.7260                 5.7524                 6.1360
 IR Inten    --     15.9435                10.8982                19.8987

                     70                     71                     72
                      A                      A                      A
 Frequencies --   3098.4276              3126.4566              3127.4321
 Red. masses --      1.0875                 1.1029                 1.1016
 Frc consts  --      6.1510                 6.3517                 6.3480
 IR Inten    --      1.7424                 2.4119                11.3640

                     73                     74                     75
                      A                      A                      A
 Frequencies --   3130.1064              3136.2389              3139.3797
 Red. masses --      1.1020                 1.1017                 1.1027
 Frc consts  --      6.3613                 6.3844                 6.4033
 IR Inten    --     32.9488                40.1259                23.9137

                     76                     77                     78
                      A                      A                      A
 Frequencies --   3148.5869              3161.9634              3166.6536
 Red. masses --      1.1026                 1.1022                 1.1011
 Frc consts  --      6.4404                 6.4926                 6.5053
 IR Inten    --     15.2098                 1.9424                19.8463

 - Thermochemistry -
 -------------------
 Temperature   298.150 Kelvin.  Pressure   1.00000 Atm.
 Atom     1 has atomic number  6 and mass  12.00000

 Molecular mass:   202.09536 amu.
 Principal axes and moments of inertia in atomic units:
                           1         2         3
     Eigenvalues --  1045.434227387.697287799.88048
           X            1.00000  -0.00175  -0.00108
           Y            0.00174   0.99999  -0.00465
           Z            0.00109   0.00465   0.99999
 This molecule is an asymmetric top.
 Rotational symmetry number  1.
 Warning -- assumption of classical behavior for rotation
           may cause significant error
 Rotational temperatures (Kelvin)      0.08285     0.01172     0.01110
 Rotational constants (GHZ):           1.72631     0.24429     0.23138
 Zero-point vibrational energy     597752.7 (Joules/Mol)
                                  142.86632 (Kcal/Mol)
 Warning -- explicit consideration of  23 degrees of freedom as
           vibrations may cause significant error
 Vibrational temperatures:     11.93    53.06    60.19    65.59    97.94
          (Kelvin)            125.28   156.94   247.83   266.61   307.48
                              320.79   332.23   355.19   359.85   386.57
                              450.26   500.94   582.23   600.85   614.68
                              672.60   698.34   766.12   921.65   962.50
                             1140.27  1173.17  1209.64  1231.28  1301.61
                             1336.95  1366.77  1367.37  1377.29  1384.34
                             1405.50  1429.14  1648.61  1680.94  1685.63
                             1690.73  1753.18  1754.00  1804.34  1856.97
                             1990.82  2001.82  2014.29  2044.80  2058.47
                             2062.03  2079.08  2084.20  2174.24  2175.10
                             2182.10  2190.10  2195.10  2196.51  2215.82
                             2225.27  2388.51  2632.49  2656.38  4400.29
                             4406.18  4406.74  4412.12  4454.24  4457.95
                             4498.27  4499.68  4503.52  4512.35  4516.87
                             4530.11  4549.36  4556.11

 Zero-point correction=                           0.227672 (Hartree/Particle)
 Thermal correction to Energy=                    0.243939
 Thermal correction to Enthalpy=                  0.244883
 Thermal correction to Gibbs Free Energy=         0.180612
 Sum of electronic and zero-point Energies=           -723.421284
 Sum of electronic and thermal Energies=              -723.405018
 Sum of electronic and thermal Enthalpies=            -723.404073
 Sum of electronic and thermal Free Energies=         -723.468344

                     E (Thermal)             CV                S
                      KCal/Mol        Cal/Mol-Kelvin    Cal/Mol-Kelvin
 Total                  153.074             56.285            135.270
 Electronic               0.000              0.000              0.000
 Translational            0.889              2.981             41.815
 Rotational               0.889              2.981             32.466
 Vibrational            151.296             50.323             60.989
 Vibration     1          0.593              1.987              8.384
 Vibration     2          0.594              1.982              5.420
 Vibration     3          0.594              1.980              5.170
 Vibration     4          0.595              1.979              5.000
 Vibration     5          0.598              1.969              4.208
 Vibration     6          0.601              1.958              3.725
 Vibration     7          0.606              1.942              3.285
 Vibration     8          0.626              1.877              2.411
 Vibration     9          0.631              1.860              2.274
 Vibration    10          0.644              1.820              2.012
 Vibration    11          0.649              1.806              1.935
 Vibration    12          0.653              1.794              1.872
 Vibration    13          0.661              1.768              1.753
 Vibration    14          0.663              1.763              1.730
 Vibration    15          0.673              1.731              1.605
 Vibration    16          0.701              1.649              1.347
 Vibration    17          0.726              1.579              1.174
 Vibration    18          0.770              1.460              0.946
 Vibration    19          0.781              1.432              0.900
 Vibration    20          0.789              1.411              0.868
 Vibration    21          0.825              1.322              0.745
 Vibration    22          0.841              1.282              0.696
 Vibration    23          0.887              1.178              0.582

 Optimization completed on the basis of negligible forces.
    -- Stationary point found.
 Normal termination of Gaussian 16 at Sat Aug 22 14:10:57 2020.
 Gaussian 16:  ES64L-G16RevA.03 25-Dec-2016

 ----------------------------------------------------------------------
 # TD(NStates=10, Root=1) B3LYP/6-31G* scf=qc volume pop=NPA density=cu
 rrent Geom=AllCheck Guess=Read
 ----------------------------------------------------------------------

 Structure from the checkpoint file:  "azadicarboxylate_2_conf53.chk"
 -------------------
 Title Card Required
 -------------------
 Charge =  0 Multiplicity = 1

                         Standard orientation:
 ---------------------------------------------------------------------
 Center     Atomic      Atomic             Coordinates (Angstroms)
 Number     Number       Type             X           Y           Z
 ---------------------------------------------------------------------
      1          6           0       -4.613988   -0.214989    0.961219
      2          6           0       -3.856700    0.366496   -0.226493
      3          6           0       -4.253212    1.793186   -0.573370
      4          8           0       -2.426085    0.420791    0.097572
      5          6           0       -1.725680   -0.696048   -0.089944
      6          8           0       -2.123351   -1.768476   -0.470575
      7          7           0       -0.361634   -0.446303    0.358782
      8          7           0        0.475726   -0.706166   -0.524263
      9          6           0        1.844081   -0.581610   -0.057315
     10          8           0        2.429217   -1.520388    0.423058
     11          8           0        2.294145    0.629790   -0.360880
     12          6           0        3.707511    0.971713   -0.116467
     13          6           0        4.026643    0.951819    1.374660
     14          6           0        4.634986    0.119529   -0.976261
     15          1           0       -5.686495   -0.245506    0.739006
     16          1           0       -4.463282    0.401473    1.854065
     17          1           0       -4.280335   -1.234787    1.171365
     18          1           0       -3.963905   -0.289618   -1.094993
     19          1           0       -4.103108    2.457707    0.284220
     20          1           0       -5.311071    1.826186   -0.854955
     21          1           0       -3.660188    2.170211   -1.412181
     22          1           0        3.730229    2.004245   -0.476000
     23          1           0        4.023640   -0.066775    1.768537
     24          1           0        3.298859    1.550844    1.931429
     25          1           0        5.019435    1.387099    1.535120
     26          1           0        4.643037   -0.920531   -0.643305
     27          1           0        5.653795    0.517089   -0.907088
     28          1           0        4.327498    0.155334   -2.026416
 ---------------------------------------------------------------------

 SCF Done:  E(RB3LYP) =  -723.648956285     a.u. after    1 cycles

 Excitation energies and oscillator strengths:

 Excited State   1:      Singlet-A      2.7630 eV  448.73 nm  f=0.0003  <S**2>=0.000
      54 -> 55         0.70097
 This state for optimization and/or second-order correction.
 Total Energy, E(TD-HF/TD-DFT) =  -723.547417836
 Copying the excited state density for this state as the 1-particle RhoCI density.

 Excited State   2:      Singlet-A      4.7218 eV  262.58 nm  f=0.0004  <S**2>=0.000
      52 -> 55         0.31128
      53 -> 55         0.60455

 Excited State   3:      Singlet-A      4.9958 eV  248.18 nm  f=0.0682  <S**2>=0.000
      50 -> 55        -0.12396
      52 -> 55         0.59151
      53 -> 55        -0.32764

 Excited State   4:      Singlet-A      5.2964 eV  234.09 nm  f=0.0041  <S**2>=0.000
      50 -> 55         0.30532
      51 -> 55         0.62960

 Excited State   5:      Singlet-A      5.3781 eV  230.54 nm  f=0.0060  <S**2>=0.000
      50 -> 55         0.59433
      51 -> 55        -0.29557
      52 -> 55         0.17836

 Excited State   6:      Singlet-A      5.5917 eV  221.73 nm  f=0.0219  <S**2>=0.000
      53 -> 56         0.16882
      54 -> 56         0.66287

 Excited State   7:      Singlet-A      5.9256 eV  209.23 nm  f=0.0250  <S**2>=0.000
      50 -> 55        -0.11459
      54 -> 57         0.67174

 Excited State   8:      Singlet-A      6.3743 eV  194.51 nm  f=0.0002  <S**2>=0.000
      49 -> 55         0.68188

 Excited State   9:      Singlet-A      6.5044 eV  190.62 nm  f=0.0012  <S**2>=0.000
      44 -> 55         0.10353
      45 -> 55         0.12219
      48 -> 55         0.67384

 Excited State  10:      Singlet-A      6.7280 eV  184.28 nm  f=0.0113  <S**2>=0.000
      47 -> 55        -0.17807
      52 -> 56        -0.30750
      53 -> 56         0.56156
      54 -> 56        -0.16782

 The electronic state is 1-A.
 Alpha  occ. eigenvalues --  -19.20797 -19.20613 -19.15356 -19.15268 -14.41951
 Alpha  occ. eigenvalues --  -14.41737 -10.35049 -10.34719 -10.26571 -10.26087
 Alpha  occ. eigenvalues --  -10.19139 -10.18848 -10.18835 -10.18808  -1.13279
 Alpha  occ. eigenvalues --   -1.12065  -1.05549  -1.03635  -1.02890  -0.82300
 Alpha  occ. eigenvalues --   -0.80630  -0.76272  -0.70505  -0.70434  -0.66885
 Alpha  occ. eigenvalues --   -0.63046  -0.57430  -0.55749  -0.52289  -0.50764
 Alpha  occ. eigenvalues --   -0.50067  -0.48517  -0.47603  -0.46641  -0.46249
 Alpha  occ. eigenvalues --   -0.44357  -0.43137  -0.42683  -0.41413  -0.40633
 Alpha  occ. eigenvalues --   -0.40293  -0.39985  -0.39316  -0.38077  -0.37509
 Alpha  occ. eigenvalues --   -0.36910  -0.36474  -0.35412  -0.34812  -0.31523
 Alpha  occ. eigenvalues --   -0.31432  -0.30569  -0.30041  -0.24463
 Alpha virt. eigenvalues --   -0.08364   0.00729   0.02072   0.08592   0.08821
 Alpha virt. eigenvalues --    0.10478   0.10819   0.13302   0.13737   0.14505
 Alpha virt. eigenvalues --    0.14774   0.15564   0.16566   0.16934   0.17361

 Mulliken charges:
               1
     1  C   -0.459995
     2  C    0.117589
     3  C   -0.453337
     4  O   -0.432727
     5  C    0.739242
     6  O   -0.414168
     7  N   -0.248702
     8  N   -0.227513
     9  C    0.732101
    10  O   -0.412001
    11  O   -0.432950
    12  C    0.129497
    13  C   -0.470210
    14  C   -0.471941
    15  H    0.153454
    16  H    0.158839
    17  H    0.177317
    18  H    0.167133
    19  H    0.161664
    20  H    0.153905
    21  H    0.164658
    22  H    0.157266
    23  H    0.187708
    24  H    0.163754
    25  H    0.152956
    26  H    0.188005
    27  H    0.154834
    28  H    0.163621
 Sum of Mulliken charges =  -0.00000

 Dipole moment (field-independent basis, Debye):
    X=              0.0384    Y=              3.6580    Z=             -0.0742  Tot=              3.6590
 Quadrupole moment (field-independent basis, Debye-Ang):
   XX=            -56.1714   YY=            -88.5344   ZZ=            -81.2537
   XY=              2.1454   XZ=             -1.2680   YZ=             -0.3989

 Summary of Natural Population Analysis:

                                       Natural Population
                Natural  -----------------------------------------------
    Atom  No    Charge         Core      Valence    Rydberg      Total
 -----------------------------------------------------------------------
      C    1   -0.70435      1.99940     4.69641    0.00855     6.70435
      C    2    0.08158      1.99913     3.90185    0.01745     5.91842
      C    3   -0.69575      1.99939     4.68732    0.00904     6.69575
      O    4   -0.53789      1.99972     6.52562    0.01255     8.53789
      C    5    0.90381      1.99951     3.04489    0.05178     5.09619
      O    6   -0.54126      1.99977     6.52086    0.02063     8.54126
      N    7   -0.21576      1.99939     5.19020    0.02617     7.21576
      N    8   -0.21022      1.99939     5.18426    0.02656     7.21022
      C    9    0.91905      1.99952     3.02877    0.05266     5.08095
      O   10   -0.54556      1.99977     6.52532    0.02047     8.54556
      O   11   -0.53176      1.99972     6.52000    0.01204     8.53176
      C   12    0.08440      1.99912     3.89824    0.01824     5.91560
      C   13   -0.70935      1.99939     4.70195    0.00801     6.70935
      C   14   -0.71049      1.99939     4.70299    0.00810     6.71049
      H   15    0.24053      0.00000     0.75870    0.00077     0.75947
      H   16    0.23592      0.00000     0.76271    0.00136     0.76408
      H   17    0.25066      0.00000     0.74833    0.00100     0.74934
      H   18    0.24280      0.00000     0.75459    0.00261     0.75720
      H   19    0.23813      0.00000     0.76058    0.00129     0.76187
      H   20    0.24036      0.00000     0.75898    0.00066     0.75964
      H   21    0.24520      0.00000     0.75380    0.00100     0.75480
      H   22    0.24533      0.00000     0.75301    0.00166     0.75467
      H   23    0.25230      0.00000     0.74631    0.00139     0.74770
      H   24    0.24345      0.00000     0.75548    0.00107     0.75655
      H   25    0.24091      0.00000     0.75835    0.00074     0.75909
      H   26    0.25216      0.00000     0.74645    0.00139     0.74784
      H   27    0.24247      0.00000     0.75681    0.00072     0.75753
      H   28    0.24333      0.00000     0.75562    0.00105     0.75667
 =======================================================================
   * Total *   -0.00000     27.99262    79.69841    0.30898   108.00000

 Normal termination of Gaussian 16 at Sat Aug 22 14:15:27 2020.
