 Gaussian 16, Revision A.03,

 ---------------------------------
 # opt=CalcAll B3LYP/6-31G* scf=qc
 ---------------------------------

 -------------------
 Title Card Required
 -------------------
 Symbolic Z-matrix:
 Charge =  0 Multiplicity = 1

 SCF Done:  E(RB3LYP) =  -838.739668259     a.u. after   10 cycles
 SCF Done:  E(RB3LYP) =  -838.757747109     a.u. after   19 cycles
 SCF Done:  E(RB3LYP) =  -838.761610761     a.u. after   23 cycles
 SCF Done:  E(RB3LYP) =  -838.763036759     a.u. after   15 cycles
 SCF Done:  E(RB3LYP) =  -838.763288148     a.u. after   17 cycles
 SCF Done:  E(RB3LYP) =  -838.763312565     a.u. after    7 cycles
 SCF Done:  E(RB3LYP) =  -838.763314564     a.u. after    5 cycles
 SCF Done:  E(RB3LYP) =  -838.763315168     a.u. after    3 cycles
 Optimization completed.
    -- Stationary point found.
 Normal termination of Gaussian 16 at Sat Aug 22 15:54:03 2020.

 ----------------------------------------------------------------------
 # freq B3LYP/6-31G* scf=qc volume NMR pop=NPA density=current Geom=All
 Check Guess=Read
 ----------------------------------------------------------------------

 Structure from the checkpoint file:  "azadicarboxylate_5_conf122.chk"
 -------------------
 Title Card Required
 -------------------
 Charge =  0 Multiplicity = 1

 SCF Done:  E(RB3LYP) =  -838.763315168     a.u. after    1 cycles

      1  C    Isotropic =    36.1541   Anisotropy =    77.5353

      2  O    Isotropic =     1.6551   Anisotropy =   439.9964

      3  N    Isotropic =  -352.7989   Anisotropy =   728.1741

      4  N    Isotropic =  -352.0836   Anisotropy =   725.7598

      5  C    Isotropic =    36.0174   Anisotropy =    77.6635

      6  O    Isotropic =     1.7229   Anisotropy =   440.3457

      7  N    Isotropic =   148.2369   Anisotropy =    66.7716

      8  C    Isotropic =   145.5298   Anisotropy =    24.4347

      9  C    Isotropic =   163.1386   Anisotropy =     6.6568

     10  C    Isotropic =   164.1195   Anisotropy =     3.8075

     11  C    Isotropic =   162.9421   Anisotropy =     6.7316

     12  C    Isotropic =   146.8845   Anisotropy =    26.0127

     13  N    Isotropic =   147.9049   Anisotropy =    64.7792

     14  C    Isotropic =   145.5762   Anisotropy =    25.0241

     15  C    Isotropic =   163.1964   Anisotropy =     5.5667

     16  C    Isotropic =   164.1526   Anisotropy =     3.9797

     17  C    Isotropic =   162.9847   Anisotropy =     7.1414

     18  C    Isotropic =   146.6746   Anisotropy =    25.9765

     19  H    Isotropic =    28.9779   Anisotropy =     9.5507

     20  H    Isotropic =    29.5067   Anisotropy =     7.6848

     21  H    Isotropic =    30.4590   Anisotropy =     7.1167

     22  H    Isotropic =    30.8098   Anisotropy =     9.2302

     23  H    Isotropic =    30.3796   Anisotropy =     9.3959

     24  H    Isotropic =    30.6657   Anisotropy =     7.8641

     25  H    Isotropic =    30.4019   Anisotropy =     7.1797

     26  H    Isotropic =    30.6501   Anisotropy =     9.3792

     27  H    Isotropic =    27.8411   Anisotropy =     6.2240

     28  H    Isotropic =    29.6016   Anisotropy =     8.1851

     29  H    Isotropic =    29.0003   Anisotropy =     8.0947

     30  H    Isotropic =    29.3615   Anisotropy =     7.3361

     31  H    Isotropic =    30.7594   Anisotropy =     7.3906

     32  H    Isotropic =    30.8467   Anisotropy =     9.2064

     33  H    Isotropic =    30.4416   Anisotropy =     9.5005

     34  H    Isotropic =    30.6799   Anisotropy =     7.9042

     35  H    Isotropic =    30.6133   Anisotropy =     7.0814

     36  H    Isotropic =    30.7261   Anisotropy =     9.4494

     37  H    Isotropic =    27.8398   Anisotropy =     6.0986

     38  H    Isotropic =    29.5334   Anisotropy =     8.0621

  Exact polarizability: 210.286   2.477 150.828  -1.959  -0.549 115.534
 Approx polarizability: 241.975  10.590 238.298  -7.324   0.232 179.657

                      1                      2                      3
                      A                      A                      A
 Frequencies --     15.2875                37.3213                39.0505
 Red. masses --      4.8680                 4.4692                 4.9160
 Frc consts  --      0.0007                 0.0037                 0.0044
 IR Inten    --      3.2823                 1.7465                 3.5086

                      4                      5                      6
                      A                      A                      A
 Frequencies --     47.7819                55.2113                61.6614
 Red. masses --      3.4663                 4.4062                 5.0475
 Frc consts  --      0.0047                 0.0079                 0.0113
 IR Inten    --      0.4268                 0.2387                 2.1032

                      7                      8                      9
                      A                      A                      A
 Frequencies --     83.3973               175.9498               191.3784
 Red. masses --      4.7502                 2.9762                 3.2128
 Frc consts  --      0.0195                 0.0543                 0.0693
 IR Inten    --      0.1761                 0.1670                 8.1925

                     10                     11                     12
                      A                      A                      A
 Frequencies --    200.9670               219.7977               256.1937
 Red. masses --      5.7968                 5.0986                 2.2153
 Frc consts  --      0.1379                 0.1451                 0.0857
 IR Inten    --      2.3974                 0.2954                 0.8597

                     13                     14                     15
                      A                      A                      A
 Frequencies --    270.9685               300.4589               323.9741
 Red. masses --      2.5139                 2.5591                 2.8212
 Frc consts  --      0.1088                 0.1361                 0.1745
 IR Inten    --      2.6981                 1.8643                22.2124

                     16                     17                     18
                      A                      A                      A
 Frequencies --    364.5378               381.6478               392.8519
 Red. masses --      5.5716                 4.9133                 1.8096
 Frc consts  --      0.4362                 0.4216                 0.1645
 IR Inten    --      1.3494                 1.6273                 2.4543

                     19                     20                     21
                      A                      A                      A
 Frequencies --    405.9550               445.4965               450.4880
 Red. masses --      1.7847                 3.1827                 2.9943
 Frc consts  --      0.1733                 0.3722                 0.3580
 IR Inten    --      2.4525                 0.1284                 0.8402

                     22                     23                     24
                      A                      A                      A
 Frequencies --    476.6089               525.7879               550.4630
 Red. masses --      3.4200                 2.0173                 2.1758
 Frc consts  --      0.4577                 0.3286                 0.3884
 IR Inten    --      0.1279                 8.6705                 0.8292

                     25                     26                     27
                      A                      A                      A
 Frequencies --    576.3197               583.7529               627.3028
 Red. masses --      6.2038                 5.6986                 3.5406
 Frc consts  --      1.2140                 1.1441                 0.8209
 IR Inten    --     19.6381                 3.4323                10.3043

                     28                     29                     30
                      A                      A                      A
 Frequencies --    687.8246               747.9765               795.1679
 Red. masses --      3.8344                 5.4912                11.6070
 Frc consts  --      1.0688                 1.8101                 4.3240
 IR Inten    --      0.3109                 2.8953                20.4423

                     31                     32                     33
                      A                      A                      A
 Frequencies --    823.3187               825.1681               834.4582
 Red. masses --      1.5089                 1.5043                 3.1928
 Frc consts  --      0.6026                 0.6035                 1.3099
 IR Inten    --      0.2655                 0.2581                 0.7700

                     34                     35                     36
                      A                      A                      A
 Frequencies --    843.2777               869.5314               869.9110
 Red. masses --      3.0699                 1.4006                 1.4216
 Frc consts  --      1.2862                 0.6239                 0.6339
 IR Inten    --      3.3713                 9.8311                 7.6208

                     37                     38                     39
                      A                      A                      A
 Frequencies --    891.9000               910.3561               922.0512
 Red. masses --      3.2470                 2.5245                 3.1712
 Frc consts  --      1.5218                 1.2327                 1.5885
 IR Inten    --      0.0513                 7.7248                 0.2385

                     40                     41                     42
                      A                      A                      A
 Frequencies --    971.5882               977.1617               979.4027
 Red. masses --      2.7183                 1.5639                 1.3832
 Frc consts  --      1.5119                 0.8798                 0.7818
 IR Inten    --      4.1648                 1.1844                 4.2507

                     43                     44                     45
                      A                      A                      A
 Frequencies --    981.8636              1036.0538              1041.1032
 Red. masses --      2.6625                 2.7545                 2.5568
 Frc consts  --      1.5123                 1.7420                 1.6328
 IR Inten    --      0.4156                 5.6662                78.7613

                     46                     47                     48
                      A                      A                      A
 Frequencies --   1048.1225              1054.6510              1083.5402
 Red. masses --      2.1585                 2.2448                 1.7166
 Frc consts  --      1.3971                 1.4711                 1.1874
 IR Inten    --      0.3496                 3.1216                 0.2781

                     49                     50                     51
                      A                      A                      A
 Frequencies --   1084.7365              1154.9889              1158.4340
 Red. masses --      1.7103                 2.1700                 2.1371
 Frc consts  --      1.1857                 1.7055                 1.6898
 IR Inten    --      0.2288                 2.6407                16.1889

                     52                     53                     54
                      A                      A                      A
 Frequencies --   1169.4443              1172.3836              1195.6554
 Red. masses --      1.8911                 2.0039                 1.2513
 Frc consts  --      1.5238                 1.6228                 1.0539
 IR Inten    --     16.2287                77.8756                 1.3878

                     55                     56                     57
                      A                      A                      A
 Frequencies --   1197.0105              1261.1994              1264.1833
 Red. masses --      1.2643                 1.7978                 1.7923
 Frc consts  --      1.0673                 1.6848                 1.6876
 IR Inten    --      1.3060               148.5621               135.4415

                     58                     59                     60
                      A                      A                      A
 Frequencies --   1287.5604              1293.0907              1300.8502
 Red. masses --      2.2582                 1.8233                 1.2626
 Frc consts  --      2.2057                 1.7962                 1.2588
 IR Inten    --    280.8880                10.8927                21.3089

                     61                     62                     63
                      A                      A                      A
 Frequencies --   1303.2910              1323.2802              1323.7623
 Red. masses --      1.3608                 1.2221                 1.2028
 Frc consts  --      1.3619                 1.2608                 1.2418
 IR Inten    --     10.0166                19.6548                24.5552

                     64                     65                     66
                      A                      A                      A
 Frequencies --   1371.0162              1372.7495              1398.1268
 Red. masses --      1.2808                 1.2875                 1.3697
 Frc consts  --      1.4185                 1.4295                 1.5775
 IR Inten    --      0.0335                 0.5137                 1.6723

                     67                     68                     69
                      A                      A                      A
 Frequencies --   1398.3849              1400.8310              1401.6508
 Red. masses --      1.3865                 1.4607                 1.4636
 Frc consts  --      1.5975                 1.6888                 1.6942
 IR Inten    --      2.1126                 1.5629                 3.0495

                     70                     71                     72
                      A                      A                      A
 Frequencies --   1403.5398              1405.7874              1421.6389
 Red. masses --      1.4503                 1.4411                 1.3326
 Frc consts  --      1.6832                 1.6780                 1.5869
 IR Inten    --      3.4397                 4.1393                 8.7136

                     73                     74                     75
                      A                      A                      A
 Frequencies --   1425.3969              1481.8524              1485.9865
 Red. masses --      1.3433                 2.8815                 3.0634
 Frc consts  --      1.6080                 3.7280                 3.9856
 IR Inten    --     10.2809               413.3298                 3.3397

                     76                     77                     78
                      A                      A                      A
 Frequencies --   1507.8970              1507.9231              1514.4312
 Red. masses --      1.0950                 1.0950                 1.0860
 Frc consts  --      1.4670                 1.4670                 1.4675
 IR Inten    --      0.1129                 1.7783                 5.7063

                     79                     80                     81
                      A                      A                      A
 Frequencies --   1514.7553              1516.9527              1519.0154
 Red. masses --      1.0859                 1.0894                 1.0869
 Frc consts  --      1.4680                 1.4769                 1.4776
 IR Inten    --      5.2428                12.8302                 3.9728

                     82                     83                     84
                      A                      A                      A
 Frequencies --   1519.5983              1523.1283              1534.2182
 Red. masses --      1.0995                 1.0939                 1.1006
 Frc consts  --      1.4960                 1.4952                 1.5264
 IR Inten    --     10.2364                 4.4696                 3.0787

                     85                     86                     87
                      A                      A                      A
 Frequencies --   1535.0322              1649.5890              1775.7605
 Red. masses --      1.0997                13.7872                11.6206
 Frc consts  --      1.5268                22.1043                21.5898
 IR Inten    --      4.1688                 0.0316                 1.1345

                     88                     89                     90
                      A                      A                      A
 Frequencies --   1797.7915              3015.0526              3018.1918
 Red. masses --     11.7124                 1.0732                 1.0729
 Frc consts  --     22.3036                 5.7482                 5.7582
 IR Inten    --    854.0217                12.2277                12.2426

                     91                     92                     93
                      A                      A                      A
 Frequencies --   3018.2877              3021.2083              3025.4356
 Red. masses --      1.0730                 1.0718                 1.0699
 Frc consts  --      5.7591                 5.7639                 5.7700
 IR Inten    --     38.3928                31.0026                82.5109

                     94                     95                     96
                      A                      A                      A
 Frequencies --   3025.6235              3045.4523              3045.8471
 Red. masses --      1.0697                 1.0609                 1.0608
 Frc consts  --      5.7695                 5.7973                 5.7982
 IR Inten    --     23.0216                25.4391                25.3885

                     97                     98                     99
                      A                      A                      A
 Frequencies --   3047.3363              3047.5372              3082.0694
 Red. masses --      1.0617                 1.0616                 1.0934
 Frc consts  --      5.8090                 5.8093                 6.1193
 IR Inten    --     19.2952                21.1594                59.8848

                    100                    101                    102
                      A                      A                      A
 Frequencies --   3082.2837              3088.9398              3089.1861
 Red. masses --      1.0933                 1.1036                 1.1038
 Frc consts  --      6.1199                 6.2040                 6.2061
 IR Inten    --     43.1476                31.8226                31.9505

                    103                    104                    105
                      A                      A                      A
 Frequencies --   3094.0661              3094.3330              3149.6838
 Red. masses --      1.1049                 1.1049                 1.0920
 Frc consts  --      6.2322                 6.2333                 6.3830
 IR Inten    --     60.5833                69.0756                 6.9711

                    106                    107                    108
                      A                      A                      A
 Frequencies --   3151.3575              3156.4611              3157.3237
 Red. masses --      1.0927                 1.0916                 1.0919
 Frc consts  --      6.3937                 6.4081                 6.4134
 IR Inten    --      5.2867                 3.6670                 3.5105

 - Thermochemistry -
 -------------------
 Temperature   298.150 Kelvin.  Pressure   1.00000 Atm.
 Atom     1 has atomic number  6 and mass  12.00000

 Molecular mass:   252.15863 amu.
 Principal axes and moments of inertia in atomic units:
                           1         2         3
     Eigenvalues --  1722.31585********************
           X            0.99997   0.00820   0.00140
           Y           -0.00819   0.99993  -0.00826
           Z           -0.00147   0.00825   0.99996
 This molecule is an asymmetric top.
 Rotational symmetry number  1.
 Warning -- assumption of classical behavior for rotation
           may cause significant error
 Rotational temperatures (Kelvin)      0.05029     0.00849     0.00778
 Rotational constants (GHZ):           1.04786     0.17689     0.16206
 Zero-point vibrational energy     864802.2 (Joules/Mol)
                                  206.69269 (Kcal/Mol)
 Warning -- explicit consideration of  26 degrees of freedom as
           vibrations may cause significant error
 Vibrational temperatures:     22.00    53.70    56.19    68.75    79.44
          (Kelvin)             88.72   119.99   253.15   275.35   289.15
                              316.24   368.61   389.86   432.29   466.13
                              524.49   549.11   565.23   584.08   640.97
                              648.15   685.73   756.49   791.99   829.20
                              839.89   902.55   989.63  1076.17  1144.07
                             1184.57  1187.23  1200.60  1213.29  1251.06
                             1251.61  1283.25  1309.80  1326.63  1397.90
                             1405.92  1409.14  1412.68  1490.65  1497.92
                             1508.01  1517.41  1558.97  1560.69  1661.77
                             1666.73  1682.57  1686.80  1720.28  1722.23
                             1814.58  1818.88  1852.51  1860.47  1871.63
                             1875.15  1903.91  1904.60  1972.59  1975.08
                             2011.59  2011.96  2015.48  2016.66  2019.38
                             2022.61  2045.42  2050.83  2132.06  2138.00
                             2169.53  2169.57  2178.93  2179.40  2182.56
                             2185.52  2186.36  2191.44  2207.40  2208.57
                             2373.39  2554.92  2586.62  4337.99  4342.50
                             4342.64  4346.84  4352.93  4353.20  4381.73
                             4382.29  4384.44  4384.73  4434.41  4434.72
                             4444.30  4444.65  4451.67  4452.06  4531.69
                             4534.10  4541.44  4542.68

 Zero-point correction=                           0.329386 (Hartree/Particle)
 Thermal correction to Energy=                    0.346575
 Thermal correction to Enthalpy=                  0.347519
 Thermal correction to Gibbs Free Energy=         0.281379
 Sum of electronic and zero-point Energies=           -838.433929
 Sum of electronic and thermal Energies=              -838.416741
 Sum of electronic and thermal Enthalpies=            -838.415796
 Sum of electronic and thermal Free Energies=         -838.481936

                     E (Thermal)             CV                S
                      KCal/Mol        Cal/Mol-Kelvin    Cal/Mol-Kelvin
 Total                  217.479             64.723            139.202
 Electronic               0.000              0.000              0.000
 Translational            0.889              2.981             42.475
 Rotational               0.889              2.981             33.636
 Vibrational            215.701             58.761             63.091
 Vibration     1          0.593              1.986              7.168
 Vibration     2          0.594              1.982              5.396
 Vibration     3          0.594              1.981              5.307
 Vibration     4          0.595              1.978              4.907
 Vibration     5          0.596              1.975              4.621
 Vibration     6          0.597              1.973              4.403
 Vibration     7          0.600              1.961              3.809
 Vibration     8          0.628              1.872              2.371
 Vibration     9          0.634              1.852              2.214
 Vibration    10          0.638              1.839              2.124
 Vibration    11          0.647              1.811              1.961
 Vibration    12          0.666              1.752              1.688
 Vibration    13          0.675              1.727              1.590
 Vibration    14          0.693              1.673              1.414
 Vibration    15          0.709              1.627              1.290
 Vibration    16          0.738              1.545              1.103
 Vibration    17          0.751              1.509              1.033
 Vibration    18          0.760              1.485              0.989
 Vibration    19          0.771              1.457              0.941
 Vibration    20          0.805              1.371              0.810
 Vibration    21          0.809              1.360              0.794
 Vibration    22          0.833              1.302              0.719
 Vibration    23          0.881              1.193              0.597
 Vibration    24          0.906              1.139              0.543
 Vibration    25          0.933              1.082              0.492
 Vibration    26          0.941              1.066              0.478

 Optimization completed.
    -- Stationary point found.
 Normal termination of Gaussian 16 at Sat Aug 22 16:02:34 2020.
 Gaussian 16:  ES64L-G16RevA.03 25-Dec-2016

 ----------------------------------------------------------------------
 # TD(NStates=10, Root=1) B3LYP/6-31G* scf=qc volume pop=NPA density=cu
 rrent Geom=AllCheck Guess=Read
 ----------------------------------------------------------------------

 Structure from the checkpoint file:  "azadicarboxylate_5_conf123.chk"
 -------------------
 Title Card Required
 -------------------
 Charge =  0 Multiplicity = 1

                         Standard orientation:
 ---------------------------------------------------------------------
 Center     Atomic      Atomic             Coordinates (Angstroms)
 Number     Number       Type             X           Y           Z
 ---------------------------------------------------------------------
      1          6           0        1.554410   -1.010527   -0.592437
      2          8           0        1.344493   -2.208682   -0.488391
      3          7           0        0.437304   -0.122252   -0.915434
      4          7           0       -0.316584    0.055395    0.058580
      5          6           0       -1.432243    0.946934   -0.256358
      6          8           0       -1.220527    2.147000   -0.332816
      7          7           0       -2.634923    0.326715   -0.314423
      8          6           0       -2.818831   -1.127772   -0.244267
      9          6           0       -3.835225   -1.490080    0.846579
     10          6           0       -5.147670   -0.712734    0.664402
     11          6           0       -4.881385    0.798572    0.587463
     12          6           0       -3.850888    1.123180   -0.501097
     13          7           0        2.756347   -0.387468   -0.551840
     14          6           0        2.938125    1.066795   -0.628114
     15          6           0        3.612367    1.591856    0.646886
     16          6           0        4.914460    0.828466    0.936563
     17          6           0        4.667659   -0.688062    0.976726
     18          6           0        3.970176   -1.169009   -0.302629
     19          1           0       -1.855082   -1.603760   -0.058314
     20          1           0       -3.177679   -1.481105   -1.223084
     21          1           0       -3.398622   -1.258023    1.826908
     22          1           0       -4.016687   -2.571418    0.820237
     23          1           0       -5.840598   -0.937689    1.483879
     24          1           0       -5.639375   -1.042572   -0.262915
     25          1           0       -4.503055    1.158349    1.553431
     26          1           0       -5.808881    1.346062    0.379061
     27          1           0       -3.558737    2.173943   -0.488946
     28          1           0       -4.269333    0.896625   -1.493592
     29          1           0        1.971045    1.544496   -0.790667
     30          1           0        3.568650    1.287841   -1.502391
     31          1           0        2.915889    1.475831    1.487703
     32          1           0        3.807936    2.665129    0.533564
     33          1           0        5.352713    1.168748    1.882318
     34          1           0        5.649511    1.055523    0.149961
     35          1           0        4.035980   -0.939006    1.839046
     36          1           0        5.612874   -1.231259    1.099101
     37          1           0        3.678841   -2.218178   -0.240404
     38          1           0        4.642137   -1.048519   -1.165726
 ---------------------------------------------------------------------

 SCF Done:  E(RB3LYP) =  -838.763315168     a.u. after    1 cycles

 Excitation energies and oscillator strengths:

 Excited State   1:      Singlet-A      2.6548 eV  467.02 nm  f=0.0000  <S**2>=0.000
      68 -> 69         0.69732
 This state for optimization and/or second-order correction.
 Total Energy, E(TD-HF/TD-DFT) =  -838.665752631
 Copying the excited state density for this state as the 1-particle RhoCI density.

 Excited State   2:      Singlet-A      3.8370 eV  323.13 nm  f=0.0015  <S**2>=0.000
      66 -> 69        -0.30061
      67 -> 69         0.63411

 Excited State   3:      Singlet-A      3.8608 eV  321.14 nm  f=0.0019  <S**2>=0.000
      66 -> 69         0.63314
      67 -> 69         0.30298

 Excited State   4:      Singlet-A      4.3823 eV  282.92 nm  f=0.0427  <S**2>=0.000
      65 -> 69         0.69356

 Excited State   5:      Singlet-A      5.0147 eV  247.24 nm  f=0.0000  <S**2>=0.000
      64 -> 69         0.68254
      68 -> 70         0.10521

 Excited State   6:      Singlet-A      5.7566 eV  215.38 nm  f=0.0485  <S**2>=0.000
      65 -> 70        -0.18675
      68 -> 70         0.52270
      68 -> 71         0.41352

 Excited State   7:      Singlet-A      5.8119 eV  213.33 nm  f=0.0052  <S**2>=0.000
      64 -> 69         0.12589
      65 -> 71         0.18753
      68 -> 70        -0.40230
      68 -> 71         0.51861

 Excited State   8:      Singlet-A      6.3928 eV  193.94 nm  f=0.0022  <S**2>=0.000
      59 -> 69        -0.15753
      61 -> 69        -0.16399
      63 -> 69         0.65062

 Excited State   9:      Singlet-A      6.4679 eV  191.69 nm  f=0.0004  <S**2>=0.000
      60 -> 69        -0.23591
      62 -> 69         0.65486

 Excited State  10:      Singlet-A      6.5048 eV  190.60 nm  f=0.0541  <S**2>=0.000
      59 -> 69         0.39251
      60 -> 69         0.45238
      62 -> 69         0.23256
      63 -> 69         0.21408

 The electronic state is 1-A.
 Alpha  occ. eigenvalues --  -19.12111 -19.12073 -14.40321 -14.40263 -14.37157
 Alpha  occ. eigenvalues --  -14.37117 -10.30881 -10.30849 -10.22687 -10.22654
 Alpha  occ. eigenvalues --  -10.22197 -10.22182 -10.19208 -10.19190 -10.19157
 Alpha  occ. eigenvalues --  -10.19130 -10.19114 -10.19094  -1.08206  -1.04574
 Alpha  occ. eigenvalues --   -1.00769  -0.94884  -0.94734  -0.81200  -0.80552
 Alpha  occ. eigenvalues --   -0.77507  -0.76847  -0.75000  -0.69199  -0.66894
 Alpha  occ. eigenvalues --   -0.64264  -0.63572  -0.60178  -0.58897  -0.55814
 Alpha  occ. eigenvalues --   -0.54349  -0.52854  -0.49127  -0.48018  -0.47639
 Alpha  occ. eigenvalues --   -0.46599  -0.46417  -0.45846  -0.45009  -0.43866
 Alpha  occ. eigenvalues --   -0.43817  -0.43137  -0.42389  -0.41796  -0.41420
 Alpha  occ. eigenvalues --   -0.39994  -0.39659  -0.38381  -0.38082  -0.36537
 Alpha  occ. eigenvalues --   -0.36123  -0.36011  -0.34371  -0.34076  -0.33404
 Alpha  occ. eigenvalues --   -0.33304  -0.33018  -0.32874  -0.29745  -0.26871
 Alpha  occ. eigenvalues --   -0.24577  -0.24450  -0.22417
 Alpha virt. eigenvalues --   -0.06821   0.03301   0.03506   0.08741   0.08894
 Alpha virt. eigenvalues --    0.10868   0.10942   0.12675   0.12774   0.13999
 Alpha virt. eigenvalues --    0.14300   0.14441   0.14579   0.15620   0.15883

 Mulliken charges:
               1
     1  C    0.700327
     2  O   -0.468372
     3  N   -0.281327
     4  N   -0.283247
     5  C    0.699512
     6  O   -0.468625
     7  N   -0.403303
     8  C   -0.149537
     9  C   -0.263862
    10  C   -0.269359
    11  C   -0.264499
    12  C   -0.148340
    13  N   -0.399739
    14  C   -0.154960
    15  C   -0.261409
    16  C   -0.269406
    17  C   -0.262854
    18  C   -0.151036
    19  H    0.207468
    20  H    0.145775
    21  H    0.147463
    22  H    0.144592
    23  H    0.142580
    24  H    0.133102
    25  H    0.148260
    26  H    0.142838
    27  H    0.190549
    28  H    0.147455
    29  H    0.208230
    30  H    0.144677
    31  H    0.151135
    32  H    0.143828
    33  H    0.142605
    34  H    0.131671
    35  H    0.149480
    36  H    0.141516
    37  H    0.190367
    38  H    0.146444
 Sum of Mulliken charges =  -0.00000

 Dipole moment (field-independent basis, Debye):
    X=             -0.1336    Y=              0.0568    Z=              0.6738  Tot=              0.6893
 Quadrupole moment (field-independent basis, Debye-Ang):
   XX=            -76.4771   YY=           -116.4167   ZZ=           -106.6172
   XY=              4.7697   XZ=              0.3050   YZ=             -0.5832

 Summary of Natural Population Analysis:

                                       Natural Population
                Natural  -----------------------------------------------
    Atom  No    Charge         Core      Valence    Rydberg      Total
 -----------------------------------------------------------------------
      C    1    0.79532      1.99934     3.15850    0.04684     5.20468
      O    2   -0.57138      1.99979     6.55304    0.01855     8.57138
      N    3   -0.24919      1.99941     5.22365    0.02613     7.24919
      N    4   -0.25250      1.99941     5.22705    0.02603     7.25250
      C    5    0.79710      1.99934     3.15684    0.04672     5.20290
      O    6   -0.57263      1.99979     6.55430    0.01854     8.57263
      N    7   -0.47109      1.99927     5.45892    0.01290     7.47109
      C    8   -0.26150      1.99930     4.24608    0.01612     6.26150
      C    9   -0.47070      1.99932     4.45990    0.01148     6.47070
      C   10   -0.46524      1.99933     4.45437    0.01154     6.46524
      C   11   -0.47146      1.99932     4.46074    0.01140     6.47146
      C   12   -0.25927      1.99932     4.24375    0.01620     6.25927
      N   13   -0.47011      1.99928     5.45794    0.01289     7.47011
      C   14   -0.26153      1.99930     4.24592    0.01631     6.26153
      C   15   -0.47197      1.99932     4.46120    0.01145     6.47197
      C   16   -0.46554      1.99933     4.45466    0.01155     6.46554
      C   17   -0.47181      1.99932     4.46117    0.01132     6.47181
      C   18   -0.25936      1.99932     4.24388    0.01616     6.25936
      H   19    0.27345      0.00000     0.72412    0.00243     0.72655
      H   20    0.22421      0.00000     0.77351    0.00227     0.77579
      H   21    0.23579      0.00000     0.76214    0.00207     0.76421
      H   22    0.24646      0.00000     0.75245    0.00110     0.75354
      H   23    0.24436      0.00000     0.75453    0.00111     0.75564
      H   24    0.22670      0.00000     0.77136    0.00194     0.77330
      H   25    0.23631      0.00000     0.76181    0.00188     0.76369
      H   26    0.24561      0.00000     0.75326    0.00113     0.75439
      H   27    0.26780      0.00000     0.73017    0.00203     0.73220
      H   28    0.22495      0.00000     0.77304    0.00201     0.77505
      H   29    0.27343      0.00000     0.72415    0.00243     0.72657
      H   30    0.22525      0.00000     0.77258    0.00217     0.77475
      H   31    0.23793      0.00000     0.76008    0.00199     0.76207
      H   32    0.24593      0.00000     0.75295    0.00112     0.75407
      H   33    0.24434      0.00000     0.75455    0.00111     0.75566
      H   34    0.22579      0.00000     0.77227    0.00194     0.77421
      H   35    0.23685      0.00000     0.76125    0.00189     0.76315
      H   36    0.24438      0.00000     0.75449    0.00113     0.75562
      H   37    0.26759      0.00000     0.73035    0.00205     0.73241
      H   38    0.22575      0.00000     0.77220    0.00205     0.77425
 =======================================================================
   * Total *   -0.00000     35.98882    99.63317    0.37801   136.00000

 Normal termination of Gaussian 16 at Sat Aug 22 16:12:27 2020.
