 Gaussian 16, Revision A.03,

 ---------------------------------
 # opt=CalcAll B3LYP/6-31G* scf=qc
 ---------------------------------

 -------------------
 Title Card Required
 -------------------
 Symbolic Z-matrix:
 Charge =  0 Multiplicity = 1

 SCF Done:  E(RB3LYP) =  -838.614381631     a.u. after    9 cycles
 SCF Done:  E(RB3LYP) =  -838.674673149     a.u. after   25 cycles
 SCF Done:  E(RB3LYP) =  -838.723226271     a.u. after   23 cycles
 SCF Done:  E(RB3LYP) =  -838.730523475     a.u. after   17 cycles
 SCF Done:  E(RB3LYP) =  -838.747261244     a.u. after   17 cycles
 SCF Done:  E(RB3LYP) =  -838.751790971     a.u. after   15 cycles
 SCF Done:  E(RB3LYP) =  -838.752600401     a.u. after   15 cycles
 SCF Done:  E(RB3LYP) =  -838.752718272     a.u. after   11 cycles
 SCF Done:  E(RB3LYP) =  -838.752725907     a.u. after    5 cycles
 SCF Done:  E(RB3LYP) =  -838.752725949     a.u. after    2 cycles
 SCF Done:  E(RB3LYP) =  -838.752725956     a.u. after    2 cycles
 Optimization completed.
    -- Stationary point found.
 Normal termination of Gaussian 16 at Sat Aug 22 16:40:23 2020.

 ----------------------------------------------------------------------
 # freq B3LYP/6-31G* scf=qc volume NMR pop=NPA density=current Geom=All
 Check Guess=Read
 ----------------------------------------------------------------------

 Structure from the checkpoint file:  "azadicarboxylate_5_conf112.chk"
 -------------------
 Title Card Required
 -------------------
 Charge =  0 Multiplicity = 1

 SCF Done:  E(RB3LYP) =  -838.752725956     a.u. after    1 cycles

      1  C    Isotropic =    36.1491   Anisotropy =    71.0153

      2  O    Isotropic =   -16.6332   Anisotropy =   490.6301

      3  N    Isotropic =  -329.9321   Anisotropy =   682.2017

      4  N    Isotropic =  -326.5226   Anisotropy =   675.7927

      5  C    Isotropic =    36.0957   Anisotropy =    69.2309

      6  O    Isotropic =   -16.1894   Anisotropy =   487.4429

      7  N    Isotropic =   152.4622   Anisotropy =    57.3170

      8  C    Isotropic =   143.9560   Anisotropy =    25.2245

      9  C    Isotropic =   162.7929   Anisotropy =     6.3043

     10  C    Isotropic =   164.2635   Anisotropy =     4.3334

     11  C    Isotropic =   163.2291   Anisotropy =     6.7989

     12  C    Isotropic =   146.6199   Anisotropy =    26.7625

     13  N    Isotropic =   152.1661   Anisotropy =    57.7882

     14  C    Isotropic =   145.4807   Anisotropy =    27.1685

     15  C    Isotropic =   162.8499   Anisotropy =     6.9520

     16  C    Isotropic =   163.7258   Anisotropy =     3.2588

     17  C    Isotropic =   162.2415   Anisotropy =     5.0703

     18  C    Isotropic =   143.4388   Anisotropy =    27.3937

     19  H    Isotropic =    29.0221   Anisotropy =    10.0539

     20  H    Isotropic =    29.2619   Anisotropy =     7.5467

     21  H    Isotropic =    30.6420   Anisotropy =     7.0438

     22  H    Isotropic =    30.8366   Anisotropy =     8.7471

     23  H    Isotropic =    30.3959   Anisotropy =     9.3982

     24  H    Isotropic =    30.6464   Anisotropy =     7.9868

     25  H    Isotropic =    30.4679   Anisotropy =     7.2980

     26  H    Isotropic =    30.6091   Anisotropy =     9.6074

     27  H    Isotropic =    27.6153   Anisotropy =     6.6331

     28  H    Isotropic =    29.5417   Anisotropy =     8.4645

     29  H    Isotropic =    27.6378   Anisotropy =     6.7043

     30  H    Isotropic =    29.5860   Anisotropy =     7.8011

     31  H    Isotropic =    30.4428   Anisotropy =     7.1185

     32  H    Isotropic =    30.6818   Anisotropy =     9.6599

     33  H    Isotropic =    30.3817   Anisotropy =     9.4841

     34  H    Isotropic =    30.6236   Anisotropy =     7.7000

     35  H    Isotropic =    30.5279   Anisotropy =     7.2661

     36  H    Isotropic =    30.8972   Anisotropy =     8.6792

     37  H    Isotropic =    28.9987   Anisotropy =    10.1187

     38  H    Isotropic =    29.3420   Anisotropy =     6.6628

  Exact polarizability: 201.687  -1.292 151.017   5.994   4.785 123.333
 Approx polarizability: 236.680  -4.188 232.622  14.000  13.635 201.990

                      1                      2                      3
                      A                      A                      A
 Frequencies --      9.4079                26.1940                35.9207
 Red. masses --      4.1036                 3.5932                 3.8208
 Frc consts  --      0.0002                 0.0015                 0.0029
 IR Inten    --      0.5703                 0.3605                 0.3818

                      4                      5                      6
                      A                      A                      A
 Frequencies --     50.1067                58.1002                73.1655
 Red. masses --      4.6632                 5.3442                 4.1469
 Frc consts  --      0.0069                 0.0106                 0.0131
 IR Inten    --      2.2268                 0.3615                 0.1618

                      7                      8                      9
                      A                      A                      A
 Frequencies --     90.9195               171.4815               188.6161
 Red. masses --      6.0138                 3.1698                 2.6854
 Frc consts  --      0.0293                 0.0549                 0.0563
 IR Inten    --      2.7698                 3.6085                 0.3347

                     10                     11                     12
                      A                      A                      A
 Frequencies --    212.9484               218.6199               257.0209
 Red. masses --      7.0255                 5.7872                 2.2548
 Frc consts  --      0.1877                 0.1630                 0.0878
 IR Inten    --      0.3031                 0.4035                 1.4374

                     13                     14                     15
                      A                      A                      A
 Frequencies --    274.6381               290.6448               335.5275
 Red. masses --      2.3526                 2.6259                 2.8467
 Frc consts  --      0.1046                 0.1307                 0.1888
 IR Inten    --      2.2482                 0.4855                 1.5246

                     16                     17                     18
                      A                      A                      A
 Frequencies --    368.3506               391.4649               396.4125
 Red. masses --      4.7431                 1.9437                 3.6408
 Frc consts  --      0.3792                 0.1755                 0.3371
 IR Inten    --     18.2158                 0.3280                 4.2297

                     19                     20                     21
                      A                      A                      A
 Frequencies --    418.0950               440.3739               456.2625
 Red. masses --      1.7967                 3.0171                 2.8745
 Frc consts  --      0.1850                 0.3447                 0.3526
 IR Inten    --      2.4396                 2.7288                 0.2209

                     22                     23                     24
                      A                      A                      A
 Frequencies --    473.6518               524.2567               548.0662
 Red. masses --      3.9556                 2.2870                 2.2775
 Frc consts  --      0.5229                 0.3703                 0.4031
 IR Inten    --     35.7606                 2.5500                 2.0580

                     25                     26                     27
                      A                      A                      A
 Frequencies --    575.9959               587.9763               637.6307
 Red. masses --      4.3636                 3.9601                 5.6540
 Frc consts  --      0.8530                 0.8066                 1.3544
 IR Inten    --     17.2099                 8.2527                 0.5876

                     28                     29                     30
                      A                      A                      A
 Frequencies --    696.3599               718.3662               785.7245
 Red. masses --      4.5257                 4.1982                10.6155
 Frc consts  --      1.2930                 1.2764                 3.8613
 IR Inten    --      4.4775                 5.1683                15.5267

                     31                     32                     33
                      A                      A                      A
 Frequencies --    820.8705               822.6674               832.8190
 Red. masses --      1.5519                 1.5945                 2.8991
 Frc consts  --      0.6161                 0.6358                 1.1847
 IR Inten    --      0.5262                 0.5507                 1.0255

                     34                     35                     36
                      A                      A                      A
 Frequencies --    842.3290               866.5484               868.2327
 Red. masses --      2.9558                 1.5563                 1.4266
 Frc consts  --      1.2356                 0.6885                 0.6336
 IR Inten    --      1.3876                 9.5664                 9.8320

                     37                     38                     39
                      A                      A                      A
 Frequencies --    877.2325               901.4428               919.3582
 Red. masses --      3.3687                 2.5779                 2.7625
 Frc consts  --      1.5274                 1.2342                 1.3757
 IR Inten    --      1.6047                 6.3011                 5.7931

                     40                     41                     42
                      A                      A                      A
 Frequencies --    962.6257               975.8863               976.1267
 Red. masses --      3.0428                 2.8058                 1.4010
 Frc consts  --      1.6613                 1.5744                 0.7865
 IR Inten    --      0.9390                11.3333                 8.0036

                     43                     44                     45
                      A                      A                      A
 Frequencies --    976.6266              1034.6928              1044.0429
 Red. masses --      1.3556                 2.6934                 2.4592
 Frc consts  --      0.7618                 1.6989                 1.5793
 IR Inten    --      1.8315                60.4373                13.3181

                     46                     47                     48
                      A                      A                      A
 Frequencies --   1044.8363              1052.6845              1082.6403
 Red. masses --      2.2381                 2.2299                 1.7352
 Frc consts  --      1.4395                 1.4559                 1.1983
 IR Inten    --      7.9626                 2.1826                 0.2558

                     49                     50                     51
                      A                      A                      A
 Frequencies --   1086.2028              1151.9288              1157.0794
 Red. masses --      1.7044                 2.0970                 2.0672
 Frc consts  --      1.1848                 1.6395                 1.6307
 IR Inten    --      0.2272                 6.2450                12.0637

                     52                     53                     54
                      A                      A                      A
 Frequencies --   1164.5844              1170.9706              1194.7540
 Red. masses --      1.8859                 2.0799                 1.2629
 Frc consts  --      1.5070                 1.6803                 1.0621
 IR Inten    --    112.3812                 6.7463                 2.1973

                     55                     56                     57
                      A                      A                      A
 Frequencies --   1196.9420              1247.1593              1267.7163
 Red. masses --      1.2761                 1.7680                 1.8862
 Frc consts  --      1.0772                 1.6203                 1.7860
 IR Inten    --      0.8687               229.2456                58.8270

                     58                     59                     60
                      A                      A                      A
 Frequencies --   1279.8831              1287.0155              1299.7219
 Red. masses --      2.4898                 2.0805                 1.2514
 Frc consts  --      2.4030                 2.0304                 1.2455
 IR Inten    --    176.5043                42.8808                 4.8508

                     61                     62                     63
                      A                      A                      A
 Frequencies --   1301.7160              1317.8713              1322.8603
 Red. masses --      1.2601                 1.2027                 1.2044
 Frc consts  --      1.2580                 1.2307                 1.2418
 IR Inten    --      1.6700                41.0997                17.3588

                     64                     65                     66
                      A                      A                      A
 Frequencies --   1369.6492              1370.4912              1397.1926
 Red. masses --      1.2787                 1.2755                 1.3347
 Frc consts  --      1.4133                 1.4115                 1.5351
 IR Inten    --      0.2403                 0.1492                 2.9631

                     67                     68                     69
                      A                      A                      A
 Frequencies --   1399.0391              1399.4696              1401.4617
 Red. masses --      1.5108                 1.3876                 1.4474
 Frc consts  --      1.7422                 1.6012                 1.6749
 IR Inten    --      4.8728                 2.4284                 1.9640

                     70                     71                     72
                      A                      A                      A
 Frequencies --   1401.5640              1403.0269              1419.2607
 Red. masses --      1.4557                 1.4725                 1.3378
 Frc consts  --      1.6849                 1.7077                 1.5877
 IR Inten    --      1.2432                 1.6352                 7.9594

                     73                     74                     75
                      A                      A                      A
 Frequencies --   1419.6895              1463.6692              1473.9577
 Red. masses --      1.3422                 2.5820                 2.8461
 Frc consts  --      1.5939                 3.2590                 3.6431
 IR Inten    --     17.4247               255.3054                81.8135

                     76                     77                     78
                      A                      A                      A
 Frequencies --   1507.2903              1507.4444              1513.2770
 Red. masses --      1.0881                 1.0926                 1.0884
 Frc consts  --      1.4565                 1.4629                 1.4686
 IR Inten    --      0.3369                 1.2285                 9.0574

                     79                     80                     81
                      A                      A                      A
 Frequencies --   1514.4993              1514.9506              1516.5636
 Red. masses --      1.0893                 1.0900                 1.0993
 Frc consts  --      1.4721                 1.4739                 1.4897
 IR Inten    --      4.1681                 5.3125                 6.2879

                     82                     83                     84
                      A                      A                      A
 Frequencies --   1519.6218              1520.2963              1532.2153
 Red. masses --      1.1066                 1.0932                 1.1067
 Frc consts  --      1.5056                 1.4888                 1.5309
 IR Inten    --      7.4669                11.4247                 4.8205

                     85                     86                     87
                      A                      A                      A
 Frequencies --   1535.0252              1611.9765              1777.6546
 Red. masses --      1.1018                13.0283                11.7342
 Frc consts  --      1.5296                19.9460                21.8473
 IR Inten    --      4.4124                 5.1630               106.5176

                     88                     89                     90
                      A                      A                      A
 Frequencies --   1797.8926              3015.4384              3018.7240
 Red. masses --     11.7741                 1.0746                 1.0741
 Frc consts  --     22.4235                 5.7572                 5.7669
 IR Inten    --    690.2526                10.4512                38.6548

                     91                     92                     93
                      A                      A                      A
 Frequencies --   3020.4079              3023.3039              3027.4528
 Red. masses --      1.0741                 1.0695                 1.0692
 Frc consts  --      5.7733                 5.7597                 5.7740
 IR Inten    --     15.6928                14.7763                32.3265

                     94                     95                     96
                      A                      A                      A
 Frequencies --   3028.4896              3042.6261              3046.5863
 Red. masses --      1.0733                 1.0610                 1.0616
 Frc consts  --      5.8000                 5.7869                 5.8052
 IR Inten    --     75.8692                24.5131                24.4079

                     97                     98                     99
                      A                      A                      A
 Frequencies --   3048.3045              3048.8064              3082.1857
 Red. masses --      1.0600                 1.0614                 1.0936
 Frc consts  --      5.8030                 5.8130                 6.1212
 IR Inten    --     27.2367                17.2388                45.0730

                    100                    101                    102
                      A                      A                      A
 Frequencies --   3083.1113              3087.3344              3090.5811
 Red. masses --      1.0939                 1.1032                 1.1049
 Frc consts  --      6.1264                 6.1952                 6.2179
 IR Inten    --     49.0168                31.3407                23.9990

                    103                    104                    105
                      A                      A                      A
 Frequencies --   3093.0984              3096.0669              3163.7735
 Red. masses --      1.1050                 1.1048                 1.0912
 Frc consts  --      6.2288                 6.2395                 6.4353
 IR Inten    --     64.1283                66.2764                 2.8231

                    106                    107                    108
                      A                      A                      A
 Frequencies --   3166.8339              3182.5872              3187.5518
 Red. masses --      1.0923                 1.0890                 1.0874
 Frc consts  --      6.4542                 6.4990                 6.5095
 IR Inten    --      2.5220                30.5376                 2.0954

 - Thermochemistry -
 -------------------
 Temperature   298.150 Kelvin.  Pressure   1.00000 Atm.
 Atom     1 has atomic number  6 and mass  12.00000

 Molecular mass:   252.15863 amu.
 Principal axes and moments of inertia in atomic units:
                           1         2         3
     Eigenvalues --  2254.325568588.814079818.08960
           X            0.99997   0.00189  -0.00698
           Y           -0.00192   0.99999  -0.00415
           Z            0.00697   0.00417   0.99997
 This molecule is an asymmetric top.
 Rotational symmetry number  1.
 Warning -- assumption of classical behavior for rotation
           may cause significant error
 Rotational temperatures (Kelvin)      0.03842     0.01008     0.00882
 Rotational constants (GHZ):           0.80057     0.21013     0.18382
 Zero-point vibrational energy     864306.8 (Joules/Mol)
                                  206.57428 (Kcal/Mol)
 Warning -- explicit consideration of  26 degrees of freedom as
           vibrations may cause significant error
 Vibrational temperatures:     13.54    37.69    51.68    72.09    83.59
          (Kelvin)            105.27   130.81   246.72   271.38   306.39
                              314.55   369.80   395.14   418.17   482.75
                              529.97   563.23   570.35   601.55   633.60
                              656.46   681.48   754.29   788.54   828.73
                              845.97   917.41  1001.91  1033.57  1130.48
                             1181.05  1183.63  1198.24  1211.92  1246.77
                             1249.19  1262.14  1296.98  1322.75  1385.00
                             1404.08  1404.43  1405.15  1488.69  1502.14
                             1503.29  1514.58  1557.68  1562.80  1657.37
                             1664.78  1675.58  1684.77  1718.98  1722.13
                             1794.38  1823.96  1841.47  1851.73  1870.01
                             1872.88  1896.12  1903.30  1970.62  1971.83
                             2010.25  2012.91  2013.52  2016.39  2016.54
                             2018.64  2042.00  2042.62  2105.89  2120.70
                             2168.65  2168.88  2177.27  2179.03  2179.68
                             2182.00  2186.40  2187.37  2204.52  2208.56
                             2319.27  2557.65  2586.77  4338.54  4343.27
                             4345.69  4349.86  4355.83  4357.32  4377.66
                             4383.36  4385.83  4386.55  4434.58  4435.91
                             4441.99  4446.66  4450.28  4454.55  4551.96
                             4556.37  4579.03  4586.18

 Zero-point correction=                           0.329197 (Hartree/Particle)
 Thermal correction to Energy=                    0.346363
 Thermal correction to Enthalpy=                  0.347307
 Thermal correction to Gibbs Free Energy=         0.280690
 Sum of electronic and zero-point Energies=           -838.423529
 Sum of electronic and thermal Energies=              -838.406363
 Sum of electronic and thermal Enthalpies=            -838.405419
 Sum of electronic and thermal Free Energies=         -838.472036

                     E (Thermal)             CV                S
                      KCal/Mol        Cal/Mol-Kelvin    Cal/Mol-Kelvin
 Total                  217.346             64.799            140.208
 Electronic               0.000              0.000              0.000
 Translational            0.889              2.981             42.475
 Rotational               0.889              2.981             33.608
 Vibrational            215.569             58.838             64.126
 Vibration     1          0.593              1.987              8.132
 Vibration     2          0.593              1.985              6.099
 Vibration     3          0.594              1.982              5.472
 Vibration     4          0.595              1.978              4.813
 Vibration     5          0.596              1.974              4.521
 Vibration     6          0.599              1.967              4.066
 Vibration     7          0.602              1.956              3.640
 Vibration     8          0.626              1.878              2.419
 Vibration     9          0.633              1.856              2.241
 Vibration    10          0.644              1.821              2.018
 Vibration    11          0.646              1.813              1.970
 Vibration    12          0.667              1.751              1.682
 Vibration    13          0.677              1.720              1.567
 Vibration    14          0.687              1.691              1.470
 Vibration    15          0.717              1.605              1.233
 Vibration    16          0.741              1.537              1.087
 Vibration    17          0.759              1.488              0.995
 Vibration    18          0.763              1.478              0.976
 Vibration    19          0.781              1.431              0.898
 Vibration    20          0.800              1.382              0.825
 Vibration    21          0.814              1.347              0.777
 Vibration    22          0.830              1.309              0.727
 Vibration    23          0.879              1.196              0.600
 Vibration    24          0.903              1.144              0.548
 Vibration    25          0.932              1.083              0.493
 Vibration    26          0.945              1.057              0.471

 Optimization completed.
    -- Stationary point found.
 Normal termination of Gaussian 16 at Sat Aug 22 16:49:17 2020.
 Gaussian 16:  ES64L-G16RevA.03 25-Dec-2016

 ----------------------------------------------------------------------
 # TD(NStates=10, Root=1) B3LYP/6-31G* scf=qc volume pop=NPA density=cu
 rrent Geom=AllCheck Guess=Read
 ----------------------------------------------------------------------

 Structure from the checkpoint file:  "azadicarboxylate_5_conf113.chk"
 -------------------
 Title Card Required
 -------------------
 Charge =  0 Multiplicity = 1

                         Standard orientation:
 ---------------------------------------------------------------------
 Center     Atomic      Atomic             Coordinates (Angstroms)
 Number     Number       Type             X           Y           Z
 ---------------------------------------------------------------------
      1          6           0        1.830897   -1.309138    0.622823
      2          8           0        2.332494   -2.418250    0.687933
      3          7           0        0.365788   -1.285591    0.624074
      4          7           0       -0.127807   -0.953158   -0.474536
      5          6           0       -1.551978   -1.275842   -0.597052
      6          8           0       -1.813445   -2.204213   -1.342287
      7          7           0       -2.461033   -0.477196    0.022672
      8          6           0       -2.177528    0.583963    0.991122
      9          6           0       -2.885039    1.887554    0.594702
     10          6           0       -4.389260    1.660641    0.386361
     11          6           0       -4.630657    0.521844   -0.615147
     12          6           0       -3.888389   -0.751929   -0.195464
     13          7           0        2.508837   -0.130724    0.653367
     14          6           0        3.977308   -0.176304    0.691134
     15          6           0        4.565874    0.366895   -0.617762
     16          6           0        4.024013    1.771794   -0.926365
     17          6           0        2.487454    1.792728   -0.893582
     18          6           0        1.958188    1.206376    0.423727
     19          1           0       -1.102559    0.731382    1.068688
     20          1           0       -2.528063    0.256405    1.981871
     21          1           0       -2.435601    2.267865   -0.332477
     22          1           0       -2.709574    2.639528    1.374080
     23          1           0       -4.870483    2.583994    0.042979
     24          1           0       -4.853229    1.402669    1.349823
     25          1           0       -4.283184    0.823707   -1.612064
     26          1           0       -5.701617    0.300613   -0.700048
     27          1           0       -3.958504   -1.533900   -0.951551
     28          1           0       -4.313759   -1.145780    0.740247
     29          1           0        4.271748   -1.210056    0.870926
     30          1           0        4.313774    0.435788    1.540640
     31          1           0        4.305942   -0.322091   -1.431796
     32          1           0        5.660325    0.382562   -0.544047
     33          1           0        4.387560    2.116290   -1.901705
     34          1           0        4.410372    2.481057   -0.179117
     35          1           0        2.082562    1.199045   -1.722930
     36          1           0        2.112351    2.817460   -1.009635
     37          1           0        0.871396    1.163179    0.418561
     38          1           0        2.262358    1.845175    1.266371
 ---------------------------------------------------------------------

 SCF Done:  E(RB3LYP) =  -838.752725956     a.u. after    1 cycles

 Excitation energies and oscillator strengths:

 Excited State   1:      Singlet-A      2.7973 eV  443.23 nm  f=0.0076  <S**2>=0.000
      65 -> 69         0.14322
      68 -> 69         0.69196
 This state for optimization and/or second-order correction.
 Total Energy, E(TD-HF/TD-DFT) =  -838.649928574
 Copying the excited state density for this state as the 1-particle RhoCI density.

 Excited State   2:      Singlet-A      3.9034 eV  317.63 nm  f=0.0161  <S**2>=0.000
      66 -> 69        -0.11841
      67 -> 69         0.69470

 Excited State   3:      Singlet-A      3.9465 eV  314.16 nm  f=0.0077  <S**2>=0.000
      66 -> 69         0.69509
      67 -> 69         0.11838

 Excited State   4:      Singlet-A      4.5904 eV  270.09 nm  f=0.0607  <S**2>=0.000
      65 -> 69         0.67856
      68 -> 69        -0.13430

 Excited State   5:      Singlet-A      4.8419 eV  256.06 nm  f=0.0010  <S**2>=0.000
      64 -> 69         0.69349

 Excited State   6:      Singlet-A      5.7008 eV  217.49 nm  f=0.0019  <S**2>=0.000
      64 -> 70         0.11605
      64 -> 71         0.13775
      68 -> 70         0.67046

 Excited State   7:      Singlet-A      5.8024 eV  213.68 nm  f=0.0053  <S**2>=0.000
      64 -> 70         0.14120
      64 -> 71        -0.11333
      68 -> 71         0.66868

 Excited State   8:      Singlet-A      6.4691 eV  191.66 nm  f=0.0004  <S**2>=0.000
      61 -> 69        -0.13538
      63 -> 69         0.68359

 Excited State   9:      Singlet-A      6.5660 eV  188.83 nm  f=0.0140  <S**2>=0.000
      59 -> 69         0.12905
      61 -> 69        -0.14879
      62 -> 69         0.65875
      63 -> 69        -0.11280

 Excited State  10:      Singlet-A      6.6166 eV  187.38 nm  f=0.0055  <S**2>=0.000
      54 -> 69         0.10242
      58 -> 69         0.22369
      59 -> 69        -0.10007
      61 -> 69         0.60915
      62 -> 69         0.15367
      63 -> 69         0.12997

 The electronic state is 1-A.
 Alpha  occ. eigenvalues --  -19.12236 -19.12167 -14.40420 -14.40348 -14.37664
 Alpha  occ. eigenvalues --  -14.37577 -10.31217 -10.31159 -10.23668 -10.23606
 Alpha  occ. eigenvalues --  -10.22416 -10.22352 -10.20077 -10.19721 -10.19631
 Alpha  occ. eigenvalues --  -10.19560 -10.19454 -10.19279  -1.08060  -1.04893
 Alpha  occ. eigenvalues --   -1.01139  -0.95051  -0.94981  -0.81452  -0.80871
 Alpha  occ. eigenvalues --   -0.77727  -0.77326  -0.75303  -0.69437  -0.67512
 Alpha  occ. eigenvalues --   -0.64697  -0.64045  -0.60504  -0.59495  -0.56376
 Alpha  occ. eigenvalues --   -0.55039  -0.54377  -0.48987  -0.48619  -0.47893
 Alpha  occ. eigenvalues --   -0.47161  -0.46731  -0.46308  -0.45320  -0.44383
 Alpha  occ. eigenvalues --   -0.43849  -0.43321  -0.43084  -0.42350  -0.41450
 Alpha  occ. eigenvalues --   -0.40451  -0.39912  -0.39644  -0.37437  -0.37031
 Alpha  occ. eigenvalues --   -0.36615  -0.36379  -0.34691  -0.34519  -0.34096
 Alpha  occ. eigenvalues --   -0.33729  -0.33484  -0.33229  -0.28310  -0.27747
 Alpha  occ. eigenvalues --   -0.24874  -0.24699  -0.22872
 Alpha virt. eigenvalues --   -0.06892   0.02749   0.03294   0.06894   0.08694
 Alpha virt. eigenvalues --    0.09956   0.10440   0.10956   0.12661   0.12730
 Alpha virt. eigenvalues --    0.13646   0.13841   0.14598   0.14764   0.15220

 Mulliken charges:
               1
     1  C    0.694844
     2  O   -0.451100
     3  N   -0.274459
     4  N   -0.283866
     5  C    0.693787
     6  O   -0.449517
     7  N   -0.403628
     8  C   -0.154661
     9  C   -0.262669
    10  C   -0.268934
    11  C   -0.265257
    12  C   -0.148724
    13  N   -0.398156
    14  C   -0.154809
    15  C   -0.263706
    16  C   -0.268940
    17  C   -0.262396
    18  C   -0.160576
    19  H    0.184521
    20  H    0.152231
    21  H    0.144730
    22  H    0.141495
    23  H    0.143822
    24  H    0.134969
    25  H    0.148622
    26  H    0.145511
    27  H    0.197333
    28  H    0.147096
    29  H    0.196476
    30  H    0.144588
    31  H    0.156118
    32  H    0.142605
    33  H    0.144921
    34  H    0.131138
    35  H    0.158276
    36  H    0.138583
    37  H    0.184066
    38  H    0.145665
 Sum of Mulliken charges =  -0.00000

 Dipole moment (field-independent basis, Debye):
    X=             -0.8372    Y=              6.7525    Z=              1.4294  Tot=              6.9527
 Quadrupole moment (field-independent basis, Debye-Ang):
   XX=            -87.3110   YY=           -120.1830   ZZ=           -108.9294
   XY=              3.7101   XZ=             -4.1662   YZ=             -1.4787

 Summary of Natural Population Analysis:

                                       Natural Population
                Natural  -----------------------------------------------
    Atom  No    Charge         Core      Valence    Rydberg      Total
 -----------------------------------------------------------------------
      C    1    0.79496      1.99933     3.16002    0.04569     5.20504
      O    2   -0.56131      1.99979     6.54253    0.01900     8.56131
      N    3   -0.24003      1.99942     5.21454    0.02608     7.24003
      N    4   -0.25046      1.99942     5.22490    0.02614     7.25046
      C    5    0.79921      1.99933     3.15589    0.04557     5.20079
      O    6   -0.56033      1.99979     6.54158    0.01896     8.56033
      N    7   -0.48040      1.99927     5.46820    0.01292     7.48040
      C    8   -0.25359      1.99930     4.23800    0.01629     6.25359
      C    9   -0.47017      1.99932     4.45952    0.01133     6.47017
      C   10   -0.46497      1.99933     4.45401    0.01163     6.46497
      C   11   -0.47232      1.99932     4.46149    0.01151     6.47232
      C   12   -0.25925      1.99932     4.24368    0.01625     6.25925
      N   13   -0.47941      1.99928     5.46721    0.01292     7.47941
      C   14   -0.25897      1.99932     4.24308    0.01657     6.25897
      C   15   -0.47351      1.99932     4.46282    0.01137     6.47351
      C   16   -0.46573      1.99933     4.45480    0.01160     6.46573
      C   17   -0.47157      1.99932     4.46078    0.01147     6.47157
      C   18   -0.25324      1.99930     4.23737    0.01657     6.25324
      H   19    0.24918      0.00000     0.74927    0.00154     0.75082
      H   20    0.22826      0.00000     0.76945    0.00229     0.77174
      H   21    0.23428      0.00000     0.76364    0.00208     0.76572
      H   22    0.24426      0.00000     0.75458    0.00116     0.75574
      H   23    0.24507      0.00000     0.75383    0.00110     0.75493
      H   24    0.22775      0.00000     0.77032    0.00193     0.77225
      H   25    0.23662      0.00000     0.76147    0.00191     0.76338
      H   26    0.24740      0.00000     0.75150    0.00110     0.75260
      H   27    0.27253      0.00000     0.72527    0.00220     0.72747
      H   28    0.22384      0.00000     0.77405    0.00211     0.77616
      H   29    0.27194      0.00000     0.72582    0.00224     0.72806
      H   30    0.22503      0.00000     0.77309    0.00187     0.77497
      H   31    0.24044      0.00000     0.75776    0.00180     0.75956
      H   32    0.24502      0.00000     0.75384    0.00115     0.75498
      H   33    0.24579      0.00000     0.75313    0.00108     0.75421
      H   34    0.22543      0.00000     0.77265    0.00193     0.77457
      H   35    0.24181      0.00000     0.75610    0.00209     0.75819
      H   36    0.24237      0.00000     0.75646    0.00118     0.75763
      H   37    0.24763      0.00000     0.75074    0.00164     0.75237
      H   38    0.22645      0.00000     0.77138    0.00217     0.77355
 =======================================================================
   * Total *   -0.00000     35.98881    99.63477    0.37642   136.00000

 Normal termination of Gaussian 16 at Sat Aug 22 16:58:14 2020.
