 Gaussian 16, Revision A.03,

 ---------------------------------
 # opt=CalcAll B3LYP/6-31G* scf=qc
 ---------------------------------

 -------------------
 Title Card Required
 -------------------
 Symbolic Z-matrix:
 Charge =  0 Multiplicity = 1

 SCF Done:  E(RB3LYP) =  -1028.37733692     a.u. after   10 cycles
 SCF Done:  E(RB3LYP) =  -1028.43112404     a.u. after   19 cycles
 SCF Done:  E(RB3LYP) =  -1028.44654790     a.u. after   17 cycles
 SCF Done:  E(RB3LYP) =  -1028.46453051     a.u. after   19 cycles
 SCF Done:  E(RB3LYP) =  -1028.47647490     a.u. after   19 cycles
 SCF Done:  E(RB3LYP) =  -1028.48071059     a.u. after   17 cycles
 SCF Done:  E(RB3LYP) =  -1028.48208211     a.u. after   17 cycles
 SCF Done:  E(RB3LYP) =  -1028.48226898     a.u. after   13 cycles
 SCF Done:  E(RB3LYP) =  -1028.48227630     a.u. after   11 cycles
 SCF Done:  E(RB3LYP) =  -1028.48227768     a.u. after    5 cycles
 SCF Done:  E(RB3LYP) =  -1028.48227768     a.u. after    2 cycles
 Optimization completed.
    -- Stationary point found.
 Normal termination of Gaussian 16 at Sat Aug 22 16:45:12 2020.

 ----------------------------------------------------------------------
 # freq B3LYP/6-31G* scf=qc volume NMR pop=NPA density=current Geom=All
 Check Guess=Read
 ----------------------------------------------------------------------

 Structure from the checkpoint file:  "azadicarboxylate_4_conf52.chk"
 -------------------
 Title Card Required
 -------------------
 Charge =  0 Multiplicity = 1

 SCF Done:  E(RB3LYP) =  -1028.48227768     a.u. after    1 cycles

      1  C    Isotropic =    62.0330   Anisotropy =   173.1214

      2  C    Isotropic =   120.6785   Anisotropy =    39.4614

      3  O    Isotropic =   141.8529   Anisotropy =   142.2974

      4  C    Isotropic =    34.6742   Anisotropy =    83.6974

      5  O    Isotropic =   -19.3334   Anisotropy =   490.2413

      6  N    Isotropic =  -323.1638   Anisotropy =   674.9284

      7  N    Isotropic =  -323.1657   Anisotropy =   674.9270

      8  C    Isotropic =    34.6722   Anisotropy =    83.6847

      9  O    Isotropic =   -19.3259   Anisotropy =   490.2240

     10  O    Isotropic =   141.8546   Anisotropy =   142.2965

     11  C    Isotropic =   120.6805   Anisotropy =    39.4625

     12  C    Isotropic =    62.0318   Anisotropy =   173.1198

     13  C    Isotropic =    65.2521   Anisotropy =   155.1977

     14  C    Isotropic =    68.3865   Anisotropy =   165.3328

     15  C    Isotropic =    66.9507   Anisotropy =   170.9961

     16  C    Isotropic =    67.5241   Anisotropy =   167.2719

     17  C    Isotropic =    63.9465   Anisotropy =   163.4119

     18  C    Isotropic =    65.2536   Anisotropy =   155.2074

     19  C    Isotropic =    68.3866   Anisotropy =   165.3339

     20  C    Isotropic =    66.9502   Anisotropy =   170.9968

     21  C    Isotropic =    67.5247   Anisotropy =   167.2701

     22  C    Isotropic =    63.9430   Anisotropy =   163.4062

     23  H    Isotropic =    27.6512   Anisotropy =     5.1791

     24  H    Isotropic =    26.4035   Anisotropy =     2.5420

     25  H    Isotropic =    26.4029   Anisotropy =     2.5416

     26  H    Isotropic =    27.6515   Anisotropy =     5.1798

     27  H    Isotropic =    24.9529   Anisotropy =     6.7206

     28  H    Isotropic =    24.9470   Anisotropy =     4.6092

     29  H    Isotropic =    24.9186   Anisotropy =     4.1927

     30  H    Isotropic =    24.8959   Anisotropy =     4.9597

     31  H    Isotropic =    24.3800   Anisotropy =     8.0050

     32  H    Isotropic =    24.9528   Anisotropy =     6.7207

     33  H    Isotropic =    24.9470   Anisotropy =     4.6092

     34  H    Isotropic =    24.9185   Anisotropy =     4.1929

     35  H    Isotropic =    24.8958   Anisotropy =     4.9596

     36  H    Isotropic =    24.3800   Anisotropy =     8.0038

  Exact polarizability: 221.551 -39.973 147.119   0.051   0.045 181.548
 Approx polarizability: 267.009 -70.150 245.462   0.094   0.104 330.807

                      1                      2                      3
                      A                      A                      A
 Frequencies --      6.2449                16.7723                23.1267
 Red. masses --      5.6952                 6.7097                 4.5027
 Frc consts  --      0.0001                 0.0011                 0.0014
 IR Inten    --      0.1514                 0.4555                 0.3550

                      4                      5                      6
                      A                      A                      A
 Frequencies --     24.0494                29.7065                51.8305
 Red. masses --      4.1368                 6.2273                 9.5766
 Frc consts  --      0.0014                 0.0032                 0.0152
 IR Inten    --      0.0416                 0.0651                 0.1919

                      7                      8                      9
                      A                      A                      A
 Frequencies --     60.6800                69.4489                79.6385
 Red. masses --      9.1548                 6.6140                 5.6799
 Frc consts  --      0.0199                 0.0188                 0.0212
 IR Inten    --      1.1430                 2.8491                 0.1481

                     10                     11                     12
                      A                      A                      A
 Frequencies --    134.2226               152.8360               210.8355
 Red. masses --      7.7995                 5.8621                 7.0393
 Frc consts  --      0.0828                 0.0807                 0.1844
 IR Inten    --      1.4004                 0.0227                 2.4418

                     13                     14                     15
                      A                      A                      A
 Frequencies --    235.9700               242.8994               253.0421
 Red. masses --      6.5526                 7.5377                11.3675
 Frc consts  --      0.2150                 0.2620                 0.4288
 IR Inten    --      1.6571                 6.0566                 1.4026

                     16                     17                     18
                      A                      A                      A
 Frequencies --    301.4180               328.6899               360.2741
 Red. masses --      7.7825                 4.5030                 2.2430
 Frc consts  --      0.4166                 0.2866                 0.1715
 IR Inten    --      6.6238                 0.0139                 3.2023

                     19                     20                     21
                      A                      A                      A
 Frequencies --    380.6100               417.1077               417.1628
 Red. masses --      2.2537                 2.9684                 2.9687
 Frc consts  --      0.1924                 0.3043                 0.3044
 IR Inten    --      6.9778                 0.1212                 0.0011

                     22                     23                     24
                      A                      A                      A
 Frequencies --    438.2861               491.7002               503.9568
 Red. masses --      4.9841                 4.0870                 4.7637
 Frc consts  --      0.5641                 0.5822                 0.7128
 IR Inten    --     19.9671                 0.2306                41.6956

                     25                     26                     27
                      A                      A                      A
 Frequencies --    574.2448               580.4529               602.1814
 Red. masses --     10.5282                 6.5638                 5.7763
 Frc consts  --      2.0455                 1.3030                 1.2341
 IR Inten    --      0.8017                 0.0140                26.6747

                     28                     29                     30
                      A                      A                      A
 Frequencies --    635.4508               635.6486               644.5205
 Red. masses --      6.3993                 6.3088                 5.6214
 Frc consts  --      1.5225                 1.5019                 1.3758
 IR Inten    --      0.8875                 0.0032                 2.7485

                     31                     32                     33
                      A                      A                      A
 Frequencies --    657.9873               713.6333               714.3486
 Red. masses --      6.0294                 1.8113                 1.7628
 Frc consts  --      1.5380                 0.5435                 0.5300
 IR Inten    --      4.0144                59.3209                 2.0603

                     34                     35                     36
                      A                      A                      A
 Frequencies --    772.1010               774.4664               806.8180
 Red. masses --      2.0916                 2.1404                10.2701
 Frc consts  --      0.7347                 0.7564                 3.9389
 IR Inten    --     76.7462                 0.2759                29.9383

                     37                     38                     39
                      A                      A                      A
 Frequencies --    827.6612               839.3404               839.8747
 Red. masses --      5.0584                 3.9057                 3.7901
 Frc consts  --      2.0416                 1.6212                 1.5752
 IR Inten    --      1.2180                24.3441                 0.3155

                     40                     41                     42
                      A                      A                      A
 Frequencies --    864.0127               864.0594               870.7776
 Red. masses --      1.2482                 1.2470                 4.7782
 Frc consts  --      0.5490                 0.5485                 2.1347
 IR Inten    --      0.0909                 0.0711                69.0859

                     43                     44                     45
                      A                      A                      A
 Frequencies --    919.6822               939.5705               944.3250
 Red. masses --      4.5746                 1.4881                 1.6920
 Frc consts  --      2.2797                 0.7740                 0.8890
 IR Inten    --      0.0443                21.1440                 0.0051

                     46                     47                     48
                      A                      A                      A
 Frequencies --    973.0746               974.5165               974.5656
 Red. masses --      3.9712                 1.3553                 1.3776
 Frc consts  --      2.2155                 0.7583                 0.7709
 IR Inten    --    124.1563                 0.3715                 8.1903

                     49                     50                     51
                      A                      A                      A
 Frequencies --    991.1732              1002.8411              1002.8884
 Red. masses --      3.8762                 1.2797                 1.2873
 Frc consts  --      2.2437                 0.7583                 0.7628
 IR Inten    --      5.2753                 0.0245                 0.3842

                     52                     53                     54
                      A                      A                      A
 Frequencies --   1018.3730              1018.8151              1021.3274
 Red. masses --      3.5748                 3.9811                 4.0543
 Frc consts  --      2.1843                 2.4347                 2.4917
 IR Inten    --      9.7239                 8.9664                 7.0990

                     55                     56                     57
                      A                      A                      A
 Frequencies --   1022.2634              1059.0399              1059.0618
 Red. masses --      3.1032                 2.2302                 2.2307
 Frc consts  --      1.9107                 1.4737                 1.4742
 IR Inten    --      4.7597                 2.2686                 0.0092

                     58                     59                     60
                      A                      A                      A
 Frequencies --   1123.5265              1123.7280              1194.8945
 Red. masses --      1.5181                 1.5191                 1.1026
 Frc consts  --      1.1291                 1.1302                 0.9275
 IR Inten    --      4.2123                 0.3220                 0.0449

                     61                     62                     63
                      A                      A                      A
 Frequencies --   1194.8990              1214.9544              1216.2864
 Red. masses --      1.1026                 1.2294                 1.1400
 Frc consts  --      0.9275                 1.0692                 0.9936
 IR Inten    --      0.0050               162.5354                 0.3833

                     64                     65                     66
                      A                      A                      A
 Frequencies --   1228.1154              1240.1322              1240.2642
 Red. masses --      4.0380                 3.0052                 2.9145
 Frc consts  --      3.5884                 2.7231                 2.6414
 IR Inten    --   1151.9065                 0.7317                13.6428

                     67                     68                     69
                      A                      A                      A
 Frequencies --   1267.7994              1297.0709              1302.9314
 Red. masses --      2.6972                 1.4002                 1.7842
 Frc consts  --      2.5542                 1.3879                 1.7846
 IR Inten    --    106.3085                72.1082                78.9948

                     70                     71                     72
                      A                      A                      A
 Frequencies --   1365.1246              1365.1400              1375.2652
 Red. masses --      4.1636                 4.1468                 1.2652
 Frc consts  --      4.5716                 4.5532                 1.4099
 IR Inten    --      0.6480                 4.8026                 5.4207

                     73                     74                     75
                      A                      A                      A
 Frequencies --   1375.3997              1416.8309              1417.8560
 Red. masses --      1.2666                 1.3408                 1.3763
 Frc consts  --      1.4118                 1.5857                 1.6301
 IR Inten    --      0.0282                35.2082                 4.0834

                     76                     77                     78
                      A                      A                      A
 Frequencies --   1504.8890              1504.8995              1516.7014
 Red. masses --      2.2026                 2.2021                 1.1160
 Frc consts  --      2.9389                 2.9384                 1.5126
 IR Inten    --      0.5871                13.6761                22.5614

                     79                     80                     81
                      A                      A                      A
 Frequencies --   1516.9566              1547.9964              1548.0410
 Red. masses --      1.1179                 2.2135                 2.2114
 Frc consts  --      1.5157                 3.1251                 3.1224
 IR Inten    --      0.0023                 9.3300                 0.2165

                     82                     83                     84
                      A                      A                      A
 Frequencies --   1646.3452              1646.3616              1653.5454
 Red. masses --      5.4980                 5.5002                13.9401
 Frc consts  --      8.7800                 8.7838                22.4568
 IR Inten    --      0.4247                 1.1434                 0.4911

                     85                     86                     87
                      A                      A                      A
 Frequencies --   1666.1403              1666.1637              1832.6272
 Red. masses --      5.5113                 5.5097                12.1566
 Frc consts  --      9.0142                 9.0119                24.0554
 IR Inten    --      0.9269                 0.0870                87.5950

                     88                     89                     90
                      A                      A                      A
 Frequencies --   1848.4669              3107.2616              3107.3548
 Red. masses --     12.1145                 1.0575                 1.0575
 Frc consts  --     24.3882                 6.0158                 6.0162
 IR Inten    --    402.1270                31.3939                11.8842

                     91                     92                     93
                      A                      A                      A
 Frequencies --   3165.0725              3165.1082              3179.0095
 Red. masses --      1.1107                 1.1107                 1.0867
 Frc consts  --      6.5558                 6.5559                 6.4706
 IR Inten    --      1.0177                 7.4839                 4.9798

                     94                     95                     96
                      A                      A                      A
 Frequencies --   3179.0237              3187.6356              3187.6427
 Red. masses --      1.0867                 1.0876                 1.0876
 Frc consts  --      6.4706                 6.5113                 6.5114
 IR Inten    --      5.9192                 4.3112                 1.2338

                     97                     98                     99
                      A                      A                      A
 Frequencies --   3198.1792              3198.1932              3207.8107
 Red. masses --      1.0914                 1.0914                 1.0949
 Frc consts  --      6.5771                 6.5772                 6.6379
 IR Inten    --      4.0832                41.3300                37.5101

                    100                    101                    102
                      A                      A                      A
 Frequencies --   3207.8399              3215.7579              3215.7688
 Red. masses --      1.0949                 1.0963                 1.0963
 Frc consts  --      6.6380                 6.6793                 6.6794
 IR Inten    --      9.8521                 9.0256                 6.1026

 - Thermochemistry -
 -------------------
 Temperature   298.150 Kelvin.  Pressure   1.00000 Atm.
 Atom     1 has atomic number  6 and mass  12.00000

 Molecular mass:   298.09536 amu.
 Principal axes and moments of inertia in atomic units:
                           1         2         3
     Eigenvalues --  2351.55602********************
           X            0.99999  -0.00345   0.00000
           Y            0.00345   0.99999   0.00030
           Z           -0.00000  -0.00030   1.00000
 This molecule is an asymmetric top.
 Rotational symmetry number  1.
 Warning -- assumption of classical behavior for rotation
           may cause significant error
 Rotational temperatures (Kelvin)      0.03683     0.00442     0.00440
 Rotational constants (GHZ):           0.76747     0.09216     0.09158
 Zero-point vibrational energy     729426.7 (Joules/Mol)
                                  174.33716 (Kcal/Mol)
 Warning -- explicit consideration of  27 degrees of freedom as
           vibrations may cause significant error
 Vibrational temperatures:      8.99    24.13    33.27    34.60    42.74
          (Kelvin)             74.57    87.31    99.92   114.58   193.12
                              219.90   303.35   339.51   349.48   364.07
                              433.67   472.91   518.35   547.61   600.12
                              600.20   630.60   707.45   725.08   826.21
                              835.14   866.40   914.27   914.56   927.32
                              946.70  1026.76  1027.79  1110.88  1114.28
                             1160.83  1190.82  1207.62  1208.39  1243.12
                             1243.19  1252.85  1323.22  1351.83  1358.67
                             1400.04  1402.11  1402.18  1426.08  1442.86
                             1442.93  1465.21  1465.85  1469.46  1470.81
                             1523.72  1523.75  1616.50  1616.79  1719.19
                             1719.19  1748.05  1749.96  1766.98  1784.27
                             1784.46  1824.08  1866.20  1874.63  1964.11
                             1964.13  1978.70  1978.89  2038.50  2039.98
                             2165.20  2165.21  2182.20  2182.56  2227.22
                             2227.29  2368.72  2368.75  2379.08  2397.20
                             2397.24  2636.74  2659.53  4470.66  4470.79
                             4553.83  4553.88  4573.89  4573.91  4586.30
                             4586.31  4601.47  4601.49  4615.32  4615.37
                             4626.76  4626.77

 Zero-point correction=                           0.277824 (Hartree/Particle)
 Thermal correction to Energy=                    0.297258
 Thermal correction to Enthalpy=                  0.298202
 Thermal correction to Gibbs Free Energy=         0.222751
 Sum of electronic and zero-point Energies=          -1028.204454
 Sum of electronic and thermal Energies=             -1028.185019
 Sum of electronic and thermal Enthalpies=           -1028.184075
 Sum of electronic and thermal Free Energies=        -1028.259527

                     E (Thermal)             CV                S
                      KCal/Mol        Cal/Mol-Kelvin    Cal/Mol-Kelvin
 Total                  186.532             71.316            158.801
 Electronic               0.000              0.000              0.000
 Translational            0.889              2.981             42.974
 Rotational               0.889              2.981             35.161
 Vibrational            184.755             65.354             80.667
 Vibration     1          0.593              1.987              8.947
 Vibration     2          0.593              1.986              6.984
 Vibration     3          0.593              1.985              6.346
 Vibration     4          0.593              1.985              6.268
 Vibration     5          0.593              1.984              5.849
 Vibration     6          0.596              1.977              4.746
 Vibration     7          0.597              1.973              4.435
 Vibration     8          0.598              1.969              4.169
 Vibration     9          0.600              1.963              3.900
 Vibration    10          0.613              1.919              2.885
 Vibration    11          0.619              1.900              2.637
 Vibration    12          0.643              1.824              2.036
 Vibration    13          0.655              1.786              1.833
 Vibration    14          0.659              1.774              1.782
 Vibration    15          0.664              1.758              1.709
 Vibration    16          0.693              1.671              1.409
 Vibration    17          0.712              1.618              1.267
 Vibration    18          0.735              1.554              1.121
 Vibration    19          0.750              1.512              1.037
 Vibration    20          0.780              1.433              0.902
 Vibration    21          0.780              1.433              0.902
 Vibration    22          0.798              1.387              0.832
 Vibration    23          0.847              1.268              0.679
 Vibration    24          0.859              1.241              0.648
 Vibration    25          0.931              1.087              0.496
 Vibration    26          0.937              1.074              0.485
 Vibration    27          0.960              1.027              0.446

 Optimization completed.
    -- Stationary point found.
 Normal termination of Gaussian 16 at Sat Aug 22 16:55:07 2020.
 Gaussian 16:  ES64L-G16RevA.03 25-Dec-2016

 ----------------------------------------------------------------------
 # TD(NStates=10, Root=1) B3LYP/6-31G* scf=qc volume pop=NPA density=cu
 rrent Geom=AllCheck Guess=Read
 ----------------------------------------------------------------------

 Structure from the checkpoint file:  "azadicarboxylate_4_conf53.chk"
 -------------------
 Title Card Required
 -------------------
 Charge =  0 Multiplicity = 1

                         Standard orientation:
 ---------------------------------------------------------------------
 Center     Atomic      Atomic             Coordinates (Angstroms)
 Number     Number       Type             X           Y           Z
 ---------------------------------------------------------------------
      1          6           0        4.371967    0.651111   -0.475497
      2          6           0        3.280371    1.654818   -0.733618
      3          8           0        1.947473    1.054170   -0.599730
      4          6           0        1.387898    1.124154    0.605472
      5          8           0        1.834322    1.618541    1.610725
      6          7           0        0.029270    0.622268    0.554184
      7          7           0       -0.029184   -0.621406    0.555097
      8          6           0       -1.387806   -1.123198    0.607434
      9          8           0       -1.834119   -1.615865    1.613578
     10          8           0       -1.947547   -1.055238   -0.597813
     11          6           0       -3.280444   -1.656109   -0.730513
     12          6           0       -4.372010   -0.651908   -0.474180
     13          6           0       -4.892724    0.106725   -1.529883
     14          6           0       -5.899098    1.044528   -1.299702
     15          6           0       -6.394381    1.231742   -0.007789
     16          6           0       -5.880467    0.479565    1.050751
     17          6           0       -4.874280   -0.458256    0.819993
     18          6           0        4.892317   -0.109846   -1.529703
     19          6           0        5.898692   -1.047222   -1.297779
     20          6           0        6.394346   -1.231655   -0.005609
     21          6           0        5.880800   -0.477141    1.051448
     22          6           0        4.874610    0.460242    0.818951
     23          1           0        3.295671    2.008488   -1.765846
     24          1           0        3.335925    2.503392   -0.049269
     25          1           0       -3.335979   -2.503427   -0.044604
     26          1           0       -3.295823   -2.011689   -1.762086
     27          1           0       -4.508140   -0.039827   -2.536731
     28          1           0       -6.297334    1.625918   -2.126820
     29          1           0       -7.179983    1.960482    0.173276
     30          1           0       -6.264359    0.622061    2.057208
     31          1           0       -4.465491   -1.037842    1.642478
     32          1           0        4.507456    0.034561   -2.536754
     33          1           0        6.296651   -1.630431   -2.123749
     34          1           0        7.179959   -1.960047    0.176806
     35          1           0        6.264988   -0.617473    2.058096
     36          1           0        4.466074    1.041640    1.640282
 ---------------------------------------------------------------------

 SCF Done:  E(RB3LYP) =  -1028.48227768     a.u. after    1 cycles

 Excitation energies and oscillator strengths:

 Excited State   1:      Singlet-A      2.9343 eV  422.54 nm  f=0.0024  <S**2>=0.000
      74 -> 79        -0.29078
      78 -> 79         0.63460
 This state for optimization and/or second-order correction.
 Total Energy, E(TD-HF/TD-DFT) =  -1028.37444460
 Copying the excited state density for this state as the 1-particle RhoCI density.

 Excited State   2:      Singlet-A      4.1798 eV  296.63 nm  f=0.0000  <S**2>=0.000
      75 -> 79        -0.30837
      77 -> 79         0.63455

 Excited State   3:      Singlet-A      4.1812 eV  296.53 nm  f=0.0245  <S**2>=0.000
      74 -> 79         0.47772
      76 -> 79         0.44962
      78 -> 79         0.25796

 Excited State   4:      Singlet-A      4.2198 eV  293.81 nm  f=0.0011  <S**2>=0.000
      75 -> 79         0.63461
      77 -> 79         0.30965

 Excited State   5:      Singlet-A      4.2215 eV  293.69 nm  f=0.0168  <S**2>=0.000
      74 -> 79        -0.42334
      76 -> 79         0.54260
      78 -> 79        -0.15807

 Excited State   6:      Singlet-A      5.0125 eV  247.35 nm  f=0.0753  <S**2>=0.000
      73 -> 79         0.68668

 Excited State   7:      Singlet-A      5.1986 eV  238.49 nm  f=0.0000  <S**2>=0.000
      71 -> 79        -0.10224
      72 -> 79         0.68528

 Excited State   8:      Singlet-A      5.4043 eV  229.42 nm  f=0.0029  <S**2>=0.000
      74 -> 82        -0.23712
      75 -> 81         0.20876
      75 -> 83         0.25839
      76 -> 80         0.37494
      77 -> 81         0.30758
      77 -> 83        -0.18133
      78 -> 82        -0.23767

 Excited State   9:      Singlet-A      5.4045 eV  229.41 nm  f=0.0002  <S**2>=0.000
      74 -> 83        -0.23892
      75 -> 80         0.21208
      75 -> 82         0.25973
      76 -> 81         0.37111
      77 -> 80         0.31300
      77 -> 82        -0.18002
      78 -> 83        -0.23641

 Excited State  10:      Singlet-A      5.4411 eV  227.87 nm  f=0.0027  <S**2>=0.000
      71 -> 79         0.68508
      72 -> 79         0.11039

 The electronic state is 1-A.
 Alpha  occ. eigenvalues --  -19.21244 -19.21244 -19.15645 -19.15645 -14.42196
 Alpha  occ. eigenvalues --  -14.42146 -10.35204 -10.35204 -10.25916 -10.25916
 Alpha  occ. eigenvalues --  -10.20468 -10.20468 -10.19880 -10.19880 -10.19758
 Alpha  occ. eigenvalues --  -10.19758 -10.19663 -10.19663 -10.19547 -10.19547
 Alpha  occ. eigenvalues --  -10.19483 -10.19483  -1.13710  -1.12460  -1.05579
 Alpha  occ. eigenvalues --   -1.03876  -1.03558  -0.86303  -0.86224  -0.80983
 Alpha  occ. eigenvalues --   -0.78579  -0.76525  -0.75040  -0.75039  -0.71505
 Alpha  occ. eigenvalues --   -0.69561  -0.62204  -0.61385  -0.61308  -0.60187
 Alpha  occ. eigenvalues --   -0.58735  -0.56338  -0.55473  -0.52519  -0.52216
 Alpha  occ. eigenvalues --   -0.50450  -0.49968  -0.49070  -0.48045  -0.47244
 Alpha  occ. eigenvalues --   -0.46787  -0.46726  -0.45125  -0.44226  -0.43187
 Alpha  occ. eigenvalues --   -0.42890  -0.42557  -0.42197  -0.41846  -0.39888
 Alpha  occ. eigenvalues --   -0.39761  -0.37944  -0.37938  -0.36537  -0.36454
 Alpha  occ. eigenvalues --   -0.36025  -0.35872  -0.34562  -0.34561  -0.31777
 Alpha  occ. eigenvalues --   -0.31776  -0.31098  -0.30607  -0.25944  -0.25657
 Alpha  occ. eigenvalues --   -0.25592  -0.25571  -0.24704
 Alpha virt. eigenvalues --   -0.08230  -0.01751  -0.01724  -0.00669  -0.00660
 Alpha virt. eigenvalues --    0.00590   0.01122   0.08958   0.08983   0.11203
 Alpha virt. eigenvalues --    0.11235   0.12141   0.12250   0.13206   0.13248

 Mulliken charges:
               1
     1  C    0.151959
     2  C   -0.157955
     3  O   -0.409132
     4  C    0.739131
     5  O   -0.417175
     6  N   -0.239159
     7  N   -0.239159
     8  C    0.739139
     9  O   -0.417165
    10  O   -0.409124
    11  C   -0.157965
    12  C    0.151975
    13  C   -0.168466
    14  C   -0.128537
    15  C   -0.123707
    16  C   -0.129418
    17  C   -0.175832
    18  C   -0.168454
    19  C   -0.128539
    20  C   -0.123707
    21  C   -0.129419
    22  C   -0.175815
    23  H    0.169308
    24  H    0.184417
    25  H    0.184422
    26  H    0.169306
    27  H    0.133026
    28  H    0.135265
    29  H    0.135873
    30  H    0.138601
    31  H    0.161769
    32  H    0.133030
    33  H    0.135267
    34  H    0.135873
    35  H    0.138601
    36  H    0.161762
 Sum of Mulliken charges =   0.00000

 Dipole moment (field-independent basis, Debye):
    X=             -0.0001    Y=             -0.0029    Z=             -3.3538  Tot=              3.3538
 Quadrupole moment (field-independent basis, Debye-Ang):
   XX=            -94.9133   YY=           -120.4352   ZZ=           -121.9732
   XY=             -4.3468   XZ=              0.0048   YZ=              0.0010

 Summary of Natural Population Analysis:

                                       Natural Population
                Natural  -----------------------------------------------
    Atom  No    Charge         Core      Valence    Rydberg      Total
 -----------------------------------------------------------------------
      C    1   -0.09163      1.99901     4.07810    0.01452     6.09163
      C    2   -0.12392      1.99912     4.10575    0.01906     6.12392
      O    3   -0.52308      1.99973     6.51109    0.01226     8.52308
      C    4    0.92180      1.99950     3.02850    0.05020     5.07820
      O    5   -0.55005      1.99977     6.52956    0.02072     8.55005
      N    6   -0.21615      1.99938     5.19034    0.02643     7.21615
      N    7   -0.21615      1.99938     5.19034    0.02643     7.21615
      C    8    0.92181      1.99950     3.02849    0.05020     5.07819
      O    9   -0.55004      1.99977     6.52955    0.02072     8.55004
      O   10   -0.52308      1.99973     6.51109    0.01226     8.52308
      C   11   -0.12392      1.99912     4.10575    0.01906     6.12392
      C   12   -0.09162      1.99901     4.07810    0.01452     6.09162
      C   13   -0.21282      1.99903     4.20065    0.01314     6.21282
      C   14   -0.23067      1.99910     4.21774    0.01383     6.23067
      C   15   -0.22290      1.99910     4.21032    0.01348     6.22290
      C   16   -0.22830      1.99910     4.21536    0.01384     6.22830
      C   17   -0.21201      1.99903     4.19963    0.01335     6.21201
      C   18   -0.21281      1.99903     4.20064    0.01314     6.21281
      C   19   -0.23067      1.99910     4.21774    0.01383     6.23067
      C   20   -0.22290      1.99910     4.21032    0.01348     6.22290
      C   21   -0.22831      1.99910     4.21536    0.01384     6.22831
      C   22   -0.21200      1.99903     4.19962    0.01335     6.21200
      H   23    0.24060      0.00000     0.75825    0.00115     0.75940
      H   24    0.24223      0.00000     0.75557    0.00220     0.75777
      H   25    0.24224      0.00000     0.75556    0.00220     0.75776
      H   26    0.24060      0.00000     0.75825    0.00115     0.75940
      H   27    0.23599      0.00000     0.76295    0.00106     0.76401
      H   28    0.23920      0.00000     0.75995    0.00085     0.76080
      H   29    0.23877      0.00000     0.76040    0.00082     0.76123
      H   30    0.24079      0.00000     0.75837    0.00083     0.75921
      H   31    0.25212      0.00000     0.74653    0.00135     0.74788
      H   32    0.23599      0.00000     0.76295    0.00106     0.76401
      H   33    0.23920      0.00000     0.75995    0.00085     0.76080
      H   34    0.23877      0.00000     0.76040    0.00082     0.76123
      H   35    0.24079      0.00000     0.75837    0.00083     0.75921
      H   36    0.25211      0.00000     0.74653    0.00135     0.74789
 =======================================================================
   * Total *    0.00000     43.98374   111.57807    0.43819   156.00000

 Normal termination of Gaussian 16 at Sat Aug 22 17:05:03 2020.
