 Gaussian 16, Revision A.03,

 ---------------------------------
 # opt=CalcAll B3LYP/6-31G* scf=qc
 ---------------------------------

 -------------------
 Title Card Required
 -------------------
 Symbolic Z-matrix:
 Charge =  0 Multiplicity = 1

 SCF Done:  E(RB3LYP) =  -723.569630771     a.u. after   10 cycles
 SCF Done:  E(RB3LYP) =  -723.586354863     a.u. after   15 cycles
 SCF Done:  E(RB3LYP) =  -723.600747058     a.u. after   15 cycles
 SCF Done:  E(RB3LYP) =  -723.636871408     a.u. after   17 cycles
 SCF Done:  E(RB3LYP) =  -723.643563422     a.u. after   23 cycles
 SCF Done:  E(RB3LYP) =  -723.645398018     a.u. after   15 cycles
 SCF Done:  E(RB3LYP) =  -723.645619467     a.u. after   13 cycles
 SCF Done:  E(RB3LYP) =  -723.645641687     a.u. after   11 cycles
 SCF Done:  E(RB3LYP) =  -723.645681925     a.u. after   17 cycles
 SCF Done:  E(RB3LYP) =  -723.645729726     a.u. after   11 cycles
 SCF Done:  E(RB3LYP) =  -723.645729435     a.u. after   11 cycles
 SCF Done:  E(RB3LYP) =  -723.645732009     a.u. after   11 cycles
 SCF Done:  E(RB3LYP) =  -723.645733361     a.u. after    6 cycles
 SCF Done:  E(RB3LYP) =  -723.645733458     a.u. after    3 cycles
 Optimization completed on the basis of negligible forces.
    -- Stationary point found.
 Normal termination of Gaussian 16 at Sat Aug 22 14:45:51 2020.

 ----------------------------------------------------------------------
 # freq B3LYP/6-31G* scf=qc volume NMR pop=NPA density=current Geom=All
 Check Guess=Read
 ----------------------------------------------------------------------

 Structure from the checkpoint file:  "azadicarboxylate_2_conf82.chk"
 -------------------
 Title Card Required
 -------------------
 Charge =  0 Multiplicity = 1

 SCF Done:  E(RB3LYP) =  -723.645733458     a.u. after    1 cycles

      1  C    Isotropic =   170.6293   Anisotropy =    27.5426

      2  C    Isotropic =   113.4257   Anisotropy =    72.0327

      3  C    Isotropic =   169.6073   Anisotropy =    27.8536

      4  O    Isotropic =   139.6056   Anisotropy =   141.1364

      5  C    Isotropic =    35.4592   Anisotropy =    80.2009

      6  O    Isotropic =   -27.4201   Anisotropy =   483.5472

      7  N    Isotropic =  -318.0481   Anisotropy =   663.3801

      8  N    Isotropic =  -318.0432   Anisotropy =   663.3763

      9  C    Isotropic =    35.4587   Anisotropy =    80.2106

     10  O    Isotropic =   -27.4222   Anisotropy =   483.5561

     11  O    Isotropic =   139.6054   Anisotropy =   141.1286

     12  C    Isotropic =   113.4264   Anisotropy =    72.0326

     13  C    Isotropic =   170.6294   Anisotropy =    27.5414

     14  C    Isotropic =   169.6086   Anisotropy =    27.8538

     15  H    Isotropic =    31.1615   Anisotropy =     8.3637

     16  H    Isotropic =    29.6055   Anisotropy =     5.5879

     17  H    Isotropic =    30.6468   Anisotropy =     8.1624

     18  H    Isotropic =    27.6552   Anisotropy =     4.3229

     19  H    Isotropic =    29.7441   Anisotropy =     5.3578

     20  H    Isotropic =    31.2053   Anisotropy =     8.5157

     21  H    Isotropic =    30.7059   Anisotropy =     8.1152

     22  H    Isotropic =    27.6552   Anisotropy =     4.3229

     23  H    Isotropic =    29.6056   Anisotropy =     5.5882

     24  H    Isotropic =    30.6467   Anisotropy =     8.1622

     25  H    Isotropic =    31.1616   Anisotropy =     8.3637

     26  H    Isotropic =    29.7443   Anisotropy =     5.3576

     27  H    Isotropic =    31.2054   Anisotropy =     8.5157

     28  H    Isotropic =    30.7060   Anisotropy =     8.1153

  Exact polarizability: 152.673   0.005  94.201   3.099  -0.005  89.516
 Approx polarizability: 173.854   0.014 156.838   9.007  -0.040 126.686

                      1                      2                      3
                      A                      A                      A
 Frequencies --     11.7826                32.2064                48.7205
 Red. masses --      4.0062                 3.7927                 4.7361
 Frc consts  --      0.0003                 0.0023                 0.0066
 IR Inten    --      0.0493                 1.2399                 1.1424

                      4                      5                      6
                      A                      A                      A
 Frequencies --     55.1529                61.2477               110.8672
 Red. masses --      6.9865                 4.7730                 3.6595
 Frc consts  --      0.0125                 0.0105                 0.0265
 IR Inten    --      0.6107                 0.0945                 0.6617

                      7                      8                      9
                      A                      A                      A
 Frequencies --    112.3768               179.6216               195.7827
 Red. masses --      3.4034                 3.9438                 6.9315
 Frc consts  --      0.0253                 0.0750                 0.1565
 IR Inten    --      0.0038                 1.1662                 5.7842

                     10                     11                     12
                      A                      A                      A
 Frequencies --    207.9580               231.7137               231.8139
 Red. masses --      5.7040                 1.0936                 1.0972
 Frc consts  --      0.1453                 0.0346                 0.0347
 IR Inten    --      4.5815                 0.0061                 0.1528

                     13                     14                     15
                      A                      A                      A
 Frequencies --    246.6276               250.4101               251.3570
 Red. masses --      5.9974                 1.0598                 1.1265
 Frc consts  --      0.2149                 0.0392                 0.0419
 IR Inten    --      4.5527                 0.0427                 0.5196

                     16                     17                     18
                      A                      A                      A
 Frequencies --    313.3313               357.9740               407.6269
 Red. masses --      3.2520                 2.4630                 3.4740
 Frc consts  --      0.1881                 0.1860                 0.3401
 IR Inten    --      1.4440                 1.1045                13.6513

                     19                     20                     21
                      A                      A                      A
 Frequencies --    414.9482               430.1099               474.5161
 Red. masses --      3.6011                 3.7989                 3.5292
 Frc consts  --      0.3653                 0.4141                 0.4682
 IR Inten    --      0.6149                11.6279                29.4982

                     22                     23                     24
                      A                      A                      A
 Frequencies --    483.8234               573.8759               619.6447
 Red. masses --      2.9642                 9.0880                 5.7006
 Frc consts  --      0.4088                 1.7634                 1.2896
 IR Inten    --      0.3720                 1.2836                 1.0078

                     25                     26                     27
                      A                      A                      A
 Frequencies --    654.6420               791.5334               809.2728
 Red. masses --      4.3839                 5.7722                 4.6127
 Frc consts  --      1.1069                 2.1307                 1.7799
 IR Inten    --      3.5417                39.1462                 1.1120

                     28                     29                     30
                      A                      A                      A
 Frequencies --    815.1410               856.3832               907.0770
 Red. masses --     10.8852                 6.4101                 3.2338
 Frc consts  --      4.2614                 2.7698                 1.5677
 IR Inten    --     32.1841                 0.9267                41.3903

                     31                     32                     33
                      A                      A                      A
 Frequencies --    923.4177               950.0031               950.0562
 Red. masses --      3.2781                 1.2760                 1.2760
 Frc consts  --      1.6469                 0.6785                 0.6786
 IR Inten    --      0.1621                 0.0378                 2.6755

                     34                     35                     36
                      A                      A                      A
 Frequencies --    957.2029               957.3466               962.0583
 Red. masses --      1.3408                 1.3178                 4.0794
 Frc consts  --      0.7238                 0.7116                 2.2246
 IR Inten    --      1.1753                 0.0348                 4.2625

                     37                     38                     39
                      A                      A                      A
 Frequencies --    989.2462              1166.5197              1169.4672
 Red. masses --      6.7980                 1.9929                 1.9117
 Frc consts  --      3.9196                 1.5978                 1.5404
 IR Inten    --     10.1635               275.5831                32.4119

                     40                     41                     42
                      A                      A                      A
 Frequencies --   1171.6517              1171.8472              1218.7838
 Red. masses --      2.1535                 2.1278                 1.9282
 Frc consts  --      1.7418                 1.7215                 1.6875
 IR Inten    --     23.3359                 2.2926                 8.5401

                     43                     44                     45
                      A                      A                      A
 Frequencies --   1219.0727              1237.2347              1283.1515
 Red. masses --      1.9358                 5.6126                 5.4731
 Frc consts  --      1.6950                 5.0620                 5.3093
 IR Inten    --      7.2021              1122.1774               205.8847

                     46                     47                     48
                      A                      A                      A
 Frequencies --   1391.4245              1391.4490              1419.4865
 Red. masses --      1.3201                 1.3202                 1.2785
 Frc consts  --      1.5058                 1.5060                 1.5178
 IR Inten    --      0.2730                 6.3229                23.1830

                     49                     50                     51
                      A                      A                      A
 Frequencies --   1420.9948              1430.5819              1430.6232
 Red. masses --      1.3212                 1.3284                 1.3281
 Frc consts  --      1.5718                 1.6018                 1.6016
 IR Inten    --     12.5517                 1.3105                36.2973

                     52                     53                     54
                      A                      A                      A
 Frequencies --   1444.7024              1445.0157              1511.1320
 Red. masses --      1.2418                 1.2409                 1.0481
 Frc consts  --      1.5271                 1.5266                 1.4102
 IR Inten    --     30.8415                 5.2617                 0.0116

                     55                     56                     57
                      A                      A                      A
 Frequencies --   1511.1873              1522.1750              1522.3787
 Red. masses --      1.0482                 1.0467                 1.0471
 Frc consts  --      1.4103                 1.4289                 1.4298
 IR Inten    --      0.2447                10.0760                22.7688

                     58                     59                     60
                      A                      A                      A
 Frequencies --   1526.8477              1526.9004              1546.8166
 Red. masses --      1.0485                 1.0484                 1.0538
 Frc consts  --      1.4401                 1.4402                 1.4856
 IR Inten    --      0.1042                 0.0881                12.6062

                     61                     62                     63
                      A                      A                      A
 Frequencies --   1546.8979              1654.7935              1833.2870
 Red. masses --      1.0540                13.9760                12.0952
 Frc consts  --      1.4860                22.5486                23.9510
 IR Inten    --      1.6962                 0.2174                65.2013

                     64                     65                     66
                      A                      A                      A
 Frequencies --   1850.3372              3062.4016              3062.4160
 Red. masses --     12.0608                 1.0374                 1.0374
 Frc consts  --     24.3293                 5.7323                 5.7324
 IR Inten    --    467.0557                 1.4971                30.6541

                     67                     68                     69
                      A                      A                      A
 Frequencies --   3066.4781              3066.5415              3095.3397
 Red. masses --      1.0383                 1.0383                 1.0866
 Frc consts  --      5.7524                 5.7526                 6.1337
 IR Inten    --     21.6928                 0.7468                 2.8819

                     70                     71                     72
                      A                      A                      A
 Frequencies --   3095.4804              3127.1846              3127.2298
 Red. masses --      1.0866                 1.1016                 1.1016
 Frc consts  --      6.1342                 6.3472                 6.3474
 IR Inten    --     36.7724                 0.7439                23.8017

                     73                     74                     75
                      A                      A                      A
 Frequencies --   3129.9835              3130.0748              3162.2896
 Red. masses --      1.1020                 1.1019                 1.1021
 Frc consts  --      6.3606                 6.3608                 6.4935
 IR Inten    --     63.0710                 0.6677                 0.9083

                     76                     77                     78
                      A                      A                      A
 Frequencies --   3162.2977              3166.8863              3166.9749
 Red. masses --      1.1021                 1.1010                 1.1010
 Frc consts  --      6.4935                 6.5059                 6.5062
 IR Inten    --      2.9024                 3.0724                35.8248

 - Thermochemistry -
 -------------------
 Temperature   298.150 Kelvin.  Pressure   1.00000 Atm.
 Atom     1 has atomic number  6 and mass  12.00000

 Molecular mass:   202.09536 amu.
 Principal axes and moments of inertia in atomic units:
                           1         2         3
     Eigenvalues --   987.984197254.381347350.79832
           X            0.99999  -0.00000  -0.00391
           Y            0.00001   1.00000   0.00089
           Z            0.00391  -0.00089   0.99999
 This molecule is an asymmetric top.
 Rotational symmetry number  1.
 Warning -- assumption of classical behavior for rotation
           may cause significant error
 Rotational temperatures (Kelvin)      0.08767     0.01194     0.01178
 Rotational constants (GHZ):           1.82669     0.24878     0.24552
 Zero-point vibrational energy     598211.8 (Joules/Mol)
                                  142.97606 (Kcal/Mol)
 Warning -- explicit consideration of  24 degrees of freedom as
           vibrations may cause significant error
 Vibrational temperatures:     16.95    46.34    70.10    79.35    88.12
          (Kelvin)            159.51   161.69   258.44   281.69   299.21
                              333.38   333.53   354.84   360.28   361.65
                              450.81   515.04   586.48   597.02   618.83
                              682.72   696.11   825.68   891.53   941.88
                             1138.84  1164.36  1172.81  1232.14  1305.08
                             1328.59  1366.84  1366.92  1377.20  1377.41
                             1384.19  1423.30  1678.36  1682.60  1685.75
                             1686.03  1753.56  1753.97  1780.10  1846.17
                             2001.95  2001.98  2042.32  2044.49  2058.29
                             2058.35  2078.60  2079.06  2174.18  2174.26
                             2190.07  2190.36  2196.79  2196.87  2225.52
                             2225.64  2380.88  2637.69  2662.22  4406.11
                             4406.13  4411.98  4412.07  4453.50  4453.71
                             4499.32  4499.39  4503.35  4503.48  4549.83
                             4549.84  4556.44  4556.57

 Zero-point correction=                           0.227847 (Hartree/Particle)
 Thermal correction to Energy=                    0.244017
 Thermal correction to Enthalpy=                  0.244961
 Thermal correction to Gibbs Free Energy=         0.181509
 Sum of electronic and zero-point Energies=           -723.417887
 Sum of electronic and thermal Energies=              -723.401717
 Sum of electronic and thermal Enthalpies=            -723.400773
 Sum of electronic and thermal Free Energies=         -723.464224

                     E (Thermal)             CV                S
                      KCal/Mol        Cal/Mol-Kelvin    Cal/Mol-Kelvin
 Total                  153.123             56.276            133.545
 Electronic               0.000              0.000              0.000
 Translational            0.889              2.981             41.815
 Rotational               0.889              2.981             32.333
 Vibrational            151.345             50.314             59.397
 Vibration     1          0.593              1.987              7.685
 Vibration     2          0.594              1.983              5.689
 Vibration     3          0.595              1.978              4.869
 Vibration     4          0.596              1.976              4.624
 Vibration     5          0.597              1.973              4.417
 Vibration     6          0.607              1.940              3.254
 Vibration     7          0.607              1.939              3.227
 Vibration     8          0.629              1.867              2.332
 Vibration     9          0.636              1.846              2.172
 Vibration    10          0.641              1.829              2.062
 Vibration    11          0.653              1.792              1.866
 Vibration    12          0.653              1.792              1.865
 Vibration    13          0.661              1.768              1.755
 Vibration    14          0.663              1.762              1.728
 Vibration    15          0.663              1.760              1.721
 Vibration    16          0.701              1.648              1.345
 Vibration    17          0.733              1.559              1.131
 Vibration    18          0.772              1.454              0.935
 Vibration    19          0.778              1.438              0.909
 Vibration    20          0.791              1.405              0.858
 Vibration    21          0.831              1.307              0.725
 Vibration    22          0.840              1.286              0.700
 Vibration    23          0.930              1.088              0.497
 Vibration    24          0.980              0.990              0.417

 Optimization completed on the basis of negligible forces.
    -- Stationary point found.
 Normal termination of Gaussian 16 at Sat Aug 22 14:50:24 2020.
 Gaussian 16:  ES64L-G16RevA.03 25-Dec-2016

 ----------------------------------------------------------------------
 # TD(NStates=10, Root=1) B3LYP/6-31G* scf=qc volume pop=NPA density=cu
 rrent Geom=AllCheck Guess=Read
 ----------------------------------------------------------------------

 Structure from the checkpoint file:  "azadicarboxylate_2_conf83.chk"
 -------------------
 Title Card Required
 -------------------
 Charge =  0 Multiplicity = 1

                         Standard orientation:
 ---------------------------------------------------------------------
 Center     Atomic      Atomic             Coordinates (Angstroms)
 Number     Number       Type             X           Y           Z
 ---------------------------------------------------------------------
      1          6           0        4.418244    0.629683    1.128958
      2          6           0        3.666173    0.903731   -0.169220
      3          6           0        4.201930    0.154015   -1.384349
      4          8           0        2.218654    0.677238   -0.003707
      5          6           0        1.767236   -0.539938    0.276573
      6          8           0        2.378269   -1.568936    0.425163
      7          7           0        0.336729   -0.481028    0.524019
      8          7           0       -0.336778   -0.482595   -0.522996
      9          6           0       -1.767289   -0.540729   -0.275320
     10          8           0       -2.378372   -1.570116   -0.420990
     11          8           0       -2.218642    0.677238    0.001616
     12          6           0       -3.666114    0.904210    0.166847
     13          6           0       -4.418516    0.626545   -1.130368
     14          6           0       -4.201557    0.157899    1.384208
     15          1           0        5.452152    0.977382    1.024418
     16          1           0        4.431037   -0.436547    1.364711
     17          1           0        3.960267    1.173598    1.961538
     18          1           0        3.680085    1.977963   -0.373643
     19          1           0        4.213569   -0.924452   -1.212867
     20          1           0        5.225272    0.487839   -1.589866
     21          1           0        3.590827    0.367378   -2.267224
     22          1           0       -3.679967    1.979009    0.368272
     23          1           0       -4.431354   -0.440336   -1.363146
     24          1           0       -3.960757    1.168144   -1.964575
     25          1           0       -5.452401    0.974524   -1.026530
     26          1           0       -4.213193   -0.921046    1.215764
     27          1           0       -5.224862    0.492259    1.589030
     28          1           0       -3.590247    0.373767    2.266329
 ---------------------------------------------------------------------

 SCF Done:  E(RB3LYP) =  -723.645733458     a.u. after    1 cycles

 Excitation energies and oscillator strengths:

 Excited State   1:      Singlet-A      2.9401 eV  421.70 nm  f=0.0039  <S**2>=0.000
      53 -> 55         0.11095
      54 -> 55         0.69820
 This state for optimization and/or second-order correction.
 Total Energy, E(TD-HF/TD-DFT) =  -723.537685400
 Copying the excited state density for this state as the 1-particle RhoCI density.

 Excited State   2:      Singlet-A      5.0026 eV  247.84 nm  f=0.0599  <S**2>=0.000
      53 -> 55         0.68695
      54 -> 55        -0.10625

 Excited State   3:      Singlet-A      5.0996 eV  243.12 nm  f=0.0004  <S**2>=0.000
      52 -> 55         0.69286

 Excited State   4:      Singlet-A      5.4467 eV  227.63 nm  f=0.0037  <S**2>=0.000
      51 -> 55         0.70297

 Excited State   5:      Singlet-A      5.4534 eV  227.35 nm  f=0.0017  <S**2>=0.000
      50 -> 55         0.70119

 Excited State   6:      Singlet-A      5.5829 eV  222.08 nm  f=0.0000  <S**2>=0.000
      52 -> 57         0.16883
      53 -> 56        -0.10287
      54 -> 56         0.66768

 Excited State   7:      Singlet-A      5.6414 eV  219.78 nm  f=0.0178  <S**2>=0.000
      52 -> 56         0.16591
      54 -> 57         0.67625

 Excited State   8:      Singlet-A      6.5783 eV  188.47 nm  f=0.0106  <S**2>=0.000
      45 -> 55         0.12949
      47 -> 55        -0.10421
      49 -> 55         0.67423

 Excited State   9:      Singlet-A      6.6286 eV  187.04 nm  f=0.0000  <S**2>=0.000
      44 -> 55        -0.17257
      48 -> 55         0.66243

 Excited State  10:      Singlet-A      6.7551 eV  183.54 nm  f=0.0216  <S**2>=0.000
      52 -> 56         0.48684
      53 -> 57        -0.46044
      54 -> 57        -0.18198

 The electronic state is 1-A.
 Alpha  occ. eigenvalues --  -19.20738 -19.20738 -19.15225 -19.15224 -14.41802
 Alpha  occ. eigenvalues --  -14.41751 -10.34936 -10.34935 -10.26501 -10.26501
 Alpha  occ. eigenvalues --  -10.18831 -10.18831 -10.18736 -10.18736  -1.13252
 Alpha  occ. eigenvalues --   -1.11970  -1.05163  -1.03606  -1.03222  -0.82141
 Alpha  occ. eigenvalues --   -0.80449  -0.76237  -0.70389  -0.70386  -0.66949
 Alpha  occ. eigenvalues --   -0.64193  -0.58463  -0.52646  -0.51959  -0.50818
 Alpha  occ. eigenvalues --   -0.50185  -0.49316  -0.47956  -0.46807  -0.45947
 Alpha  occ. eigenvalues --   -0.44618  -0.43215  -0.42785  -0.41767  -0.40947
 Alpha  occ. eigenvalues --   -0.40468  -0.39359  -0.38882  -0.37728  -0.37350
 Alpha  occ. eigenvalues --   -0.36448  -0.36412  -0.35430  -0.35222  -0.31397
 Alpha  occ. eigenvalues --   -0.31382  -0.30169  -0.30023  -0.24440
 Alpha virt. eigenvalues --   -0.07700   0.00688   0.01132   0.08647   0.08653
 Alpha virt. eigenvalues --    0.10569   0.10672   0.13697   0.13858   0.14801
 Alpha virt. eigenvalues --    0.14816   0.15656   0.15708   0.17154   0.17383

 Mulliken charges:
               1
     1  C   -0.471660
     2  C    0.129863
     3  C   -0.470190
     4  O   -0.432601
     5  C    0.737024
     6  O   -0.415302
     7  N   -0.243382
     8  N   -0.243383
     9  C    0.737020
    10  O   -0.415311
    11  O   -0.432604
    12  C    0.129865
    13  C   -0.471656
    14  C   -0.470193
    15  H    0.154485
    16  H    0.187783
    17  H    0.162746
    18  H    0.156874
    19  H    0.188013
    20  H    0.152309
    21  H    0.164047
    22  H    0.156873
    23  H    0.187785
    24  H    0.162744
    25  H    0.154482
    26  H    0.188013
    27  H    0.152309
    28  H    0.164046
 Sum of Mulliken charges =  -0.00000

 Dipole moment (field-independent basis, Debye):
    X=              0.0003    Y=              3.8516    Z=             -0.0048  Tot=              3.8516
 Quadrupole moment (field-independent basis, Debye-Ang):
   XX=            -57.5198   YY=            -88.2800   ZZ=            -80.4362
   XY=             -0.0043   XZ=             -2.8607   YZ=              0.0109

 Summary of Natural Population Analysis:

                                       Natural Population
                Natural  -----------------------------------------------
    Atom  No    Charge         Core      Valence    Rydberg      Total
 -----------------------------------------------------------------------
      C    1   -0.71036      1.99939     4.70287    0.00810     6.71036
      C    2    0.08487      1.99912     3.89774    0.01827     5.91513
      C    3   -0.70929      1.99939     4.70192    0.00798     6.70929
      O    4   -0.53321      1.99972     6.52149    0.01200     8.53321
      C    5    0.92030      1.99951     3.02790    0.05229     5.07970
      O    6   -0.54531      1.99977     6.52506    0.02049     8.54531
      N    7   -0.22609      1.99939     5.20001    0.02669     7.22609
      N    8   -0.22609      1.99939     5.20001    0.02669     7.22609
      C    9    0.92030      1.99951     3.02790    0.05229     5.07970
      O   10   -0.54533      1.99977     6.52507    0.02049     8.54533
      O   11   -0.53322      1.99972     6.52150    0.01200     8.53322
      C   12    0.08487      1.99912     3.89774    0.01827     5.91513
      C   13   -0.71036      1.99939     4.70287    0.00810     6.71036
      C   14   -0.70929      1.99939     4.70192    0.00798     6.70929
      H   15    0.24231      0.00000     0.75696    0.00073     0.75769
      H   16    0.25207      0.00000     0.74647    0.00146     0.74793
      H   17    0.24283      0.00000     0.75611    0.00106     0.75717
      H   18    0.24524      0.00000     0.75308    0.00168     0.75476
      H   19    0.25250      0.00000     0.74615    0.00135     0.74750
      H   20    0.24048      0.00000     0.75878    0.00075     0.75952
      H   21    0.24367      0.00000     0.75527    0.00106     0.75633
      H   22    0.24524      0.00000     0.75308    0.00168     0.75476
      H   23    0.25207      0.00000     0.74646    0.00146     0.74793
      H   24    0.24283      0.00000     0.75611    0.00106     0.75717
      H   25    0.24231      0.00000     0.75696    0.00073     0.75769
      H   26    0.25250      0.00000     0.74615    0.00135     0.74750
      H   27    0.24048      0.00000     0.75877    0.00075     0.75952
      H   28    0.24366      0.00000     0.75527    0.00106     0.75634
 =======================================================================
   * Total *    0.00000     27.99259    79.69963    0.30778   108.00000

 Normal termination of Gaussian 16 at Sat Aug 22 14:56:01 2020.
