 Gaussian 16, Revision A.03,

 ---------------------------------
 # opt=CalcAll B3LYP/6-31G* scf=qc
 ---------------------------------

 -------------------
 Title Card Required
 -------------------
 Symbolic Z-matrix:
 Charge =  0 Multiplicity = 1

 SCF Done:  E(RB3LYP) =  -802.254115662     a.u. after    9 cycles
 SCF Done:  E(RB3LYP) =  -802.276028811     a.u. after   21 cycles
 SCF Done:  E(RB3LYP) =  -802.280857972     a.u. after   25 cycles
 SCF Done:  E(RB3LYP) =  -802.281135091     a.u. after   13 cycles
 SCF Done:  E(RB3LYP) =  -802.281144068     a.u. after    7 cycles
 Optimization completed.
    -- Stationary point found.
 Normal termination of Gaussian 16 at Sat Aug 22 13:18:15 2020.

 ----------------------------------------------------------------------
 # freq B3LYP/6-31G* scf=qc volume NMR pop=NPA density=current Geom=All
 Check Guess=Read
 ----------------------------------------------------------------------

 Structure from the checkpoint file:  "azadicarboxylate_1_conf162.chk"
 -------------------
 Title Card Required
 -------------------
 Charge =  0 Multiplicity = 1

 SCF Done:  E(RB3LYP) =  -802.281144068     a.u. after    1 cycles

      1  C    Isotropic =   165.3157   Anisotropy =    35.4379

      2  C    Isotropic =   106.1569   Anisotropy =    74.9702

      3  C    Isotropic =   164.2269   Anisotropy =    35.8389

      4  C    Isotropic =   159.6200   Anisotropy =    41.1995

      5  O    Isotropic =   125.3172   Anisotropy =   128.2765

      6  C    Isotropic =    35.1554   Anisotropy =    79.3962

      7  O    Isotropic =   -24.5378   Anisotropy =   484.9123

      8  N    Isotropic =  -316.5721   Anisotropy =   661.9658

      9  N    Isotropic =  -316.5773   Anisotropy =   661.9684

     10  C    Isotropic =    35.1539   Anisotropy =    79.3858

     11  O    Isotropic =   -24.5408   Anisotropy =   484.8989

     12  O    Isotropic =   125.3170   Anisotropy =   128.2878

     13  C    Isotropic =   106.1567   Anisotropy =    74.9702

     14  C    Isotropic =   164.2271   Anisotropy =    35.8385

     15  C    Isotropic =   159.6199   Anisotropy =    41.1996

     16  C    Isotropic =   165.3149   Anisotropy =    35.4384

     17  H    Isotropic =    31.0638   Anisotropy =     7.7611

     18  H    Isotropic =    30.7941   Anisotropy =     7.3841

     19  H    Isotropic =    29.3932   Anisotropy =     6.6124

     20  H    Isotropic =    31.1121   Anisotropy =     7.8972

     21  H    Isotropic =    29.5434   Anisotropy =     6.3104

     22  H    Isotropic =    30.8318   Anisotropy =     7.3153

     23  H    Isotropic =    31.1370   Anisotropy =     7.5950

     24  H    Isotropic =    30.6799   Anisotropy =     7.4349

     25  H    Isotropic =    30.6738   Anisotropy =     7.2483

     26  H    Isotropic =    30.8318   Anisotropy =     7.3154

     27  H    Isotropic =    29.5433   Anisotropy =     6.3102

     28  H    Isotropic =    31.1121   Anisotropy =     7.8971

     29  H    Isotropic =    30.6799   Anisotropy =     7.4350

     30  H    Isotropic =    31.1370   Anisotropy =     7.5950

     31  H    Isotropic =    30.6738   Anisotropy =     7.2483

     32  H    Isotropic =    29.3932   Anisotropy =     6.6124

     33  H    Isotropic =    30.7940   Anisotropy =     7.3840

     34  H    Isotropic =    31.0638   Anisotropy =     7.7611

  Exact polarizability: 176.967  -3.661 120.146   1.837  -0.276 105.361
 Approx polarizability: 199.607 -11.827 195.612   3.265   0.490 152.408

                      1                      2                      3
                      A                      A                      A
 Frequencies --     11.4712                33.6605                45.0651
 Red. masses --      4.1838                 3.2129                 4.7562
 Frc consts  --      0.0003                 0.0021                 0.0057
 IR Inten    --      2.2168                 0.8418                 2.4015

                      4                      5                      6
                      A                      A                      A
 Frequencies --     54.2665                57.0229               108.3098
 Red. masses --      6.0639                 4.6954                 4.5020
 Frc consts  --      0.0105                 0.0090                 0.0311
 IR Inten    --      0.0000                 0.0000                 1.0532

                      7                      8                      9
                      A                      A                      A
 Frequencies --    111.1345               178.7339               197.9451
 Red. masses --      4.0125                 3.9125                 5.6949
 Frc consts  --      0.0292                 0.0736                 0.1315
 IR Inten    --      0.0000                 0.0000                 4.4421

                     10                     11                     12
                      A                      A                      A
 Frequencies --    198.6201               206.9036               207.1817
 Red. masses --      7.5064                 1.0527                 1.0822
 Frc consts  --      0.1745                 0.0266                 0.0274
 IR Inten    --      0.0007                 0.0000                 0.3520

                     13                     14                     15
                      A                      A                      A
 Frequencies --    211.4547               255.9318               256.6070
 Red. masses --      4.7917                 1.0374                 1.0320
 Frc consts  --      0.1262                 0.0400                 0.0400
 IR Inten    --     14.7693                 0.0000                 0.0895

                     16                     17                     18
                      A                      A                      A
 Frequencies --    268.7543               269.3049               316.5507
 Red. masses --      1.0672                 1.0794                 3.0695
 Frc consts  --      0.0454                 0.0461                 0.1812
 IR Inten    --      0.0000                 0.0925                16.6045

                     19                     20                     21
                      A                      A                      A
 Frequencies --    316.6668               342.9485               352.0100
 Red. masses --      2.9597                 2.7028                 2.5465
 Frc consts  --      0.1749                 0.1873                 0.1859
 IR Inten    --      0.0009                 0.0000                 3.0786

                     22                     23                     24
                      A                      A                      A
 Frequencies --    368.4898               374.7671               427.6622
 Red. masses --      3.0187                 3.9264                 2.7655
 Frc consts  --      0.2415                 0.3249                 0.2980
 IR Inten    --      0.0802                 0.0000                 8.0804

                     25                     26                     27
                      A                      A                      A
 Frequencies --    435.8020               462.9267               465.0907
 Red. masses --      2.8983                 3.6741                 2.7953
 Frc consts  --      0.3243                 0.4639                 0.3562
 IR Inten    --      0.0000                 0.0000                 0.0002

                     28                     29                     30
                      A                      A                      A
 Frequencies --    465.6206               550.1577               604.9961
 Red. masses --      3.1305                 3.7921                 8.2959
 Frc consts  --      0.3999                 0.6762                 1.7890
 IR Inten    --      7.4219                15.2667                 0.0000

                     31                     32                     33
                      A                      A                      A
 Frequencies --    661.9439               745.3225               772.8052
 Red. masses --     10.6111                 5.3596                 4.6313
 Frc consts  --      2.7394                 1.7542                 1.6296
 IR Inten    --     15.8199                 0.0000                12.8678

                     34                     35                     36
                      A                      A                      A
 Frequencies --    815.8305               845.2004               855.2161
 Red. masses --     12.0887                 3.3624                 4.2203
 Frc consts  --      4.7406                 1.4152                 1.8186
 IR Inten    --     33.1897                 0.0000               108.6417

                     37                     38                     39
                      A                      A                      A
 Frequencies --    865.8745               936.8765               936.9587
 Red. masses --      9.1803                 1.6316                 1.6299
 Frc consts  --      4.0553                 0.8438                 0.8430
 IR Inten    --      0.0000                 0.0000                 0.2447

                     40                     41                     42
                      A                      A                      A
 Frequencies --    937.8476               938.8734               971.4610
 Red. masses --      1.6259                 1.6314                 7.9020
 Frc consts  --      0.8425                 0.8473                 4.3938
 IR Inten    --      0.2066                 0.0000                16.8622

                     43                     44                     45
                      A                      A                      A
 Frequencies --    984.5572               984.5804               993.8756
 Red. masses --      1.2009                 1.1992                 9.7824
 Frc consts  --      0.6859                 0.6849                 5.6932
 IR Inten    --      0.0000                 0.2928                 0.0000

                     46                     47                     48
                      A                      A                      A
 Frequencies --   1066.2235              1066.2716              1073.2453
 Red. masses --      1.4087                 1.4091                 1.4581
 Frc consts  --      0.9436                 0.9439                 0.9896
 IR Inten    --      0.8631                 0.0001                 0.0000

                     49                     50                     51
                      A                      A                      A
 Frequencies --   1073.6949              1194.7997              1212.6291
 Red. masses --      1.4648                 2.4748                 2.2395
 Frc consts  --      0.9949                 2.0816                 1.9403
 IR Inten    --      4.8072              1055.7183                 0.0000

                     52                     53                     54
                      A                      A                      A
 Frequencies --   1285.5774              1285.9330              1286.2858
 Red. masses --      4.4773                 2.8125                 2.7568
 Frc consts  --      4.3598                 2.7402                 2.6874
 IR Inten    --    590.3164                 0.0020                45.2518

                     55                     56                     57
                      A                      A                      A
 Frequencies --   1290.3230              1305.0815              1305.3932
 Red. masses --      4.5445                 3.3091                 3.7447
 Frc consts  --      4.4580                 3.3208                 3.7597
 IR Inten    --      0.0000               195.1691                 0.0012

                     58                     59                     60
                      A                      A                      A
 Frequencies --   1427.2996              1427.3033              1430.1121
 Red. masses --      1.2713                 1.2714                 1.2782
 Frc consts  --      1.5259                 1.5260                 1.5402
 IR Inten    --     32.9497                 0.9310                39.5128

                     61                     62                     63
                      A                      A                      A
 Frequencies --   1430.3833              1455.3119              1455.5463
 Red. masses --      1.2804                 1.2312                 1.2309
 Frc consts  --      1.5435                 1.5363                 1.5365
 IR Inten    --      0.0000                24.3822                 0.0000

                     64                     65                     66
                      A                      A                      A
 Frequencies --   1500.1740              1500.1822              1518.7191
 Red. masses --      1.0461                 1.0461                 1.0462
 Frc consts  --      1.3872                 1.3871                 1.4217
 IR Inten    --      0.0000                 0.8135                 0.0003

                     67                     68                     69
                      A                      A                      A
 Frequencies --   1518.7425              1520.2147              1520.3320
 Red. masses --      1.0461                 1.0512                 1.0513
 Frc consts  --      1.4217                 1.4314                 1.4317
 IR Inten    --      0.9385                 0.0000                 1.0592

                     70                     71                     72
                      A                      A                      A
 Frequencies --   1526.0419              1526.2941              1532.2700
 Red. masses --      1.0629                 1.0627                 1.0530
 Frc consts  --      1.4584                 1.4586                 1.4567
 IR Inten    --     24.3119                 0.0000                 2.9660

                     73                     74                     75
                      A                      A                      A
 Frequencies --   1532.3125              1554.2771              1554.3002
 Red. masses --      1.0531                 1.0543                 1.0542
 Frc consts  --      1.4568                 1.5006                 1.5005
 IR Inten    --      0.0000                22.2431                 0.0180

                     76                     77                     78
                      A                      A                      A
 Frequencies --   1649.0293              1828.2400              1841.9758
 Red. masses --     13.9756                12.4542                12.3432
 Frc consts  --     22.3912                24.5263                24.6744
 IR Inten    --      0.0000                 0.0001               540.6792

                     79                     80                     81
                      A                      A                      A
 Frequencies --   3060.3844              3060.3870              3061.4928
 Red. masses --      1.0355                 1.0355                 1.0375
 Frc consts  --      5.7144                 5.7144                 5.7291
 IR Inten    --      0.3532                13.4802                 0.0648

                     82                     83                     84
                      A                      A                      A
 Frequencies --   3061.5095              3068.5052              3068.6076
 Red. masses --      1.0375                 1.0376                 1.0376
 Frc consts  --      5.7291                 5.7563                 5.7565
 IR Inten    --     35.3665                34.6335                 0.0009

                     85                     86                     87
                      A                      A                      A
 Frequencies --   3125.2301              3125.2615              3126.8927
 Red. masses --      1.1025                 1.1025                 1.1025
 Frc consts  --      6.3445                 6.3446                 6.3512
 IR Inten    --      0.0009                14.1854                22.6053

                     88                     89                     90
                      A                      A                      A
 Frequencies --   3126.9272              3138.2017              3138.2732
 Red. masses --      1.1025                 1.1026                 1.1025
 Frc consts  --      6.3513                 6.3977                 6.3978
 IR Inten    --      0.0148                82.6505                 0.0064

                     91                     92                     93
                      A                      A                      A
 Frequencies --   3139.9494              3139.9695              3164.8484
 Red. masses --      1.1034                 1.1034                 1.1011
 Frc consts  --      6.4097                 6.4098                 6.4980
 IR Inten    --      0.0000                48.3367                 1.3950

                     94                     95                     96
                      A                      A                      A
 Frequencies --   3164.8534              3167.9038              3167.9199
 Red. masses --      1.1011                 1.1004                 1.1004
 Frc consts  --      6.4980                 6.5064                 6.5064
 IR Inten    --      1.0682                25.7004                 0.7710

 - Thermochemistry -
 -------------------
 Temperature   298.150 Kelvin.  Pressure   1.00000 Atm.
 Atom     1 has atomic number  6 and mass  12.00000

 Molecular mass:   230.12666 amu.
 Principal axes and moments of inertia in atomic units:
                           1         2         3
     Eigenvalues --  1299.433619363.507469803.30976
           X            0.99997   0.00728  -0.00122
           Y           -0.00728   0.99997  -0.00363
           Z            0.00120   0.00364   0.99999
 This molecule is an asymmetric top.
 Rotational symmetry number  1.
 Warning -- assumption of classical behavior for rotation
           may cause significant error
 Rotational temperatures (Kelvin)      0.06666     0.00925     0.00884
 Rotational constants (GHZ):           1.38887     0.19274     0.18410
 Zero-point vibrational energy     742910.4 (Joules/Mol)
                                  177.55984 (Kcal/Mol)
 Warning -- explicit consideration of  30 degrees of freedom as
           vibrations may cause significant error
 Vibrational temperatures:     16.50    48.43    64.84    78.08    82.04
          (Kelvin)            155.83   159.90   257.16   284.80   285.77
                              297.69   298.09   304.24   368.23   369.20
                              386.68   387.47   455.45   455.61   493.43
                              506.46   530.17   539.21   615.31   627.02
                              666.05   669.16   669.92   791.55   870.45
                              952.39  1072.35  1111.89  1173.80  1216.05
                             1230.47  1245.80  1347.96  1348.07  1349.35
                             1350.83  1397.72  1416.56  1416.59  1429.97
                             1534.06  1534.13  1544.16  1544.81  1719.05
                             1744.70  1849.66  1850.17  1850.68  1856.49
                             1877.72  1878.17  2053.57  2053.57  2057.61
                             2058.00  2093.87  2094.21  2158.42  2158.43
                             2185.10  2185.13  2187.25  2187.42  2195.63
                             2196.00  2204.59  2204.66  2236.26  2236.29
                             2372.59  2630.43  2650.19  4403.21  4403.21
                             4404.81  4404.83  4414.89  4415.04  4496.51
                             4496.55  4498.90  4498.95  4515.17  4515.28
                             4517.69  4517.72  4553.51  4553.52  4557.91
                             4557.93

 Zero-point correction=                           0.282960 (Hartree/Particle)
 Thermal correction to Energy=                    0.301841
 Thermal correction to Enthalpy=                  0.302786
 Thermal correction to Gibbs Free Energy=         0.234297
 Sum of electronic and zero-point Energies=           -801.998184
 Sum of electronic and thermal Energies=              -801.979303
 Sum of electronic and thermal Enthalpies=            -801.978358
 Sum of electronic and thermal Free Energies=         -802.046847

                     E (Thermal)             CV                S
                      KCal/Mol        Cal/Mol-Kelvin    Cal/Mol-Kelvin
 Total                  189.408             68.260            144.147
 Electronic               0.000              0.000              0.000
 Translational            0.889              2.981             42.202
 Rotational               0.889              2.981             33.144
 Vibrational            187.631             62.299             68.800
 Vibration     1          0.593              1.987              7.738
 Vibration     2          0.594              1.983              5.601
 Vibration     3          0.595              1.979              5.023
 Vibration     4          0.596              1.976              4.656
 Vibration     5          0.596              1.975              4.558
 Vibration     6          0.606              1.943              3.299
 Vibration     7          0.607              1.940              3.249
 Vibration     8          0.629              1.868              2.342
 Vibration     9          0.637              1.843              2.152
 Vibration    10          0.637              1.842              2.146
 Vibration    11          0.641              1.830              2.071
 Vibration    12          0.641              1.830              2.068
 Vibration    13          0.643              1.823              2.031
 Vibration    14          0.666              1.753              1.689
 Vibration    15          0.666              1.752              1.685
 Vibration    16          0.673              1.731              1.604
 Vibration    17          0.674              1.730              1.601
 Vibration    18          0.703              1.642              1.328
 Vibration    19          0.704              1.642              1.327
 Vibration    20          0.722              1.590              1.198
 Vibration    21          0.729              1.571              1.157
 Vibration    22          0.741              1.537              1.086
 Vibration    23          0.746              1.524              1.060
 Vibration    24          0.789              1.410              0.866
 Vibration    25          0.796              1.392              0.840
 Vibration    26          0.821              1.332              0.758
 Vibration    27          0.823              1.327              0.751
 Vibration    28          0.823              1.326              0.750
 Vibration    29          0.905              1.139              0.544
 Vibration    30          0.964              1.021              0.441

                           ! Non-Optimized Parameters !
 Normal termination of Gaussian 16 at Sat Aug 22 13:23:36 2020.
 Gaussian 16:  ES64L-G16RevA.03 25-Dec-2016

 ----------------------------------------------------------------------
 # TD(NStates=10, Root=1) B3LYP/6-31G* scf=qc volume pop=NPA density=cu
 rrent Geom=AllCheck Guess=Read
 ----------------------------------------------------------------------

 Structure from the checkpoint file:  "azadicarboxylate_1_conf163.chk"
 -------------------
 Title Card Required
 -------------------
 Charge =  0 Multiplicity = 1

                         Standard orientation:
 ---------------------------------------------------------------------
 Center     Atomic      Atomic             Coordinates (Angstroms)
 Number     Number       Type             X           Y           Z
 ---------------------------------------------------------------------
      1          6           0       -4.492620    0.728621   -1.071715
      2          6           0       -3.930135   -0.196667    0.009667
      3          6           0       -4.203282    0.314838    1.425917
      4          6           0       -4.431401   -1.629625   -0.169305
      5          8           0       -2.461215   -0.348215   -0.183369
      6          6           0       -1.645828    0.694520   -0.115328
      7          8           0       -1.890822    1.857060    0.098377
      8          7           0       -0.296677    0.284533   -0.467854
      9          7           0        0.296635   -0.284355    0.467704
     10          6           0        1.645771   -0.694384    0.115160
     11          8           0        1.890650   -1.856894   -0.098841
     12          8           0        2.461277    0.348237    0.183541
     13          6           0        3.930180    0.196590   -0.009536
     14          6           0        4.203279   -0.314578   -1.425916
     15          6           0        4.431594    1.629449    0.169813
     16          6           0        4.492569   -0.729039    1.071604
     17          1           0       -5.585497    0.749021   -0.997464
     18          1           0       -4.226968    0.359272   -2.067967
     19          1           0       -4.117553    1.747500   -0.959053
     20          1           0       -5.283273    0.311592    1.610388
     21          1           0       -3.829834    1.331667    1.560169
     22          1           0       -3.729360   -0.338653    2.165867
     23          1           0       -5.518997   -1.661103   -0.046326
     24          1           0       -3.977810   -2.293798    0.572859
     25          1           0       -4.183347   -2.005476   -1.166841
     26          1           0        3.729442    0.339160   -2.165704
     27          1           0        3.829707   -1.331327   -1.560425
     28          1           0        5.283272   -0.311413   -1.610375
     29          1           0        3.978086    2.293861   -0.572188
     30          1           0        5.519195    1.660844    0.046862
     31          1           0        4.183560    2.005067    1.167442
     32          1           0        4.117403   -1.747851    0.958671
     33          1           0        4.226947   -0.359928    2.067953
     34          1           0        5.585445   -0.749525    0.997354
 ---------------------------------------------------------------------

 SCF Done:  E(RB3LYP) =  -802.281144068     a.u. after    1 cycles

 Excitation energies and oscillator strengths:

 Excited State   1:      Singlet-A      2.9533 eV  419.82 nm  f=0.0000  <S**2>=0.000
      62 -> 63         0.70031
 This state for optimization and/or second-order correction.
 Total Energy, E(TD-HF/TD-DFT) =  -802.172613166
 Copying the excited state density for this state as the 1-particle RhoCI density.

 Excited State   2:      Singlet-A      4.9671 eV  249.61 nm  f=0.0911  <S**2>=0.000
      61 -> 63         0.69446

 Excited State   3:      Singlet-A      5.1161 eV  242.34 nm  f=0.0000  <S**2>=0.000
      60 -> 63         0.68890

 Excited State   4:      Singlet-A      5.4179 eV  228.84 nm  f=0.0134  <S**2>=0.000
      59 -> 63         0.70084

 Excited State   5:      Singlet-A      5.4417 eV  227.84 nm  f=0.0000  <S**2>=0.000
      58 -> 63         0.69874

 Excited State   6:      Singlet-A      5.6296 eV  220.24 nm  f=0.0000  <S**2>=0.000
      61 -> 65        -0.17806
      62 -> 64         0.67163

 Excited State   7:      Singlet-A      5.6517 eV  219.38 nm  f=0.0151  <S**2>=0.000
      61 -> 64        -0.17255
      62 -> 65         0.67499

 Excited State   8:      Singlet-A      6.5010 eV  190.72 nm  f=0.0000  <S**2>=0.000
      52 -> 63         0.16567
      57 -> 63         0.67447

 Excited State   9:      Singlet-A      6.5408 eV  189.56 nm  f=0.0007  <S**2>=0.000
      53 -> 63         0.25492
      55 -> 63        -0.10001
      56 -> 63         0.63756

 Excited State  10:      Singlet-A      6.6819 eV  185.55 nm  f=0.0164  <S**2>=0.000
      55 -> 63         0.12660
      60 -> 65         0.33937
      61 -> 64         0.55320
      62 -> 65         0.19218

 The electronic state is 1-A.
 Alpha  occ. eigenvalues --  -19.20272 -19.20272 -19.15007 -19.15007 -14.41518
 Alpha  occ. eigenvalues --  -14.41468 -10.34707 -10.34706 -10.26929 -10.26929
 Alpha  occ. eigenvalues --  -10.18661 -10.18661 -10.18423 -10.18423 -10.18346
 Alpha  occ. eigenvalues --  -10.18346  -1.12906  -1.11575  -1.04774  -1.03377
 Alpha  occ. eigenvalues --   -1.02950  -0.83234  -0.82104  -0.76518  -0.70292
 Alpha  occ. eigenvalues --   -0.70276  -0.70184  -0.70183  -0.65330  -0.61864
 Alpha  occ. eigenvalues --   -0.56658  -0.52086  -0.51861  -0.50495  -0.48657
 Alpha  occ. eigenvalues --   -0.48059  -0.47623  -0.46325  -0.45420  -0.45394
 Alpha  occ. eigenvalues --   -0.43636  -0.43079  -0.42382  -0.42200  -0.40997
 Alpha  occ. eigenvalues --   -0.40063  -0.39214  -0.39051  -0.38502  -0.37658
 Alpha  occ. eigenvalues --   -0.37608  -0.36867  -0.36460  -0.35883  -0.35643
 Alpha  occ. eigenvalues --   -0.34703  -0.34593  -0.31074  -0.30986  -0.30459
 Alpha  occ. eigenvalues --   -0.29063  -0.24281
 Alpha virt. eigenvalues --   -0.07478   0.01089   0.01287   0.07955   0.08017
 Alpha virt. eigenvalues --    0.09052   0.09330   0.14240   0.14244   0.14779
 Alpha virt. eigenvalues --    0.14811   0.15682   0.15694   0.16195   0.16213

 Mulliken charges:
               1
     1  C   -0.469224
     2  C    0.295343
     3  C   -0.467880
     4  C   -0.452374
     5  O   -0.446111
     6  C    0.740051
     7  O   -0.425351
     8  N   -0.240930
     9  N   -0.240924
    10  C    0.740049
    11  O   -0.425336
    12  O   -0.446109
    13  C    0.295341
    14  C   -0.467882
    15  C   -0.452374
    16  C   -0.469221
    17  H    0.151314
    18  H    0.157537
    19  H    0.186354
    20  H    0.149236
    21  H    0.186201
    22  H    0.158824
    23  H    0.150184
    24  H    0.164378
    25  H    0.162436
    26  H    0.158825
    27  H    0.186202
    28  H    0.149237
    29  H    0.164379
    30  H    0.150185
    31  H    0.162436
    32  H    0.186352
    33  H    0.157537
    34  H    0.151315
 Sum of Mulliken charges =  -0.00000

 Dipole moment (field-independent basis, Debye):
    X=              0.0003    Y=             -0.0004    Z=              0.0005  Tot=              0.0007
 Quadrupole moment (field-independent basis, Debye-Ang):
   XX=            -63.5687   YY=           -104.0469   ZZ=            -93.2144
   XY=              6.3141   XZ=              0.0599   YZ=             -1.1652

 Summary of Natural Population Analysis:

                                       Natural Population
                Natural  -----------------------------------------------
    Atom  No    Charge         Core      Valence    Rydberg      Total
 -----------------------------------------------------------------------
      C    1   -0.70432      1.99932     4.69578    0.00922     6.70432
      C    2    0.27975      1.99900     3.70254    0.01871     5.72025
      C    3   -0.70336      1.99932     4.69495    0.00909     6.70336
      C    4   -0.68686      1.99932     4.67728    0.01025     6.68686
      O    5   -0.54100      1.99970     6.52816    0.01315     8.54100
      C    6    0.92386      1.99951     3.02474    0.05189     5.07614
      O    7   -0.55444      1.99977     6.53435    0.02032     8.55444
      N    8   -0.22139      1.99939     5.19553    0.02648     7.22139
      N    9   -0.22139      1.99939     5.19553    0.02648     7.22139
      C   10    0.92387      1.99951     3.02473    0.05189     5.07613
      O   11   -0.55443      1.99977     6.53434    0.02032     8.55443
      O   12   -0.54100      1.99970     6.52815    0.01315     8.54100
      C   13    0.27975      1.99900     3.70254    0.01871     5.72025
      C   14   -0.70336      1.99932     4.69496    0.00909     6.70336
      C   15   -0.68686      1.99932     4.67728    0.01025     6.68686
      C   16   -0.70432      1.99932     4.69578    0.00922     6.70432
      H   17    0.24155      0.00000     0.75771    0.00074     0.75845
      H   18    0.24083      0.00000     0.75805    0.00112     0.75917
      H   19    0.25721      0.00000     0.74140    0.00138     0.74279
      H   20    0.23977      0.00000     0.75947    0.00077     0.76023
      H   21    0.25745      0.00000     0.74129    0.00125     0.74255
      H   22    0.24163      0.00000     0.75724    0.00112     0.75837
      H   23    0.23891      0.00000     0.76041    0.00068     0.76109
      H   24    0.24577      0.00000     0.75319    0.00104     0.75423
      H   25    0.24463      0.00000     0.75432    0.00105     0.75537
      H   26    0.24163      0.00000     0.75724    0.00112     0.75837
      H   27    0.25745      0.00000     0.74129    0.00125     0.74255
      H   28    0.23977      0.00000     0.75947    0.00077     0.76023
      H   29    0.24577      0.00000     0.75319    0.00104     0.75423
      H   30    0.23891      0.00000     0.76041    0.00068     0.76109
      H   31    0.24463      0.00000     0.75432    0.00105     0.75537
      H   32    0.25721      0.00000     0.74140    0.00138     0.74279
      H   33    0.24083      0.00000     0.75805    0.00112     0.75917
      H   34    0.24155      0.00000     0.75771    0.00074     0.75845
 =======================================================================
   * Total *    0.00000     31.99063    91.67281    0.33656   124.00000

 Normal termination of Gaussian 16 at Sat Aug 22 13:29:59 2020.
