 Gaussian 16, Revision A.03,

 ---------------------------------
 # opt=CalcAll B3LYP/6-31G* scf=qc
 ---------------------------------

 -------------------
 Title Card Required
 -------------------
 Symbolic Z-matrix:
 Charge =  0 Multiplicity = 1

 SCF Done:  E(RB3LYP) =  -838.692949146     a.u. after   10 cycles
 SCF Done:  E(RB3LYP) =  -838.715844754     a.u. after   15 cycles
 SCF Done:  E(RB3LYP) =  -838.726097231     a.u. after   13 cycles
 SCF Done:  E(RB3LYP) =  -838.750902428     a.u. after   19 cycles
 SCF Done:  E(RB3LYP) =  -838.759113773     a.u. after   21 cycles
 SCF Done:  E(RB3LYP) =  -838.762501562     a.u. after   15 cycles
 SCF Done:  E(RB3LYP) =  -838.763174655     a.u. after   13 cycles
 SCF Done:  E(RB3LYP) =  -838.763304457     a.u. after   11 cycles
 SCF Done:  E(RB3LYP) =  -838.763314909     a.u. after    5 cycles
 SCF Done:  E(RB3LYP) =  -838.763315156     a.u. after    3 cycles
 Optimization completed.
    -- Stationary point found.
 Normal termination of Gaussian 16 at Sat Aug 22 16:21:00 2020.

 ----------------------------------------------------------------------
 # freq B3LYP/6-31G* scf=qc volume NMR pop=NPA density=current Geom=All
 Check Guess=Read
 ----------------------------------------------------------------------

 Structure from the checkpoint file:  "azadicarboxylate_5_conf182.chk"
 -------------------
 Title Card Required
 -------------------
 Charge =  0 Multiplicity = 1

 SCF Done:  E(RB3LYP) =  -838.763315156     a.u. after    1 cycles

      1  C    Isotropic =    36.0193   Anisotropy =    77.6455

      2  O    Isotropic =     1.7313   Anisotropy =   440.3967

      3  N    Isotropic =  -352.0227   Anisotropy =   725.6400

      4  N    Isotropic =  -352.7031   Anisotropy =   728.0112

      5  C    Isotropic =    36.1530   Anisotropy =    77.5238

      6  O    Isotropic =     1.6654   Anisotropy =   440.0157

      7  N    Isotropic =   147.9105   Anisotropy =    64.7766

      8  C    Isotropic =   145.5759   Anisotropy =    25.0275

      9  C    Isotropic =   163.1975   Anisotropy =     5.5664

     10  C    Isotropic =   164.1522   Anisotropy =     3.9792

     11  C    Isotropic =   162.9848   Anisotropy =     7.1399

     12  C    Isotropic =   146.6760   Anisotropy =    25.9740

     13  N    Isotropic =   148.2545   Anisotropy =    66.7506

     14  C    Isotropic =   145.5291   Anisotropy =    24.4327

     15  C    Isotropic =   163.1387   Anisotropy =     6.6578

     16  C    Isotropic =   164.1199   Anisotropy =     3.8066

     17  C    Isotropic =   162.9427   Anisotropy =     6.7324

     18  C    Isotropic =   146.8860   Anisotropy =    26.0129

     19  H    Isotropic =    29.0007   Anisotropy =     8.0948

     20  H    Isotropic =    29.3617   Anisotropy =     7.3361

     21  H    Isotropic =    30.7590   Anisotropy =     7.3907

     22  H    Isotropic =    30.8467   Anisotropy =     9.2066

     23  H    Isotropic =    30.4415   Anisotropy =     9.5006

     24  H    Isotropic =    30.6799   Anisotropy =     7.9041

     25  H    Isotropic =    30.6131   Anisotropy =     7.0816

     26  H    Isotropic =    30.7260   Anisotropy =     9.4494

     27  H    Isotropic =    27.8399   Anisotropy =     6.0986

     28  H    Isotropic =    29.5334   Anisotropy =     8.0623

     29  H    Isotropic =    28.9785   Anisotropy =     9.5528

     30  H    Isotropic =    29.5067   Anisotropy =     7.6848

     31  H    Isotropic =    30.4596   Anisotropy =     7.1158

     32  H    Isotropic =    30.8100   Anisotropy =     9.2301

     33  H    Isotropic =    30.3796   Anisotropy =     9.3962

     34  H    Isotropic =    30.6657   Anisotropy =     7.8643

     35  H    Isotropic =    30.4021   Anisotropy =     7.1795

     36  H    Isotropic =    30.6502   Anisotropy =     9.3793

     37  H    Isotropic =    27.8412   Anisotropy =     6.2233

     38  H    Isotropic =    29.6016   Anisotropy =     8.1852

  Exact polarizability: 210.275  -2.470 150.834  -1.956   0.545 115.530
 Approx polarizability: 241.957 -10.570 238.316  -7.314  -0.249 179.662

                      1                      2                      3
                      A                      A                      A
 Frequencies --     15.2851                37.3409                39.0380
 Red. masses --      4.8682                 4.4683                 4.9093
 Frc consts  --      0.0007                 0.0037                 0.0044
 IR Inten    --      3.2824                 1.7926                 3.4686

                      4                      5                      6
                      A                      A                      A
 Frequencies --     47.7817                55.2535                61.6785
 Red. masses --      3.4673                 4.4062                 5.0547
 Frc consts  --      0.0047                 0.0079                 0.0113
 IR Inten    --      0.4284                 0.2454                 2.0936

                      7                      8                      9
                      A                      A                      A
 Frequencies --     83.3974               175.9393               191.3803
 Red. masses --      4.7498                 2.9764                 3.2111
 Frc consts  --      0.0195                 0.0543                 0.0693
 IR Inten    --      0.1766                 0.1648                 8.2022

                     10                     11                     12
                      A                      A                      A
 Frequencies --    200.9529               219.7711               256.1993
 Red. masses --      5.8053                 5.0970                 2.2151
 Frc consts  --      0.1381                 0.1450                 0.0857
 IR Inten    --      2.3971                 0.2958                 0.8591

                     13                     14                     15
                      A                      A                      A
 Frequencies --    270.9649               300.4825               323.9659
 Red. masses --      2.5140                 2.5585                 2.8211
 Frc consts  --      0.1088                 0.1361                 0.1744
 IR Inten    --      2.6983                 1.8605                22.2230

                     16                     17                     18
                      A                      A                      A
 Frequencies --    364.5446               381.6603               392.8887
 Red. masses --      5.5683                 4.9137                 1.8101
 Frc consts  --      0.4360                 0.4217                 0.1646
 IR Inten    --      1.3477                 1.6269                 2.4560

                     19                     20                     21
                      A                      A                      A
 Frequencies --    405.9365               445.5183               450.4889
 Red. masses --      1.7844                 3.1820                 2.9945
 Frc consts  --      0.1732                 0.3721                 0.3580
 IR Inten    --      2.4539                 0.1292                 0.8389

                     22                     23                     24
                      A                      A                      A
 Frequencies --    476.6201               525.7892               550.4711
 Red. masses --      3.4210                 2.0174                 2.1759
 Frc consts  --      0.4579                 0.3286                 0.3885
 IR Inten    --      0.1275                 8.6779                 0.8285

                     25                     26                     27
                      A                      A                      A
 Frequencies --    576.3230               583.7576               627.2880
 Red. masses --      6.2024                 5.6996                 3.5398
 Frc consts  --      1.2138                 1.1444                 0.8207
 IR Inten    --     19.6862                 3.3787                10.3273

                     28                     29                     30
                      A                      A                      A
 Frequencies --    687.8511               747.9943               795.1529
 Red. masses --      3.8347                 5.4913                11.6072
 Frc consts  --      1.0690                 1.8102                 4.3239
 IR Inten    --      0.3123                 2.8906                20.4399

                     31                     32                     33
                      A                      A                      A
 Frequencies --    823.3214               825.1703               834.4571
 Red. masses --      1.5090                 1.5043                 3.1930
 Frc consts  --      0.6026                 0.6035                 1.3099
 IR Inten    --      0.2649                 0.2585                 0.7690

                     34                     35                     36
                      A                      A                      A
 Frequencies --    843.2770               869.5313               869.9138
 Red. masses --      3.0698                 1.4006                 1.4216
 Frc consts  --      1.2862                 0.6239                 0.6339
 IR Inten    --      3.3661                 9.8208                 7.6308

                     37                     38                     39
                      A                      A                      A
 Frequencies --    891.8795               910.3628               922.0508
 Red. masses --      3.2486                 2.5245                 3.1696
 Frc consts  --      1.5225                 1.2327                 1.5877
 IR Inten    --      0.0514                 7.7199                 0.2392

                     40                     41                     42
                      A                      A                      A
 Frequencies --    971.6030               977.1709               979.4080
 Red. masses --      2.7176                 1.5608                 1.3826
 Frc consts  --      1.5115                 0.8781                 0.7814
 IR Inten    --      4.1604                 1.1954                 4.2387

                     43                     44                     45
                      A                      A                      A
 Frequencies --    981.8870              1036.0769              1041.1106
 Red. masses --      2.6732                 2.7551                 2.5564
 Frc consts  --      1.5185                 1.7425                 1.6326
 IR Inten    --      0.4181                 5.6676                78.7020

                     46                     47                     48
                      A                      A                      A
 Frequencies --   1048.1286              1054.6657              1083.5428
 Red. masses --      2.1585                 2.2454                 1.7166
 Frc consts  --      1.3971                 1.4715                 1.1874
 IR Inten    --      0.3482                 3.1285                 0.2778

                     49                     50                     51
                      A                      A                      A
 Frequencies --   1084.7294              1154.9916              1158.4364
 Red. masses --      1.7104                 2.1701                 2.1370
 Frc consts  --      1.1858                 1.7056                 1.6897
 IR Inten    --      0.2289                 2.6365                16.1647

                     52                     53                     54
                      A                      A                      A
 Frequencies --   1169.4650              1172.3905              1195.6618
 Red. masses --      1.8910                 2.0044                 1.2513
 Frc consts  --      1.5238                 1.6232                 1.0540
 IR Inten    --     16.0074                78.0162                 1.3874

                     55                     56                     57
                      A                      A                      A
 Frequencies --   1197.0108              1261.2125              1264.2049
 Red. masses --      1.2642                 1.7978                 1.7925
 Frc consts  --      1.0672                 1.6849                 1.6879
 IR Inten    --      1.3060               148.0643               135.5592

                     58                     59                     60
                      A                      A                      A
 Frequencies --   1287.5691              1293.0981              1300.8547
 Red. masses --      2.2574                 1.8222                 1.2626
 Frc consts  --      2.2050                 1.7952                 1.2589
 IR Inten    --    281.0863                10.9140                21.4226

                     61                     62                     63
                      A                      A                      A
 Frequencies --   1303.2971              1323.2805              1323.7779
 Red. masses --      1.3613                 1.2220                 1.2027
 Frc consts  --      1.3624                 1.2608                 1.2418
 IR Inten    --     10.0407                19.7794                24.4061

                     64                     65                     66
                      A                      A                      A
 Frequencies --   1371.0186              1372.7537              1398.1288
 Red. masses --      1.2808                 1.2875                 1.3698
 Frc consts  --      1.4185                 1.4295                 1.5777
 IR Inten    --      0.0337                 0.5168                 1.6575

                     67                     68                     69
                      A                      A                      A
 Frequencies --   1398.3795              1400.8374              1401.6488
 Red. masses --      1.3865                 1.4605                 1.4635
 Frc consts  --      1.5974                 1.6886                 1.6941
 IR Inten    --      2.1264                 1.5596                 3.0475

                     70                     71                     72
                      A                      A                      A
 Frequencies --   1403.5437              1405.7935              1421.6446
 Red. masses --      1.4503                 1.4412                 1.3327
 Frc consts  --      1.6833                 1.6781                 1.5869
 IR Inten    --      3.4445                 4.1522                 8.7202

                     73                     74                     75
                      A                      A                      A
 Frequencies --   1425.4137              1481.8975              1486.0214
 Red. masses --      1.3433                 2.8824                 3.0634
 Frc consts  --      1.6080                 3.7294                 3.9857
 IR Inten    --     10.2730               413.8792                 2.8734

                     76                     77                     78
                      A                      A                      A
 Frequencies --   1507.8977              1507.9238              1514.4321
 Red. masses --      1.0950                 1.0951                 1.0860
 Frc consts  --      1.4670                 1.4671                 1.4675
 IR Inten    --      0.1254                 1.7697                 5.7084

                     79                     80                     81
                      A                      A                      A
 Frequencies --   1514.7556              1516.9588              1519.0263
 Red. masses --      1.0859                 1.0894                 1.0865
 Frc consts  --      1.4680                 1.4770                 1.4771
 IR Inten    --      5.2483                12.8313                 4.1172

                     82                     83                     84
                      A                      A                      A
 Frequencies --   1519.6005              1523.1309              1534.2212
 Red. masses --      1.1000                 1.0939                 1.1006
 Frc consts  --      1.4966                 1.4952                 1.5264
 IR Inten    --     10.0817                 4.4656                 3.0801

                     85                     86                     87
                      A                      A                      A
 Frequencies --   1535.0350              1649.5516              1775.7731
 Red. masses --      1.0997                13.7876                11.6205
 Frc consts  --      1.5268                22.1040                21.5899
 IR Inten    --      4.1655                 0.0313                 1.1081

                     88                     89                     90
                      A                      A                      A
 Frequencies --   1797.8097              3015.0799              3018.1724
 Red. masses --     11.7123                 1.0732                 1.0729
 Frc consts  --     22.3038                 5.7483                 5.7581
 IR Inten    --    854.3037                12.2410                12.2305

                     91                     92                     93
                      A                      A                      A
 Frequencies --   3018.3203              3021.1948              3025.4344
 Red. masses --      1.0729                 1.0718                 1.0699
 Frc consts  --      5.7592                 5.7639                 5.7700
 IR Inten    --     38.2849                31.1625                82.4105

                     94                     95                     96
                      A                      A                      A
 Frequencies --   3025.6230              3045.4540              3045.8503
 Red. masses --      1.0697                 1.0609                 1.0608
 Frc consts  --      5.7695                 5.7973                 5.7982
 IR Inten    --     23.0692                25.4432                25.3806

                     97                     98                     99
                      A                      A                      A
 Frequencies --   3047.3405              3047.5454              3082.0734
 Red. masses --      1.0617                 1.0616                 1.0934
 Frc consts  --      5.8091                 5.8093                 6.1193
 IR Inten    --     19.3548                21.0916                60.0169

                    100                    101                    102
                      A                      A                      A
 Frequencies --   3082.2854              3088.9424              3089.1908
 Red. masses --      1.0933                 1.1036                 1.1038
 Frc consts  --      6.1199                 6.2040                 6.2061
 IR Inten    --     43.0104                31.8388                31.9522

                    103                    104                    105
                      A                      A                      A
 Frequencies --   3094.0703              3094.3399              3149.6918
 Red. masses --      1.1049                 1.1049                 1.0920
 Frc consts  --      6.2322                 6.2334                 6.3830
 IR Inten    --     60.5883                69.0365                 6.9377

                    106                    107                    108
                      A                      A                      A
 Frequencies --   3151.3850              3156.4422              3157.3171
 Red. masses --      1.0927                 1.0916                 1.0919
 Frc consts  --      6.3938                 6.4080                 6.4133
 IR Inten    --      5.2999                 3.6646                 3.5129

 - Thermochemistry -
 -------------------
 Temperature   298.150 Kelvin.  Pressure   1.00000 Atm.
 Atom     1 has atomic number  6 and mass  12.00000

 Molecular mass:   252.15863 amu.
 Principal axes and moments of inertia in atomic units:
                           1         2         3
     Eigenvalues --  1722.31755********************
           X            0.99997  -0.00821   0.00140
           Y            0.00819   0.99993   0.00826
           Z           -0.00146  -0.00824   0.99996
 This molecule is an asymmetric top.
 Rotational symmetry number  1.
 Warning -- assumption of classical behavior for rotation
           may cause significant error
 Rotational temperatures (Kelvin)      0.05029     0.00849     0.00778
 Rotational constants (GHZ):           1.04786     0.17692     0.16208
 Zero-point vibrational energy     864805.6 (Joules/Mol)
                                  206.69350 (Kcal/Mol)
 Warning -- explicit consideration of  26 degrees of freedom as
           vibrations may cause significant error
 Vibrational temperatures:     21.99    53.73    56.17    68.75    79.50
          (Kelvin)             88.74   119.99   253.14   275.35   289.13
                              316.20   368.61   389.86   432.33   466.11
                              524.50   549.12   565.28   584.05   641.00
                              648.15   685.75   756.49   792.01   829.20
                              839.90   902.53   989.66  1076.20  1144.05
                             1184.58  1187.24  1200.60  1213.29  1251.06
                             1251.61  1283.22  1309.81  1326.63  1397.92
                             1405.93  1409.15  1412.72  1490.68  1497.93
                             1508.02  1517.43  1558.98  1560.68  1661.78
                             1666.73  1682.60  1686.81  1720.29  1722.23
                             1814.60  1818.91  1852.52  1860.48  1871.64
                             1875.15  1903.91  1904.62  1972.59  1975.09
                             2011.60  2011.96  2015.49  2016.66  2019.39
                             2022.62  2045.43  2050.85  2132.12  2138.05
                             2169.53  2169.57  2178.93  2179.40  2182.57
                             2185.54  2186.37  2191.45  2207.40  2208.57
                             2373.34  2554.94  2586.65  4338.03  4342.48
                             4342.69  4346.83  4352.93  4353.20  4381.73
                             4382.30  4384.44  4384.74  4434.42  4434.72
                             4444.30  4444.66  4451.68  4452.06  4531.70
                             4534.14  4541.42  4542.68

 Zero-point correction=                           0.329387 (Hartree/Particle)
 Thermal correction to Energy=                    0.346576
 Thermal correction to Enthalpy=                  0.347520
 Thermal correction to Gibbs Free Energy=         0.281382
 Sum of electronic and zero-point Energies=           -838.433928
 Sum of electronic and thermal Energies=              -838.416739
 Sum of electronic and thermal Enthalpies=            -838.415795
 Sum of electronic and thermal Free Energies=         -838.481934

                     E (Thermal)             CV                S
                      KCal/Mol        Cal/Mol-Kelvin    Cal/Mol-Kelvin
 Total                  217.480             64.722            139.200
 Electronic               0.000              0.000              0.000
 Translational            0.889              2.981             42.475
 Rotational               0.889              2.981             33.636
 Vibrational            215.702             58.761             63.089
 Vibration     1          0.593              1.986              7.168
 Vibration     2          0.594              1.982              5.395
 Vibration     3          0.594              1.981              5.307
 Vibration     4          0.595              1.978              4.907
 Vibration     5          0.596              1.975              4.620
 Vibration     6          0.597              1.973              4.403
 Vibration     7          0.600              1.961              3.809
 Vibration     8          0.628              1.872              2.371
 Vibration     9          0.634              1.852              2.214
 Vibration    10          0.638              1.839              2.124
 Vibration    11          0.647              1.811              1.961
 Vibration    12          0.666              1.752              1.688
 Vibration    13          0.675              1.727              1.590
 Vibration    14          0.693              1.673              1.414
 Vibration    15          0.709              1.628              1.290
 Vibration    16          0.738              1.545              1.103
 Vibration    17          0.751              1.509              1.033
 Vibration    18          0.760              1.485              0.989
 Vibration    19          0.771              1.457              0.941
 Vibration    20          0.805              1.371              0.809
 Vibration    21          0.809              1.360              0.794
 Vibration    22          0.833              1.302              0.719
 Vibration    23          0.881              1.193              0.597
 Vibration    24          0.906              1.139              0.543
 Vibration    25          0.933              1.082              0.492
 Vibration    26          0.941              1.066              0.478

                           ! Non-Optimized Parameters !
 Normal termination of Gaussian 16 at Sat Aug 22 16:28:38 2020.
 Gaussian 16:  ES64L-G16RevA.03 25-Dec-2016

 ----------------------------------------------------------------------
 # TD(NStates=10, Root=1) B3LYP/6-31G* scf=qc volume pop=NPA density=cu
 rrent Geom=AllCheck Guess=Read
 ----------------------------------------------------------------------

 Structure from the checkpoint file:  "azadicarboxylate_5_conf183.chk"
 -------------------
 Title Card Required
 -------------------
 Charge =  0 Multiplicity = 1

                         Standard orientation:
 ---------------------------------------------------------------------
 Center     Atomic      Atomic             Coordinates (Angstroms)
 Number     Number       Type             X           Y           Z
 ---------------------------------------------------------------------
      1          6           0        1.432228    0.947380    0.256071
      2          8           0        1.220588    2.147496    0.331975
      3          7           0        0.316542    0.056020   -0.058996
      4          7           0       -0.436868   -0.122556    0.915226
      5          6           0       -1.553970   -1.010728    0.591994
      6          8           0       -1.343963   -2.208846    0.487659
      7          7           0       -2.755926   -0.387720    0.551502
      8          6           0       -2.937783    1.066503    0.628354
      9          6           0       -3.612489    1.591950   -0.646236
     10          6           0       -4.914617    0.828558   -0.935755
     11          6           0       -4.667691   -0.687932   -0.976554
     12          6           0       -3.969769   -1.169279    0.302408
     13          7           0        2.634769    0.327010    0.314721
     14          6           0        2.818424   -1.127526    0.244984
     15          6           0        3.834528   -1.490342   -0.845966
     16          6           0        5.147127   -0.713130   -0.664294
     17          6           0        4.881111    0.798245   -0.587742
     18          6           0        3.850884    1.123350    0.500929
     19          1           0       -1.970684    1.544228    0.790707
     20          1           0       -3.568009    1.287221    1.502932
     21          1           0       -2.916272    1.476264   -1.487316
     22          1           0       -3.808101    2.665169   -0.532480
     23          1           0       -5.353217    1.169149   -1.881237
     24          1           0       -5.649419    1.055262   -0.148819
     25          1           0       -4.036261   -0.938499   -1.839165
     26          1           0       -5.612894   -1.231173   -1.098826
     27          1           0       -3.678362   -2.218401    0.239726
     28          1           0       -4.641477   -1.049154    1.165756
     29          1           0        1.854564   -1.603446    0.059421
     30          1           0        3.177450   -1.480576    1.223836
     31          1           0        3.397754   -1.258528   -1.826276
     32          1           0        4.015838   -2.571698   -0.819323
     33          1           0        5.839846   -0.938434   -1.483851
     34          1           0        5.638979   -1.042775    0.263015
     35          1           0        4.502645    1.157805   -1.553737
     36          1           0        5.808747    1.345635   -0.379693
     37          1           0        3.558884    2.174153    0.488515
     38          1           0        4.269471    0.897023    1.493412
 ---------------------------------------------------------------------

 SCF Done:  E(RB3LYP) =  -838.763315156     a.u. after    1 cycles

 Excitation energies and oscillator strengths:

 Excited State   1:      Singlet-A      2.6556 eV  466.88 nm  f=0.0000  <S**2>=0.000
      68 -> 69         0.69734
 This state for optimization and/or second-order correction.
 Total Energy, E(TD-HF/TD-DFT) =  -838.665722975
 Copying the excited state density for this state as the 1-particle RhoCI density.

 Excited State   2:      Singlet-A      3.8375 eV  323.08 nm  f=0.0015  <S**2>=0.000
      66 -> 69        -0.30201
      67 -> 69         0.63346

 Excited State   3:      Singlet-A      3.8611 eV  321.11 nm  f=0.0019  <S**2>=0.000
      66 -> 69         0.63251
      67 -> 69         0.30436

 Excited State   4:      Singlet-A      4.3835 eV  282.84 nm  f=0.0429  <S**2>=0.000
      65 -> 69         0.69355

 Excited State   5:      Singlet-A      5.0152 eV  247.22 nm  f=0.0000  <S**2>=0.000
      64 -> 69         0.68251
      68 -> 70        -0.10562

 Excited State   6:      Singlet-A      5.7566 eV  215.38 nm  f=0.0483  <S**2>=0.000
      65 -> 70        -0.18711
      68 -> 70         0.52185
      68 -> 71         0.41453

 Excited State   7:      Singlet-A      5.8115 eV  213.34 nm  f=0.0053  <S**2>=0.000
      64 -> 69        -0.12582
      65 -> 71         0.18775
      68 -> 70        -0.40331
      68 -> 71         0.51786

 Excited State   8:      Singlet-A      6.3933 eV  193.93 nm  f=0.0022  <S**2>=0.000
      59 -> 69         0.15738
      61 -> 69         0.16403
      63 -> 69         0.65065

 Excited State   9:      Singlet-A      6.4684 eV  191.68 nm  f=0.0004  <S**2>=0.000
      60 -> 69         0.23592
      62 -> 69         0.65489

 Excited State  10:      Singlet-A      6.5054 eV  190.59 nm  f=0.0540  <S**2>=0.000
      59 -> 69         0.39260
      60 -> 69         0.45250
      62 -> 69        -0.23232
      63 -> 69        -0.21390

 The electronic state is 1-A.
 Alpha  occ. eigenvalues --  -19.12112 -19.12074 -14.40321 -14.40263 -14.37157
 Alpha  occ. eigenvalues --  -14.37118 -10.30881 -10.30849 -10.22686 -10.22654
 Alpha  occ. eigenvalues --  -10.22198 -10.22182 -10.19208 -10.19190 -10.19157
 Alpha  occ. eigenvalues --  -10.19130 -10.19114 -10.19094  -1.08207  -1.04575
 Alpha  occ. eigenvalues --   -1.00769  -0.94885  -0.94735  -0.81200  -0.80552
 Alpha  occ. eigenvalues --   -0.77507  -0.76847  -0.75001  -0.69199  -0.66895
 Alpha  occ. eigenvalues --   -0.64264  -0.63572  -0.60178  -0.58897  -0.55815
 Alpha  occ. eigenvalues --   -0.54350  -0.52856  -0.49127  -0.48019  -0.47639
 Alpha  occ. eigenvalues --   -0.46599  -0.46417  -0.45847  -0.45010  -0.43867
 Alpha  occ. eigenvalues --   -0.43817  -0.43136  -0.42390  -0.41796  -0.41420
 Alpha  occ. eigenvalues --   -0.39994  -0.39659  -0.38379  -0.38082  -0.36538
 Alpha  occ. eigenvalues --   -0.36123  -0.36012  -0.34372  -0.34077  -0.33404
 Alpha  occ. eigenvalues --   -0.33304  -0.33018  -0.32874  -0.29744  -0.26872
 Alpha  occ. eigenvalues --   -0.24576  -0.24450  -0.22419
 Alpha virt. eigenvalues --   -0.06819   0.03299   0.03505   0.08740   0.08894
 Alpha virt. eigenvalues --    0.10868   0.10941   0.12675   0.12774   0.13998
 Alpha virt. eigenvalues --    0.14299   0.14441   0.14579   0.15620   0.15882

 Mulliken charges:
               1
     1  C    0.699474
     2  O   -0.468626
     3  N   -0.283246
     4  N   -0.281351
     5  C    0.700321
     6  O   -0.468373
     7  N   -0.399736
     8  C   -0.154949
     9  C   -0.261411
    10  C   -0.269409
    11  C   -0.262856
    12  C   -0.151028
    13  N   -0.403256
    14  C   -0.149564
    15  C   -0.263857
    16  C   -0.269361
    17  C   -0.264496
    18  C   -0.148351
    19  H    0.208227
    20  H    0.144674
    21  H    0.151141
    22  H    0.143830
    23  H    0.142607
    24  H    0.131671
    25  H    0.149482
    26  H    0.141517
    27  H    0.190368
    28  H    0.146446
    29  H    0.207487
    30  H    0.145776
    31  H    0.147469
    32  H    0.144593
    33  H    0.142581
    34  H    0.133101
    35  H    0.148264
    36  H    0.142839
    37  H    0.190548
    38  H    0.147456
 Sum of Mulliken charges =  -0.00000

 Dipole moment (field-independent basis, Debye):
    X=              0.1328    Y=              0.0561    Z=             -0.6714  Tot=              0.6867
 Quadrupole moment (field-independent basis, Debye-Ang):
   XX=            -76.4783   YY=           -116.4206   ZZ=           -106.6158
   XY=             -4.7677   XZ=              0.3039   YZ=              0.5833

 Summary of Natural Population Analysis:

                                       Natural Population
                Natural  -----------------------------------------------
    Atom  No    Charge         Core      Valence    Rydberg      Total
 -----------------------------------------------------------------------
      C    1    0.79711      1.99934     3.15683    0.04672     5.20289
      O    2   -0.57263      1.99979     6.55431    0.01854     8.57263
      N    3   -0.25249      1.99941     5.22704    0.02603     7.25249
      N    4   -0.24923      1.99941     5.22369    0.02612     7.24923
      C    5    0.79534      1.99934     3.15848    0.04684     5.20466
      O    6   -0.57139      1.99979     6.55305    0.01855     8.57139
      N    7   -0.47011      1.99928     5.45795    0.01289     7.47011
      C    8   -0.26153      1.99930     4.24592    0.01631     6.26153
      C    9   -0.47197      1.99932     4.46119    0.01146     6.47197
      C   10   -0.46554      1.99933     4.45466    0.01155     6.46554
      C   11   -0.47181      1.99932     4.46117    0.01132     6.47181
      C   12   -0.25936      1.99932     4.24388    0.01616     6.25936
      N   13   -0.47109      1.99927     5.45891    0.01290     7.47109
      C   14   -0.26151      1.99930     4.24608    0.01613     6.26151
      C   15   -0.47070      1.99932     4.45990    0.01148     6.47070
      C   16   -0.46524      1.99933     4.45437    0.01154     6.46524
      C   17   -0.47147      1.99932     4.46074    0.01140     6.47147
      C   18   -0.25926      1.99932     4.24375    0.01620     6.25926
      H   19    0.27342      0.00000     0.72415    0.00243     0.72658
      H   20    0.22524      0.00000     0.77259    0.00217     0.77476
      H   21    0.23794      0.00000     0.76008    0.00199     0.76206
      H   22    0.24593      0.00000     0.75295    0.00112     0.75407
      H   23    0.24435      0.00000     0.75454    0.00111     0.75565
      H   24    0.22579      0.00000     0.77227    0.00194     0.77421
      H   25    0.23686      0.00000     0.76125    0.00189     0.76314
      H   26    0.24438      0.00000     0.75449    0.00113     0.75562
      H   27    0.26759      0.00000     0.73035    0.00205     0.73241
      H   28    0.22575      0.00000     0.77220    0.00205     0.77425
      H   29    0.27345      0.00000     0.72411    0.00243     0.72655
      H   30    0.22422      0.00000     0.77351    0.00227     0.77578
      H   31    0.23579      0.00000     0.76214    0.00207     0.76421
      H   32    0.24646      0.00000     0.75245    0.00110     0.75354
      H   33    0.24436      0.00000     0.75453    0.00111     0.75564
      H   34    0.22670      0.00000     0.77136    0.00194     0.77330
      H   35    0.23631      0.00000     0.76181    0.00188     0.76369
      H   36    0.24561      0.00000     0.75326    0.00113     0.75439
      H   37    0.26780      0.00000     0.73017    0.00203     0.73220
      H   38    0.22495      0.00000     0.77304    0.00201     0.77505
 =======================================================================
   * Total *   -0.00000     35.98882    99.63317    0.37801   136.00000

 Normal termination of Gaussian 16 at Sat Aug 22 16:37:19 2020.
