 Gaussian 16, Revision A.03,

 ---------------------------------
 # opt=CalcAll B3LYP/6-31G* scf=qc
 ---------------------------------

 -------------------
 Title Card Required
 -------------------
 Symbolic Z-matrix:
 Charge =  0 Multiplicity = 1

 SCF Done:  E(RB3LYP) =  -1947.63670494     a.u. after   11 cycles
 SCF Done:  E(RB3LYP) =  -1947.66388140     a.u. after   23 cycles
 SCF Done:  E(RB3LYP) =  -1947.66985793     a.u. after   25 cycles
 SCF Done:  E(RB3LYP) =  -1947.67147770     a.u. after   17 cycles
 SCF Done:  E(RB3LYP) =  -1947.67234420     a.u. after   17 cycles
 SCF Done:  E(RB3LYP) =  -1947.67087113     a.u. after   19 cycles
 SCF Done:  E(RB3LYP) =  -1947.67299236     a.u. after   19 cycles
 SCF Done:  E(RB3LYP) =  -1947.67339374     a.u. after   15 cycles
 SCF Done:  E(RB3LYP) =  -1947.67342387     a.u. after    9 cycles
 SCF Done:  E(RB3LYP) =  -1947.67342403     a.u. after    3 cycles
 Optimization completed on the basis of negligible forces.
    -- Stationary point found.
 Normal termination of Gaussian 16 at Sat Aug 22 16:04:30 2020.

 ----------------------------------------------------------------------
 # freq B3LYP/6-31G* scf=qc volume NMR pop=NPA density=current Geom=All
 Check Guess=Read
 ----------------------------------------------------------------------

 Structure from the checkpoint file:  "azadicarboxylate_3_conf252.chk"
 -------------------
 Title Card Required
 -------------------
 Charge =  0 Multiplicity = 1

 SCF Done:  E(RB3LYP) =  -1947.67342403     a.u. after    1 cycles

      1  C    Isotropic =    63.7222   Anisotropy =   171.8849

      2  C    Isotropic =   121.7176   Anisotropy =    40.5849

      3  O    Isotropic =   143.0137   Anisotropy =   139.7304

      4  C    Isotropic =    34.6906   Anisotropy =    75.0839

      5  O    Isotropic =   -19.7192   Anisotropy =   490.5827

      6  N    Isotropic =  -323.8231   Anisotropy =   673.5776

      7  N    Isotropic =  -323.8239   Anisotropy =   673.5727

      8  C    Isotropic =    34.6891   Anisotropy =    75.0740

      9  O    Isotropic =   -19.7145   Anisotropy =   490.5626

     10  O    Isotropic =   143.0138   Anisotropy =   139.7371

     11  C    Isotropic =   121.7185   Anisotropy =    40.5861

     12  C    Isotropic =    63.7210   Anisotropy =   171.8836

     13  C    Isotropic =    62.6369   Anisotropy =   158.6918

     14  C    Isotropic =    66.6162   Anisotropy =   142.3213

     15  C    Isotropic =    51.1047   Anisotropy =   111.1075

     16  C    Isotropic =    67.3300   Anisotropy =   140.8861

     17  C    Isotropic =    64.1630   Anisotropy =   152.0322

     18  Cl   Isotropic =   717.9235   Anisotropy =   454.5358

     19  C    Isotropic =    64.1633   Anisotropy =   152.0395

     20  C    Isotropic =    67.3295   Anisotropy =   140.8876

     21  C    Isotropic =    51.1043   Anisotropy =   111.1080

     22  C    Isotropic =    66.6169   Anisotropy =   142.3203

     23  C    Isotropic =    62.6355   Anisotropy =   158.6866

     24  Cl   Isotropic =   717.9220   Anisotropy =   454.5362

     25  H    Isotropic =    26.4568   Anisotropy =     2.7238

     26  H    Isotropic =    27.7532   Anisotropy =     5.3344

     27  H    Isotropic =    27.7534   Anisotropy =     5.3348

     28  H    Isotropic =    26.4565   Anisotropy =     2.7233

     29  H    Isotropic =    24.3273   Anisotropy =     7.5380

     30  H    Isotropic =    25.0034   Anisotropy =     7.2650

     31  H    Isotropic =    25.0764   Anisotropy =     7.0054

     32  H    Isotropic =    24.9838   Anisotropy =     6.3836

     33  H    Isotropic =    24.9837   Anisotropy =     6.3839

     34  H    Isotropic =    25.0763   Anisotropy =     7.0056

     35  H    Isotropic =    25.0035   Anisotropy =     7.2648

     36  H    Isotropic =    24.3277   Anisotropy =     7.5366

  Exact polarizability: 304.117   0.012 194.508  53.067  -0.010 139.270
 Approx polarizability: 376.604   0.019 352.157  93.737  -0.032 217.846

                      1                      2                      3
                      A                      A                      A
 Frequencies --      3.6384                12.6943                20.1889
 Red. masses --     10.8588                10.4985                 6.5609
 Frc consts  --      0.0001                 0.0010                 0.0016
 IR Inten    --      0.0872                 0.3149                 0.0460

                      4                      5                      6
                      A                      A                      A
 Frequencies --     25.7942                30.0822                31.9092
 Red. masses --      4.9986                 5.5317                11.2479
 Frc consts  --      0.0020                 0.0029                 0.0067
 IR Inten    --      0.1681                 0.0000                 1.3021

                      7                      8                      9
                      A                      A                      A
 Frequencies --     47.2982                62.3372                69.9774
 Red. masses --     11.5591                 8.2626                 6.7442
 Frc consts  --      0.0152                 0.0189                 0.0195
 IR Inten    --      0.5546                 2.0253                 0.3003

                     10                     11                     12
                      A                      A                      A
 Frequencies --     95.2872               105.0397               170.9092
 Red. masses --     10.8902                 9.1328                10.9646
 Frc consts  --      0.0583                 0.0594                 0.1887
 IR Inten    --      1.2831                 0.2677                 0.8372

                     13                     14                     15
                      A                      A                      A
 Frequencies --    171.6317               200.9311               217.0254
 Red. masses --     10.2811                 9.4960                 8.1856
 Frc consts  --      0.1784                 0.2259                 0.2272
 IR Inten    --      0.4140                 5.1331                 3.0124

                     16                     17                     18
                      A                      A                      A
 Frequencies --    259.3891               262.2832               291.9918
 Red. masses --     11.3159                 8.9874                 4.2875
 Frc consts  --      0.4486                 0.3643                 0.2154
 IR Inten    --      4.2853                 0.2552                 3.4574

                     19                     20                     21
                      A                      A                      A
 Frequencies --    301.8694               324.3960               357.9101
 Red. masses --      4.9672                 8.9512                 8.1885
 Frc consts  --      0.2667                 0.5550                 0.6180
 IR Inten    --      2.8021                 1.4277                 0.1435

                     22                     23                     24
                      A                      A                      A
 Frequencies --    374.8889               387.2710               413.6308
 Red. masses --      2.7730                 2.3912                 6.3118
 Frc consts  --      0.2296                 0.2113                 0.6363
 IR Inten    --      1.1833                 6.4332                75.4892

                     25                     26                     27
                      A                      A                      A
 Frequencies --    420.6313               420.8377               441.5451
 Red. masses --      3.0333                 3.0590                 5.7979
 Frc consts  --      0.3162                 0.3192                 0.6660
 IR Inten    --      0.0061                 2.5172                 0.0887

                     28                     29                     30
                      A                      A                      A
 Frequencies --    456.4099               530.0016               542.2397
 Red. masses --      5.2152                 4.2191                 4.0765
 Frc consts  --      0.6401                 0.6983                 0.7062
 IR Inten    --      3.7007                 0.1782                43.3780

                     31                     32                     33
                      A                      A                      A
 Frequencies --    595.7427               612.1818               638.7502
 Red. masses --     10.4536                 6.9025                 7.1564
 Frc consts  --      2.1859                 1.5241                 1.7203
 IR Inten    --      0.1735                 2.8798                16.4634

                     34                     35                     36
                      A                      A                      A
 Frequencies --    648.1666               648.3620               664.9518
 Red. masses --      6.6209                 6.7751                 4.9455
 Frc consts  --      1.6389                 1.6780                 1.2884
 IR Inten    --      0.4617                 0.0476                 5.8753

                     37                     38                     39
                      A                      A                      A
 Frequencies --    665.9705               737.4080               737.4849
 Red. masses --      5.0751                 4.2347                 4.2374
 Frc consts  --      1.3262                 1.3567                 1.3579
 IR Inten    --      0.0526                 6.2278                 0.2662

                     40                     41                     42
                      A                      A                      A
 Frequencies --    811.4149               820.7023               821.5535
 Red. masses --     10.7888                 2.4354                 2.6937
 Frc consts  --      4.1851                 0.9665                 1.0712
 IR Inten    --     14.4240                99.2072                 0.3358

                     43                     44                     45
                      A                      A                      A
 Frequencies --    829.8139               843.9616               844.1529
 Red. masses --      4.3682                 1.2950                 1.3175
 Frc consts  --      1.7722                 0.5435                 0.5532
 IR Inten    --      1.3635                 2.9076                 0.1026

                     46                     47                     48
                      A                      A                      A
 Frequencies --    858.3845               861.5025               875.2067
 Red. masses --      2.8781                 2.1781                 3.3120
 Frc consts  --      1.2494                 0.9524                 1.4947
 IR Inten    --    172.4167                 0.6153                14.2551

                     49                     50                     51
                      A                      A                      A
 Frequencies --    924.5796               961.2410               963.0690
 Red. masses --      7.0346                 1.4601                 1.3606
 Frc consts  --      3.5430                 0.7949                 0.7435
 IR Inten    --      0.3435                25.9580                 0.3047

                     52                     53                     54
                      A                      A                      A
 Frequencies --    973.8771               977.1277               979.4388
 Red. masses --      2.0644                 1.3453                 1.8275
 Frc consts  --      1.1536                 0.7568                 1.0329
 IR Inten    --    100.3956                 0.0045                46.3370

                     55                     56                     57
                      A                      A                      A
 Frequencies --    989.8476              1024.1248              1025.6054
 Red. masses --      3.8337                 2.3995                 2.7075
 Frc consts  --      2.2131                 1.4828                 1.6779
 IR Inten    --      9.6339                18.9587                19.0926

                     58                     59                     60
                      A                      A                      A
 Frequencies --   1035.3546              1035.4958              1110.7540
 Red. masses --      3.8051                 3.8194                 3.1234
 Frc consts  --      2.4032                 2.4129                 2.2705
 IR Inten    --     43.5768                 0.1711               154.0211

                     61                     62                     63
                      A                      A                      A
 Frequencies --   1111.0613              1146.3992              1146.4377
 Red. masses --      3.1264                 1.3246                 1.3244
 Frc consts  --      2.2739                 1.0257                 1.0256
 IR Inten    --      2.7351                 5.4892                 0.9703

                     64                     65                     66
                      A                      A                      A
 Frequencies --   1214.9332              1216.1302              1231.0794
 Red. masses --      1.2119                 1.1444                 4.3604
 Frc consts  --      1.0540                 0.9973                 3.8935
 IR Inten    --    123.9281                 0.6023              1265.7271

                     67                     68                     69
                      A                      A                      A
 Frequencies --   1240.3056              1240.3467              1270.6823
 Red. masses --      3.0742                 3.0267                 2.7707
 Frc consts  --      2.7864                 2.7435                 2.6358
 IR Inten    --      0.0182                14.7928               146.2392

                     70                     71                     72
                      A                      A                      A
 Frequencies --   1295.0961              1300.6556              1336.4539
 Red. masses --      1.4436                 1.8650                 1.8099
 Frc consts  --      1.4266                 1.8588                 1.9046
 IR Inten    --     64.5856               107.9128                 1.4948

                     73                     74                     75
                      A                      A                      A
 Frequencies --   1336.5009              1363.4312              1363.5910
 Red. masses --      1.8243                 2.1629                 2.1513
 Frc consts  --      1.9199                 2.3689                 2.3568
 IR Inten    --      0.8055                 3.8920                 9.1008

                     76                     77                     78
                      A                      A                      A
 Frequencies --   1416.7230              1417.3219              1456.2683
 Red. masses --      1.3392                 1.3677                 2.6043
 Frc consts  --      1.5837                 1.6187                 3.2541
 IR Inten    --     36.3522                 0.6307                 2.8078

                     79                     80                     81
                      A                      A                      A
 Frequencies --   1456.3055              1518.3541              1518.6597
 Red. masses --      2.6033                 1.1172                 1.1203
 Frc consts  --      3.2530                 1.5175                 1.5224
 IR Inten    --     11.4284                23.6225                 0.0847

                     82                     83                     84
                      A                      A                      A
 Frequencies --   1541.4861              1541.6282              1630.8846
 Red. masses --      2.3080                 2.3016                 6.6799
 Frc consts  --      3.2311                 3.2229                10.4680
 IR Inten    --     93.5166                 1.0970                 0.1327

                     85                     86                     87
                      A                      A                      A
 Frequencies --   1630.9082              1656.0648              1656.0799
 Red. masses --      6.6784                 5.5917                 5.5940
 Frc consts  --     10.4660                 9.0354                 9.0394
 IR Inten    --      1.1613                59.7660                 1.0244

                     88                     89                     90
                      A                      A                      A
 Frequencies --   1661.0788              1833.5852              1850.8163
 Red. masses --     13.9731                12.2316                12.1620
 Frc consts  --     22.7155                24.2291                24.5461
 IR Inten    --      0.1725                43.5509               456.7419

                     91                     92                     93
                      A                      A                      A
 Frequencies --   3112.5310              3112.5892              3169.9338
 Red. masses --      1.0578                 1.0578                 1.1109
 Frc consts  --      6.0378                 6.0381                 6.5769
 IR Inten    --     34.5641                 3.3804                 1.1437

                     94                     95                     96
                      A                      A                      A
 Frequencies --   3169.9570              3189.9143              3189.9309
 Red. masses --      1.1109                 1.0897                 1.0897
 Frc consts  --      6.5770                 6.5328                 6.5329
 IR Inten    --      5.8534                 9.5880                 8.9179

                     97                     98                     99
                      A                      A                      A
 Frequencies --   3212.6908              3212.6987              3225.8864
 Red. masses --      1.0890                 1.0890                 1.0935
 Frc consts  --      6.6224                 6.6225                 6.7043
 IR Inten    --      1.3288                 0.5918                 0.1172

                    100                    101                    102
                      A                      A                      A
 Frequencies --   3225.8914              3228.7561              3228.7588
 Red. masses --      1.0935                 1.0949                 1.0949
 Frc consts  --      6.7044                 6.7247                 6.7248
 IR Inten    --      7.0878                 1.3045                 1.1237

 - Thermochemistry -
 -------------------
 Temperature   298.150 Kelvin.  Pressure   1.00000 Atm.
 Atom     1 has atomic number  6 and mass  12.00000

 Molecular mass:   366.01741 amu.
 Principal axes and moments of inertia in atomic units:
                           1         2         3
     Eigenvalues --  3126.32852********************
           X            0.99998  -0.00000  -0.00657
           Y            0.00000   1.00000   0.00001
           Z            0.00657  -0.00001   0.99998
 This molecule is an asymmetric top.
 Rotational symmetry number  1.
 Warning -- assumption of classical behavior for rotation
           may cause significant error
 Rotational temperatures (Kelvin)      0.02770     0.00229     0.00227
 Rotational constants (GHZ):           0.57727     0.04781     0.04730
 Zero-point vibrational energy     678552.2 (Joules/Mol)
                                  162.17788 (Kcal/Mol)
 Warning -- explicit consideration of  32 degrees of freedom as
           vibrations may cause significant error
 Vibrational temperatures:      5.23    18.26    29.05    37.11    43.28
          (Kelvin)             45.91    68.05    89.69   100.68   137.10
                              151.13   245.90   246.94   289.10   312.25
                              373.20   377.37   420.11   434.32   466.73
                              514.95   539.38   557.20   595.12   605.19
                              605.49   635.28   656.67   762.55   780.16
                              857.14   880.79   919.02   932.57   932.85
                              956.72   958.18  1060.97  1061.08  1167.45
                             1180.81  1182.03  1193.92  1214.27  1214.55
                             1235.02  1239.51  1259.23  1330.26  1383.01
                             1385.64  1401.19  1405.87  1409.19  1424.17
                             1473.49  1475.62  1489.64  1489.85  1598.13
                             1598.57  1649.41  1649.47  1748.02  1749.74
                             1771.25  1784.52  1784.58  1828.23  1863.35
                             1871.35  1922.86  1922.93  1961.67  1961.90
                             2038.35  2039.21  2095.25  2095.30  2184.57
                             2185.01  2217.85  2218.06  2346.48  2346.51
                             2382.71  2382.73  2389.92  2638.12  2662.91
                             4478.24  4478.32  4560.83  4560.86  4589.58
                             4589.60  4622.35  4622.36  4641.33  4641.34
                             4645.46  4645.46

 Zero-point correction=                           0.258447 (Hartree/Particle)
 Thermal correction to Energy=                    0.280386
 Thermal correction to Enthalpy=                  0.281331
 Thermal correction to Gibbs Free Energy=         0.198540
 Sum of electronic and zero-point Energies=          -1947.414977
 Sum of electronic and thermal Energies=             -1947.393038
 Sum of electronic and thermal Enthalpies=           -1947.392093
 Sum of electronic and thermal Free Energies=        -1947.474885

                     E (Thermal)             CV                S
                      KCal/Mol        Cal/Mol-Kelvin    Cal/Mol-Kelvin
 Total                  175.945             79.086            174.248
 Electronic               0.000              0.000              0.000
 Translational            0.889              2.981             43.586
 Rotational               0.889              2.981             36.752
 Vibrational            174.168             73.124             93.911
 Vibration     1          0.593              1.987             10.020
 Vibration     2          0.593              1.987              7.537
 Vibration     3          0.593              1.986              6.616
 Vibration     4          0.593              1.985              6.129
 Vibration     5          0.594              1.984              5.824
 Vibration     6          0.594              1.983              5.707
 Vibration     7          0.595              1.979              4.927
 Vibration     8          0.597              1.972              4.382
 Vibration     9          0.598              1.968              4.154
 Vibration    10          0.603              1.953              3.548
 Vibration    11          0.605              1.945              3.359
 Vibration    12          0.626              1.878              2.425
 Vibration    13          0.626              1.877              2.418
 Vibration    14          0.638              1.839              2.125
 Vibration    15          0.646              1.815              1.984
 Vibration    16          0.668              1.747              1.666
 Vibration    17          0.670              1.742              1.647
 Vibration    18          0.687              1.689              1.462
 Vibration    19          0.694              1.670              1.407
 Vibration    20          0.709              1.627              1.288
 Vibration    21          0.733              1.559              1.131
 Vibration    22          0.746              1.524              1.060
 Vibration    23          0.756              1.497              1.011
 Vibration    24          0.777              1.441              0.914
 Vibration    25          0.783              1.425              0.890
 Vibration    26          0.783              1.425              0.889
 Vibration    27          0.801              1.380              0.822
 Vibration    28          0.815              1.347              0.777
 Vibration    29          0.885              1.184              0.587
 Vibration    30          0.897              1.157              0.560
 Vibration    31          0.954              1.041              0.457
 Vibration    32          0.971              1.006              0.429

 Optimization completed on the basis of negligible forces.
    -- Stationary point found.
 Normal termination of Gaussian 16 at Sat Aug 22 16:15:37 2020.
 Gaussian 16:  ES64L-G16RevA.03 25-Dec-2016

 ----------------------------------------------------------------------
 # TD(NStates=10, Root=1) B3LYP/6-31G* scf=qc volume pop=NPA density=cu
 rrent Geom=AllCheck Guess=Read
 ----------------------------------------------------------------------

 Structure from the checkpoint file:  "azadicarboxylate_3_conf253.chk"
 -------------------
 Title Card Required
 -------------------
 Charge =  0 Multiplicity = 1

                         Standard orientation:
 ---------------------------------------------------------------------
 Center     Atomic      Atomic             Coordinates (Angstroms)
 Number     Number       Type             X           Y           Z
 ---------------------------------------------------------------------
      1          6           0        4.398697    0.300240   -1.181359
      2          6           0        3.128521    0.136402   -1.971809
      3          8           0        1.957154    0.015529   -1.096291
      4          6           0        1.641014   -1.216846   -0.704486
      5          8           0        2.185090   -2.254529   -0.987624
      6          7           0        0.564051   -1.159736    0.263095
      7          7           0       -0.563881   -1.159853   -0.262237
      8          6           0       -1.640846   -1.216184    0.705391
      9          8           0       -2.184836   -2.253648    0.989491
     10          8           0       -1.957111    0.016530    1.096042
     11          6           0       -3.128428    0.138107    1.971514
     12          6           0       -4.398658    0.301224    1.180997
     13          6           0       -5.158478   -0.815337    0.807066
     14          6           0       -6.330181   -0.665282    0.067125
     15          6           0       -6.741704    0.615559   -0.300641
     16          6           0       -6.003094    1.742905    0.057877
     17          6           0       -4.834067    1.575694    0.797941
     18         17           0       -8.220247    0.814025   -1.229137
     19          6           0        4.833807    1.575013   -0.798970
     20          6           0        6.002747    1.742876   -0.058918
     21          6           0        6.741583    0.615884    0.300254
     22          6           0        6.330368   -0.665245   -0.066853
     23          6           0        5.158740   -0.815953   -0.806782
     24         17           0        8.220026    0.815179    1.228730
     25          1           0        3.160781   -0.741924   -2.618348
     26          1           0        2.907147    1.024139   -2.566037
     27          1           0       -2.907063    1.026352    2.564986
     28          1           0       -3.160632   -0.739673    2.618799
     29          1           0       -4.823902   -1.809171    1.088411
     30          1           0       -6.918796   -1.529721   -0.220542
     31          1           0       -6.340336    2.731317   -0.234962
     32          1           0       -4.255413    2.451395    1.081679
     33          1           0        4.254988    2.450436   -1.083230
     34          1           0        6.339759    2.731519    0.233406
     35          1           0        6.919157   -1.529400    0.221311
     36          1           0        4.824370   -1.810008   -1.087588
 ---------------------------------------------------------------------

 SCF Done:  E(RB3LYP) =  -1947.67342403     a.u. after    1 cycles

 Excitation energies and oscillator strengths:

 Excited State   1:      Singlet-A      2.9472 eV  420.68 nm  f=0.0014  <S**2>=0.000
      92 -> 95         0.43635
      94 -> 95         0.54660
 This state for optimization and/or second-order correction.
 Total Energy, E(TD-HF/TD-DFT) =  -1947.56511491
 Copying the excited state density for this state as the 1-particle RhoCI density.

 Excited State   2:      Singlet-A      4.0866 eV  303.39 nm  f=0.0007  <S**2>=0.000
      93 -> 95         0.70507

 Excited State   3:      Singlet-A      4.1216 eV  300.81 nm  f=0.0245  <S**2>=0.000
      92 -> 95         0.54738
      94 -> 95        -0.44395

 Excited State   4:      Singlet-A      4.5441 eV  272.85 nm  f=0.0004  <S**2>=0.000
      91 -> 95         0.70571

 Excited State   5:      Singlet-A      4.5449 eV  272.80 nm  f=0.0001  <S**2>=0.000
      90 -> 95         0.70511

 Excited State   6:      Singlet-A      5.1739 eV  239.63 nm  f=0.1019  <S**2>=0.000
      87 -> 95        -0.19916
      89 -> 95         0.65530

 Excited State   7:      Singlet-A      5.1997 eV  238.44 nm  f=0.0012  <S**2>=0.000
      86 -> 95        -0.35798
      88 -> 95         0.54951
      92 ->100        -0.10061
      94 -> 96        -0.15743
      94 ->100        -0.11601

 Excited State   8:      Singlet-A      5.2391 eV  236.65 nm  f=0.0001  <S**2>=0.000
      90 -> 97         0.31347
      91 -> 96        -0.31972
      92 -> 98        -0.17922
      93 -> 99         0.35334
      94 -> 98         0.35214

 Excited State   9:      Singlet-A      5.2392 eV  236.65 nm  f=0.0009  <S**2>=0.000
      90 -> 96        -0.31822
      91 -> 97         0.31441
      92 -> 99        -0.17968
      93 -> 98         0.35290
      94 -> 99         0.35094

 Excited State  10:      Singlet-A      5.3977 eV  229.70 nm  f=0.0026  <S**2>=0.000
      84 -> 95         0.20910
      86 -> 95        -0.11907
      88 -> 95         0.19461
      92 -> 96         0.24068
      92 ->100         0.12824
      94 -> 96         0.52714
      94 ->100         0.19088

 The electronic state is 1-A.
 Alpha  occ. eigenvalues -- -101.55532-101.55532 -19.22065 -19.22065 -19.16448
 Alpha  occ. eigenvalues --  -19.16447 -14.43064 -14.43014 -10.36011 -10.36011
 Alpha  occ. eigenvalues --  -10.26891 -10.26891 -10.26462 -10.26462 -10.21813
 Alpha  occ. eigenvalues --  -10.21813 -10.21569 -10.21569 -10.21480 -10.21479
 Alpha  occ. eigenvalues --  -10.21359 -10.21358 -10.21192 -10.21192  -9.47165
 Alpha  occ. eigenvalues --   -9.47165  -7.23561  -7.23561  -7.22594  -7.22594
 Alpha  occ. eigenvalues --   -7.22556  -7.22556  -1.14525  -1.13295  -1.06528
 Alpha  occ. eigenvalues --   -1.04699  -1.04307  -0.90057  -0.90046  -0.85428
 Alpha  occ. eigenvalues --   -0.85259  -0.81449  -0.78491  -0.76993  -0.76990
 Alpha  occ. eigenvalues --   -0.76494  -0.71670  -0.69717  -0.63539  -0.63532
 Alpha  occ. eigenvalues --   -0.62843  -0.60782  -0.59387  -0.57492  -0.56531
 Alpha  occ. eigenvalues --   -0.53317  -0.52890  -0.51636  -0.50827  -0.49353
 Alpha  occ. eigenvalues --   -0.49082  -0.48978  -0.48485  -0.48075  -0.46974
 Alpha  occ. eigenvalues --   -0.45311  -0.44893  -0.44710  -0.44034  -0.43748
 Alpha  occ. eigenvalues --   -0.43004  -0.41152  -0.40969  -0.40356  -0.40279
 Alpha  occ. eigenvalues --   -0.39006  -0.38699  -0.38394  -0.37984  -0.36550
 Alpha  occ. eigenvalues --   -0.36526  -0.34065  -0.34041  -0.32733  -0.32550
 Alpha  occ. eigenvalues --   -0.32005  -0.31937  -0.31740  -0.31671  -0.27329
 Alpha  occ. eigenvalues --   -0.27324  -0.26295  -0.25636  -0.25106
 Alpha virt. eigenvalues --   -0.08803  -0.03401  -0.03271  -0.02336  -0.02336
 Alpha virt. eigenvalues --   -0.00231   0.00032   0.02288   0.02297   0.09544
 Alpha virt. eigenvalues --    0.09727   0.10704   0.10773   0.11841   0.12111

 Mulliken charges:
               1
     1  C    0.151157
     2  C   -0.157191
     3  O   -0.407891
     4  C    0.737788
     5  O   -0.411280
     6  N   -0.244193
     7  N   -0.244196
     8  C    0.737795
     9  O   -0.411272
    10  O   -0.407886
    11  C   -0.157199
    12  C    0.151170
    13  C   -0.172588
    14  C   -0.129107
    15  C   -0.062400
    16  C   -0.128195
    17  C   -0.164982
    18  Cl  -0.013084
    19  C   -0.164971
    20  C   -0.128196
    21  C   -0.062400
    22  C   -0.129108
    23  C   -0.172574
    24  Cl  -0.013083
    25  H    0.187382
    26  H    0.172479
    27  H    0.172477
    28  H    0.187385
    29  H    0.171905
    30  H    0.163952
    31  H    0.161027
    32  H    0.145200
    33  H    0.145203
    34  H    0.161028
    35  H    0.163952
    36  H    0.171895
 Sum of Mulliken charges =   0.00000

 Dipole moment (field-independent basis, Debye):
    X=              0.0001    Y=              3.3704    Z=             -0.0016  Tot=              3.3704
 Quadrupole moment (field-independent basis, Debye-Ang):
   XX=           -158.1938   YY=           -147.6740   ZZ=           -143.4987
   XY=             -0.0068   XZ=            -14.5849   YZ=              0.0043

 Summary of Natural Population Analysis:

                                       Natural Population
                Natural  -----------------------------------------------
    Atom  No    Charge         Core      Valence    Rydberg      Total
 -----------------------------------------------------------------------
      C    1   -0.09416      1.99901     4.08076    0.01440     6.09416
      C    2   -0.12675      1.99913     4.10846    0.01917     6.12675
      O    3   -0.52180      1.99973     6.50974    0.01233     8.52180
      C    4    0.92530      1.99951     3.02460    0.05060     5.07470
      O    5   -0.54596      1.99977     6.52546    0.02074     8.54596
      N    6   -0.22450      1.99938     5.19872    0.02640     7.22450
      N    7   -0.22450      1.99938     5.19872    0.02640     7.22450
      C    8    0.92530      1.99951     3.02459    0.05060     5.07470
      O    9   -0.54595      1.99977     6.52545    0.02074     8.54595
      O   10   -0.52180      1.99973     6.50974    0.01233     8.52180
      C   11   -0.12675      1.99913     4.10846    0.01917     6.12675
      C   12   -0.09416      1.99901     4.08076    0.01440     6.09416
      C   13   -0.19889      1.99903     4.18651    0.01334     6.19889
      C   14   -0.24185      1.99894     4.22797    0.01495     6.24185
      C   15   -0.03540      1.99856     4.01507    0.02178     6.03540
      C   16   -0.24351      1.99893     4.22966    0.01491     6.24351
      C   17   -0.19946      1.99903     4.18734    0.01309     6.19946
     Cl   18    0.00333      9.99967     6.97770    0.01930    16.99667
      C   19   -0.19946      1.99903     4.18734    0.01309     6.19946
      C   20   -0.24351      1.99893     4.22966    0.01491     6.24351
      C   21   -0.03540      1.99856     4.01507    0.02178     6.03540
      C   22   -0.24186      1.99894     4.22797    0.01495     6.24186
      C   23   -0.19888      1.99903     4.18650    0.01334     6.19888
     Cl   24    0.00333      9.99967     6.97770    0.01930    16.99667
      H   25    0.24451      0.00000     0.75338    0.00211     0.75549
      H   26    0.24272      0.00000     0.75613    0.00115     0.75728
      H   27    0.24272      0.00000     0.75613    0.00115     0.75728
      H   28    0.24451      0.00000     0.75338    0.00211     0.75549
      H   29    0.25867      0.00000     0.73996    0.00137     0.74133
      H   30    0.25784      0.00000     0.74116    0.00100     0.74216
      H   31    0.25642      0.00000     0.74256    0.00102     0.74358
      H   32    0.24350      0.00000     0.75550    0.00101     0.75650
      H   33    0.24350      0.00000     0.75549    0.00101     0.75650
      H   34    0.25642      0.00000     0.74256    0.00102     0.74358
      H   35    0.25784      0.00000     0.74116    0.00100     0.74216
      H   36    0.25867      0.00000     0.73996    0.00137     0.74133
 =======================================================================
   * Total *   -0.00000     63.98136   123.52133    0.49731   188.00000

 Normal termination of Gaussian 16 at Sat Aug 22 16:26:53 2020.
