 Gaussian 16, Revision A.03,

 ---------------------------------
 # opt=CalcAll B3LYP/6-31G* scf=qc
 ---------------------------------

 -------------------
 Title Card Required
 -------------------
 Symbolic Z-matrix:
 Charge =  0 Multiplicity = 1

 SCF Done:  E(RB3LYP) =  -723.592778544     a.u. after    9 cycles
 SCF Done:  E(RB3LYP) =  -723.605826777     a.u. after   15 cycles
 SCF Done:  E(RB3LYP) =  -723.639132048     a.u. after   17 cycles
 SCF Done:  E(RB3LYP) =  -723.644574911     a.u. after   25 cycles
 SCF Done:  E(RB3LYP) =  -723.648598169     a.u. after   13 cycles
 SCF Done:  E(RB3LYP) =  -723.649192166     a.u. after   15 cycles
 SCF Done:  E(RB3LYP) =  -723.649296269     a.u. after   21 cycles
 SCF Done:  E(RB3LYP) =  -723.649342980     a.u. after   11 cycles
 SCF Done:  E(RB3LYP) =  -723.649357510     a.u. after   15 cycles
 SCF Done:  E(RB3LYP) =  -723.649370934     a.u. after    9 cycles
 SCF Done:  E(RB3LYP) =  -723.649371601     a.u. after    7 cycles
 SCF Done:  E(RB3LYP) =  -723.649371982     a.u. after    4 cycles
 SCF Done:  E(RB3LYP) =  -723.649371962     a.u. after    2 cycles
 Optimization completed.
    -- Stationary point found.
 Normal termination of Gaussian 16 at Sat Aug 22 14:14:08 2020.

 ----------------------------------------------------------------------
 # freq B3LYP/6-31G* scf=qc volume NMR pop=NPA density=current Geom=All
 Check Guess=Read
 ----------------------------------------------------------------------

 Structure from the checkpoint file:  "azadicarboxylate_2_conf122.chk"
 -------------------
 Title Card Required
 -------------------
 Charge =  0 Multiplicity = 1

 SCF Done:  E(RB3LYP) =  -723.649371962     a.u. after    1 cycles

      1  C    Isotropic =   169.0177   Anisotropy =    30.5598

      2  C    Isotropic =   118.5380   Anisotropy =    64.7625

      3  C    Isotropic =   168.2791   Anisotropy =    30.3497

      4  O    Isotropic =   134.3808   Anisotropy =   116.3274

      5  C    Isotropic =    34.8096   Anisotropy =    78.2995

      6  O    Isotropic =   -19.5868   Anisotropy =   496.7861

      7  N    Isotropic =  -319.1287   Anisotropy =   668.8304

      8  N    Isotropic =  -321.7640   Anisotropy =   671.2584

      9  C    Isotropic =    35.3259   Anisotropy =    79.1934

     10  O    Isotropic =   -27.2014   Anisotropy =   484.0279

     11  O    Isotropic =   138.4089   Anisotropy =   143.0835

     12  C    Isotropic =   113.3733   Anisotropy =    72.2722

     13  C    Isotropic =   170.6359   Anisotropy =    27.5263

     14  C    Isotropic =   169.6167   Anisotropy =    27.7813

     15  H    Isotropic =    31.1412   Anisotropy =     8.6002

     16  H    Isotropic =    30.9769   Anisotropy =     6.6318

     17  H    Isotropic =    30.1997   Anisotropy =     7.3533

     18  H    Isotropic =    26.9538   Anisotropy =     2.5225

     19  H    Isotropic =    30.7918   Anisotropy =     6.4950

     20  H    Isotropic =    31.1356   Anisotropy =     8.4711

     21  H    Isotropic =    30.7468   Anisotropy =     8.6918

     22  H    Isotropic =    27.6279   Anisotropy =     4.5126

     23  H    Isotropic =    29.6216   Anisotropy =     5.5577

     24  H    Isotropic =    30.6333   Anisotropy =     8.1791

     25  H    Isotropic =    31.1577   Anisotropy =     8.3775

     26  H    Isotropic =    29.7712   Anisotropy =     5.2622

     27  H    Isotropic =    31.1997   Anisotropy =     8.5140

     28  H    Isotropic =    30.6863   Anisotropy =     8.1295

  Exact polarizability: 154.144   3.460  98.030  -0.355   2.463  86.134
 Approx polarizability: 169.475  11.711 159.089   1.732  15.846 129.958

                      1                      2                      3
                      A                      A                      A
 Frequencies --     10.8578                36.8568                49.7239
 Red. masses --      4.2640                 3.2220                 4.9647
 Frc consts  --      0.0003                 0.0026                 0.0072
 IR Inten    --      2.6572                 0.9569                 1.8896

                      4                      5                      6
                      A                      A                      A
 Frequencies --     55.8138                59.0431                82.0438
 Red. masses --      4.5680                 6.1298                 4.9675
 Frc consts  --      0.0084                 0.0126                 0.0197
 IR Inten    --      0.7135                 0.4072                 0.5433

                      7                      8                      9
                      A                      A                      A
 Frequencies --    111.0359               188.0761               199.2516
 Red. masses --      3.5241                 3.9706                 4.9935
 Frc consts  --      0.0256                 0.0828                 0.1168
 IR Inten    --      0.2867                 0.7204                 3.0425

                     10                     11                     12
                      A                      A                      A
 Frequencies --    203.7131               221.8830               227.1377
 Red. masses --      5.6857                 1.1710                 2.9218
 Frc consts  --      0.1390                 0.0340                 0.0888
 IR Inten    --      2.0471                 1.6604                15.6462

                     13                     14                     15
                      A                      A                      A
 Frequencies --    231.6158               250.3098               264.6536
 Red. masses --      1.0979                 1.0576                 1.2967
 Frc consts  --      0.0347                 0.0390                 0.0535
 IR Inten    --      0.2326                 0.0217                 4.0087

                     16                     17                     18
                      A                      A                      A
 Frequencies --    330.8996               344.3400               413.1794
 Red. masses --      2.6697                 2.9431                 3.2618
 Frc consts  --      0.1722                 0.2056                 0.3281
 IR Inten    --      0.0645                 2.8300                 4.0171

                     19                     20                     21
                      A                      A                      A
 Frequencies --    421.8838               432.9780               455.1276
 Red. masses --      3.7732                 5.8883                 2.8482
 Frc consts  --      0.3957                 0.6504                 0.3476
 IR Inten    --      9.4556                 0.5230                 1.4215

                     22                     23                     24
                      A                      A                      A
 Frequencies --    484.8860               569.4382               609.6362
 Red. masses --      2.8338                 4.9457                 7.6979
 Frc consts  --      0.3925                 0.9449                 1.6856
 IR Inten    --      7.4468                 7.4652                 3.1251

                     25                     26                     27
                      A                      A                      A
 Frequencies --    661.5031               795.0080               815.5440
 Red. masses --      7.6048                 4.5581                12.0829
 Frc consts  --      1.9607                 1.6974                 4.7350
 IR Inten    --     12.8447                 9.4525                32.7660

                     28                     29                     30
                      A                      A                      A
 Frequencies --    833.2229               860.6474               909.7914
 Red. masses --      3.7077                 6.2411                 3.4476
 Frc consts  --      1.5166                 2.7237                 1.6813
 IR Inten    --     20.4591                 2.6926                57.3148

                     31                     32                     33
                      A                      A                      A
 Frequencies --    916.7128               950.3711               950.9549
 Red. masses --      3.0106                 1.2825                 1.2519
 Frc consts  --      1.4906                 0.6825                 0.6670
 IR Inten    --      3.1149                 1.3634                 0.6380

                     34                     35                     36
                      A                      A                      A
 Frequencies --    957.4816               962.0928               972.9174
 Red. masses --      1.3107                 1.3852                 4.7013
 Frc consts  --      0.7080                 0.7554                 2.6219
 IR Inten    --      0.4958                 4.9304                16.5850

                     37                     38                     39
                      A                      A                      A
 Frequencies --   1000.6374              1144.0689              1168.1627
 Red. masses --      8.5188                 1.8274                 1.9220
 Frc consts  --      5.0255                 1.4093                 1.5453
 IR Inten    --      6.7822               241.2660               114.3651

                     40                     41                     42
                      A                      A                      A
 Frequencies --   1171.9645              1175.4139              1218.3589
 Red. masses --      2.1506                 2.0366                 1.9564
 Frc consts  --      1.7404                 1.6578                 1.7110
 IR Inten    --     13.3933                 9.5308                40.9743

                     43                     44                     45
                      A                      A                      A
 Frequencies --   1219.1631              1261.4147              1280.1675
 Red. masses --      1.9299                 5.3315                 6.5456
 Frc consts  --      1.6901                 4.9982                 6.3202
 IR Inten    --      4.9400              1092.3249               175.8699

                     46                     47                     48
                      A                      A                      A
 Frequencies --   1384.8225              1391.6359              1397.6747
 Red. masses --      1.4080                 1.3203                 1.2536
 Frc consts  --      1.5909                 1.5065                 1.4429
 IR Inten    --     11.4336                 3.1542                 4.8812

                     49                     50                     51
                      A                      A                      A
 Frequencies --   1420.5414              1430.6029              1433.9722
 Red. masses --      1.3031                 1.3279                 1.3432
 Frc consts  --      1.5493                 1.6012                 1.6273
 IR Inten    --     22.0192                18.5726                19.3863

                     52                     53                     54
                      A                      A                      A
 Frequencies --   1444.8482              1448.8531              1511.3325
 Red. masses --      1.2415                 1.2569                 1.0483
 Frc consts  --      1.5270                 1.5545                 1.4107
 IR Inten    --     17.7647                 6.6463                 0.1355

                     55                     56                     57
                      A                      A                      A
 Frequencies --   1511.8445              1516.5197              1522.3404
 Red. masses --      1.0540                 1.0443                 1.0469
 Frc consts  --      1.4194                 1.4150                 1.4295
 IR Inten    --      1.8331                 1.2105                17.2220

                     58                     59                     60
                      A                      A                      A
 Frequencies --   1525.6391              1526.7094              1539.7965
 Red. masses --      1.0505                 1.0484                 1.0495
 Frc consts  --      1.4406                 1.4397                 1.4661
 IR Inten    --      3.8514                 0.0618                 9.7172

                     61                     62                     63
                      A                      A                      A
 Frequencies --   1546.7080              1651.0487              1832.9862
 Red. masses --      1.0539                13.9730                12.3473
 Frc consts  --      1.4855                22.4419                24.4422
 IR Inten    --      7.3236                 0.0499                 0.2937

                     64                     65                     66
                      A                      A                      A
 Frequencies --   1847.1477              3058.5198              3062.5007
 Red. masses --     12.3392                 1.0354                 1.0373
 Frc consts  --     24.8052                 5.7066                 5.7321
 IR Inten    --    542.7607                10.6458                15.8041

                     67                     68                     69
                      A                      A                      A
 Frequencies --   3063.0891              3066.6459              3097.2428
 Red. masses --      1.0359                 1.0381                 1.0868
 Frc consts  --      5.7263                 5.7519                 6.1424
 IR Inten    --     15.5060                11.1062                18.7119

                     70                     71                     72
                      A                      A                      A
 Frequencies --   3102.1867              3126.7869              3127.5344
 Red. masses --      1.0879                 1.1029                 1.1016
 Frc consts  --      6.1685                 6.3529                 6.3485
 IR Inten    --      1.2679                 2.1427                11.9454

                     73                     74                     75
                      A                      A                      A
 Frequencies --   3130.3536              3136.5122              3141.2888
 Red. masses --      1.1019                 1.1014                 1.1028
 Frc consts  --      6.3620                 6.3840                 6.4117
 IR Inten    --     32.0066                41.0267                19.3654

                     76                     77                     78
                      A                      A                      A
 Frequencies --   3146.8176              3161.5854              3166.3279
 Red. masses --      1.1027                 1.1022                 1.1011
 Frc consts  --      6.4338                 6.4914                 6.5041
 IR Inten    --     17.9765                 1.9519                20.6284

 - Thermochemistry -
 -------------------
 Temperature   298.150 Kelvin.  Pressure   1.00000 Atm.
 Atom     1 has atomic number  6 and mass  12.00000

 Molecular mass:   202.09536 amu.
 Principal axes and moments of inertia in atomic units:
                           1         2         3
     Eigenvalues --   942.377807414.459557722.99252
           X            0.99997  -0.00742  -0.00179
           Y            0.00723   0.99574  -0.09197
           Z            0.00246   0.09195   0.99576
 This molecule is an asymmetric top.
 Rotational symmetry number  1.
 Warning -- assumption of classical behavior for rotation
           may cause significant error
 Rotational temperatures (Kelvin)      0.09191     0.01168     0.01122
 Rotational constants (GHZ):           1.91509     0.24341     0.23368
 Zero-point vibrational energy     597848.1 (Joules/Mol)
                                  142.88913 (Kcal/Mol)
 Warning -- explicit consideration of  24 degrees of freedom as
           vibrations may cause significant error
 Vibrational temperatures:     15.62    53.03    71.54    80.30    84.95
          (Kelvin)            118.04   159.76   270.60   286.68   293.10
                              319.24   326.80   333.24   360.14   380.78
                              476.09   495.43   594.47   607.00   622.96
                              654.83   697.64   819.29   877.13   951.76
                             1143.84  1173.39  1198.82  1238.28  1308.99
                             1318.95  1367.37  1368.21  1377.60  1384.24
                             1399.81  1439.69  1646.06  1680.73  1686.20
                             1691.16  1752.95  1754.10  1814.89  1841.88
                             1992.45  2002.25  2010.94  2043.84  2058.32
                             2063.17  2078.81  2084.58  2174.47  2175.21
                             2181.93  2190.31  2195.05  2196.59  2215.42
                             2225.37  2375.49  2637.26  2657.63  4400.53
                             4406.26  4407.10  4412.22  4456.24  4463.35
                             4498.75  4499.82  4503.88  4512.74  4519.61
                             4527.57  4548.82  4555.64

 Zero-point correction=                           0.227708 (Hartree/Particle)
 Thermal correction to Energy=                    0.243930
 Thermal correction to Enthalpy=                  0.244875
 Thermal correction to Gibbs Free Energy=         0.181161
 Sum of electronic and zero-point Energies=           -723.421664
 Sum of electronic and thermal Energies=              -723.405441
 Sum of electronic and thermal Enthalpies=            -723.404497
 Sum of electronic and thermal Free Energies=         -723.468211

                     E (Thermal)             CV                S
                      KCal/Mol        Cal/Mol-Kelvin    Cal/Mol-Kelvin
 Total                  153.069             56.265            134.097
 Electronic               0.000              0.000              0.000
 Translational            0.889              2.981             41.815
 Rotational               0.889              2.981             32.356
 Vibrational            151.291             50.303             59.925
 Vibration     1          0.593              1.987              7.848
 Vibration     2          0.594              1.982              5.421
 Vibration     3          0.595              1.978              4.828
 Vibration     4          0.596              1.975              4.600
 Vibration     5          0.596              1.974              4.489
 Vibration     6          0.600              1.961              3.841
 Vibration     7          0.607              1.940              3.251
 Vibration     8          0.633              1.856              2.247
 Vibration     9          0.637              1.841              2.140
 Vibration    10          0.639              1.835              2.099
 Vibration    11          0.648              1.808              1.944
 Vibration    12          0.651              1.800              1.901
 Vibration    13          0.653              1.793              1.866
 Vibration    14          0.663              1.762              1.728
 Vibration    15          0.671              1.738              1.631
 Vibration    16          0.713              1.614              1.256
 Vibration    17          0.723              1.587              1.192
 Vibration    18          0.777              1.442              0.915
 Vibration    19          0.784              1.423              0.886
 Vibration    20          0.794              1.398              0.849
 Vibration    21          0.813              1.350              0.780
 Vibration    22          0.841              1.284              0.697
 Vibration    23          0.925              1.097              0.505
 Vibration    24          0.969              1.011              0.433

 Optimization completed.
    -- Stationary point found.
 Normal termination of Gaussian 16 at Sat Aug 22 14:18:46 2020.
 Gaussian 16:  ES64L-G16RevA.03 25-Dec-2016

 ----------------------------------------------------------------------
 # TD(NStates=10, Root=1) B3LYP/6-31G* scf=qc volume pop=NPA density=cu
 rrent Geom=AllCheck Guess=Read
 ----------------------------------------------------------------------

 Structure from the checkpoint file:  "azadicarboxylate_2_conf123.chk"
 -------------------
 Title Card Required
 -------------------
 Charge =  0 Multiplicity = 1

                         Standard orientation:
 ---------------------------------------------------------------------
 Center     Atomic      Atomic             Coordinates (Angstroms)
 Number     Number       Type             X           Y           Z
 ---------------------------------------------------------------------
      1          6           0       -4.543703   -0.688814    0.890944
      2          6           0       -3.870956    0.185804   -0.159636
      3          6           0       -4.375171    1.620172   -0.186995
      4          8           0       -2.434730    0.278942    0.141690
      5          6           0       -1.663931   -0.714939   -0.288206
      6          8           0       -1.984706   -1.698990   -0.907633
      7          7           0       -0.306649   -0.543044    0.193006
      8          7           0        0.338725    0.294791   -0.464627
      9          6           0        1.696183    0.470326    0.021644
     10          8           0        1.994441    1.446415    0.665155
     11          8           0        2.466825   -0.505849   -0.439954
     12          6           0        3.918961   -0.481492   -0.184356
     13          6           0        4.575665    0.719839   -0.856148
     14          6           0        4.213769   -0.616769    1.305673
     15          1           0       -5.618630   -0.752176    0.688462
     16          1           0       -4.405180   -0.265577    1.891726
     17          1           0       -4.133672   -1.702440    0.872688
     18          1           0       -3.959558   -0.277195   -1.146190
     19          1           0       -4.244642    2.096864    0.790328
     20          1           0       -5.441029    1.633433   -0.438773
     21          1           0       -3.834912    2.208765   -0.934493
     22          1           0        4.229039   -1.395803   -0.697730
     23          1           0        4.293499    1.654267   -0.366334
     24          1           0        4.293939    0.771657   -1.912866
     25          1           0        5.664564    0.610506   -0.800405
     26          1           0        3.925603    0.284234    1.851511
     27          1           0        5.287816   -0.783227    1.445583
     28          1           0        3.679089   -1.474446    1.726259
 ---------------------------------------------------------------------

 SCF Done:  E(RB3LYP) =  -723.649371962     a.u. after    1 cycles

 Excitation energies and oscillator strengths:

 Excited State   1:      Singlet-A      2.9530 eV  419.86 nm  f=0.0000  <S**2>=0.000
      54 -> 55         0.70060
 This state for optimization and/or second-order correction.
 Total Energy, E(TD-HF/TD-DFT) =  -723.540852555
 Copying the excited state density for this state as the 1-particle RhoCI density.

 Excited State   2:      Singlet-A      4.9885 eV  248.54 nm  f=0.0751  <S**2>=0.000
      53 -> 55         0.68736

 Excited State   3:      Singlet-A      5.1515 eV  240.68 nm  f=0.0041  <S**2>=0.000
      50 -> 55        -0.10424
      51 -> 55        -0.20153
      52 -> 55         0.64703
      53 -> 55         0.10002

 Excited State   4:      Singlet-A      5.3848 eV  230.25 nm  f=0.0158  <S**2>=0.000
      50 -> 55         0.17241
      51 -> 55         0.64151
      52 -> 55         0.22646

 Excited State   5:      Singlet-A      5.4184 eV  228.82 nm  f=0.0038  <S**2>=0.000
      50 -> 55         0.67264
      51 -> 55        -0.19772

 Excited State   6:      Singlet-A      5.6446 eV  219.65 nm  f=0.0054  <S**2>=0.000
      53 -> 56         0.16173
      54 -> 56         0.65539
      54 -> 57         0.14435

 Excited State   7:      Singlet-A      5.7306 eV  216.35 nm  f=0.0111  <S**2>=0.000
      53 -> 57        -0.13658
      54 -> 56        -0.14301
      54 -> 57         0.65919

 Excited State   8:      Singlet-A      6.4910 eV  191.01 nm  f=0.0003  <S**2>=0.000
      48 -> 55        -0.18492
      49 -> 55         0.66524

 Excited State   9:      Singlet-A      6.5960 eV  187.97 nm  f=0.0003  <S**2>=0.000
      45 -> 55        -0.18480
      48 -> 55         0.63536
      49 -> 55         0.18838

 Excited State  10:      Singlet-A      6.7025 eV  184.98 nm  f=0.0129  <S**2>=0.000
      52 -> 56        -0.22777
      52 -> 57        -0.15592
      53 -> 56         0.57621
      53 -> 57         0.13222
      54 -> 56        -0.16934
      54 -> 57        -0.10302

 The electronic state is 1-A.
 Alpha  occ. eigenvalues --  -19.20771 -19.20710 -19.15319 -19.15273 -14.41920
 Alpha  occ. eigenvalues --  -14.41866 -10.35021 -10.34878 -10.26492 -10.26078
 Alpha  occ. eigenvalues --  -10.19027 -10.18883 -10.18827 -10.18750  -1.13362
 Alpha  occ. eigenvalues --   -1.12084  -1.05259  -1.03662  -1.03222  -0.82214
 Alpha  occ. eigenvalues --   -0.80498  -0.76390  -0.70485  -0.70392  -0.66494
 Alpha  occ. eigenvalues --   -0.63256  -0.57871  -0.56252  -0.52257  -0.50830
 Alpha  occ. eigenvalues --   -0.49980  -0.48481  -0.47597  -0.46572  -0.46403
 Alpha  occ. eigenvalues --   -0.44291  -0.43058  -0.41880  -0.41437  -0.41312
 Alpha  occ. eigenvalues --   -0.40341  -0.39601  -0.39215  -0.38197  -0.37400
 Alpha  occ. eigenvalues --   -0.36909  -0.36474  -0.35354  -0.34794  -0.31456
 Alpha  occ. eigenvalues --   -0.31349  -0.30979  -0.29586  -0.24700
 Alpha virt. eigenvalues --   -0.07867   0.00789   0.01111   0.08676   0.08861
 Alpha virt. eigenvalues --    0.10471   0.10782   0.13325   0.13808   0.14536
 Alpha virt. eigenvalues --    0.14812   0.15686   0.16574   0.16989   0.17339

 Mulliken charges:
               1
     1  C   -0.460019
     2  C    0.117091
     3  C   -0.454168
     4  O   -0.423040
     5  C    0.734673
     6  O   -0.420959
     7  N   -0.244253
     8  N   -0.238089
     9  C    0.735521
    10  O   -0.419348
    11  O   -0.430649
    12  C    0.130022
    13  C   -0.472043
    14  C   -0.470696
    15  H    0.155040
    16  H    0.160763
    17  H    0.176225
    18  H    0.168307
    19  H    0.163964
    20  H    0.154027
    21  H    0.167253
    22  H    0.159370
    23  H    0.187306
    24  H    0.163785
    25  H    0.154887
    26  H    0.187080
    27  H    0.152907
    28  H    0.165043
 Sum of Mulliken charges =  -0.00000

 Dipole moment (field-independent basis, Debye):
    X=              0.2272    Y=              0.2144    Z=              0.1663  Tot=              0.3539
 Quadrupole moment (field-independent basis, Debye-Ang):
   XX=            -51.9347   YY=            -88.4192   ZZ=            -82.8094
   XY=             -7.0603   XZ=             -2.4803   YZ=             -4.9195

 Summary of Natural Population Analysis:

                                       Natural Population
                Natural  -----------------------------------------------
    Atom  No    Charge         Core      Valence    Rydberg      Total
 -----------------------------------------------------------------------
      C    1   -0.70450      1.99939     4.69658    0.00853     6.70450
      C    2    0.08284      1.99912     3.90061    0.01743     5.91716
      C    3   -0.69629      1.99939     4.68781    0.00908     6.69629
      O    4   -0.53683      1.99971     6.52435    0.01276     8.53683
      C    5    0.92001      1.99950     3.02946    0.05103     5.07999
      O    6   -0.55060      1.99977     6.53024    0.02059     8.55060
      N    7   -0.22032      1.99938     5.19467    0.02627     7.22032
      N    8   -0.21768      1.99939     5.19183    0.02646     7.21768
      C    9    0.91859      1.99951     3.02957    0.05233     5.08141
      O   10   -0.55065      1.99977     6.53047    0.02041     8.55065
      O   11   -0.53082      1.99972     6.51906    0.01205     8.53082
      C   12    0.08539      1.99912     3.89724    0.01826     5.91461
      C   13   -0.71053      1.99939     4.70303    0.00811     6.71053
      C   14   -0.70946      1.99939     4.70210    0.00797     6.70946
      H   15    0.24183      0.00000     0.75744    0.00073     0.75817
      H   16    0.23700      0.00000     0.76163    0.00136     0.76300
      H   17    0.24998      0.00000     0.74889    0.00113     0.75002
      H   18    0.24379      0.00000     0.75353    0.00268     0.75621
      H   19    0.23941      0.00000     0.75931    0.00128     0.76059
      H   20    0.24059      0.00000     0.75875    0.00067     0.75941
      H   21    0.24670      0.00000     0.75234    0.00097     0.75330
      H   22    0.24669      0.00000     0.75164    0.00167     0.75331
      H   23    0.25185      0.00000     0.74667    0.00147     0.74815
      H   24    0.24339      0.00000     0.75556    0.00105     0.75661
      H   25    0.24259      0.00000     0.75668    0.00072     0.75741
      H   26    0.25199      0.00000     0.74664    0.00136     0.74801
      H   27    0.24090      0.00000     0.75836    0.00074     0.75910
      H   28    0.24415      0.00000     0.75479    0.00106     0.75585
 =======================================================================
   * Total *   -0.00000     27.99257    79.69926    0.30818   108.00000

 Normal termination of Gaussian 16 at Sat Aug 22 14:24:19 2020.
