 Gaussian 16, Revision A.03,

 ---------------------------------
 # opt=CalcAll B3LYP/6-31G* scf=qc
 ---------------------------------

 -------------------
 Title Card Required
 -------------------
 Symbolic Z-matrix:
 Charge =  0 Multiplicity = 1

 SCF Done:  E(RB3LYP) =  -723.562472781     a.u. after   11 cycles
 SCF Done:  E(RB3LYP) =  -723.583041947     a.u. after   15 cycles
 SCF Done:  E(RB3LYP) =  -723.597423763     a.u. after   15 cycles
 SCF Done:  E(RB3LYP) =  -723.632178569     a.u. after   15 cycles
 SCF Done:  E(RB3LYP) =  -723.643082543     a.u. after   21 cycles
 SCF Done:  E(RB3LYP) =  -723.645429927     a.u. after   17 cycles
 SCF Done:  E(RB3LYP) =  -723.645724482     a.u. after   15 cycles
 SCF Done:  E(RB3LYP) =  -723.645733092     a.u. after    7 cycles
 SCF Done:  E(RB3LYP) =  -723.645733443     a.u. after    4 cycles
 SCF Done:  E(RB3LYP) =  -723.645733469     a.u. after    3 cycles
 Optimization completed.
    -- Stationary point found.
 Normal termination of Gaussian 16 at Sat Aug 22 14:05:56 2020.

 ----------------------------------------------------------------------
 # freq B3LYP/6-31G* scf=qc volume NMR pop=NPA density=current Geom=All
 Check Guess=Read
 ----------------------------------------------------------------------

 Structure from the checkpoint file:  "azadicarboxylate_2_conf272.chk"
 -------------------
 Title Card Required
 -------------------
 Charge =  0 Multiplicity = 1

 SCF Done:  E(RB3LYP) =  -723.645733469     a.u. after    1 cycles

      1  C    Isotropic =   169.6088   Anisotropy =    27.8532

      2  C    Isotropic =   113.4273   Anisotropy =    72.0323

      3  C    Isotropic =   170.6318   Anisotropy =    27.5400

      4  O    Isotropic =   139.6108   Anisotropy =   141.0422

      5  C    Isotropic =    35.4627   Anisotropy =    80.3049

      6  O    Isotropic =   -27.4318   Anisotropy =   483.6927

      7  N    Isotropic =  -318.0642   Anisotropy =   663.4209

      8  N    Isotropic =  -318.0740   Anisotropy =   663.4268

      9  C    Isotropic =    35.4619   Anisotropy =    80.2870

     10  O    Isotropic =   -27.4309   Anisotropy =   483.6720

     11  O    Isotropic =   139.6106   Anisotropy =   141.0598

     12  C    Isotropic =   113.4265   Anisotropy =    72.0322

     13  C    Isotropic =   169.6081   Anisotropy =    27.8530

     14  C    Isotropic =   170.6313   Anisotropy =    27.5409

     15  H    Isotropic =    31.2054   Anisotropy =     8.5159

     16  H    Isotropic =    29.7442   Anisotropy =     5.3579

     17  H    Isotropic =    30.7058   Anisotropy =     8.1156

     18  H    Isotropic =    27.6556   Anisotropy =     4.3235

     19  H    Isotropic =    29.6056   Anisotropy =     5.5885

     20  H    Isotropic =    31.1616   Anisotropy =     8.3637

     21  H    Isotropic =    30.6471   Anisotropy =     8.1621

     22  H    Isotropic =    27.6555   Anisotropy =     4.3235

     23  H    Isotropic =    29.7441   Anisotropy =     5.3580

     24  H    Isotropic =    30.7058   Anisotropy =     8.1155

     25  H    Isotropic =    31.2053   Anisotropy =     8.5158

     26  H    Isotropic =    29.6055   Anisotropy =     5.5882

     27  H    Isotropic =    31.1616   Anisotropy =     8.3637

     28  H    Isotropic =    30.6471   Anisotropy =     8.1622

  Exact polarizability: 152.665  -0.005  94.195  -3.104  -0.004  89.530
 Approx polarizability: 173.850  -0.014 156.800  -9.049  -0.030 126.743

                      1                      2                      3
                      A                      A                      A
 Frequencies --     12.0497                32.2600                48.6527
 Red. masses --      4.0076                 3.7881                 4.7271
 Frc consts  --      0.0003                 0.0023                 0.0066
 IR Inten    --      0.0522                 1.2415                 1.1400

                      4                      5                      6
                      A                      A                      A
 Frequencies --     55.3773                61.3560               110.9128
 Red. masses --      6.9962                 4.7786                 3.6606
 Frc consts  --      0.0126                 0.0106                 0.0265
 IR Inten    --      0.6164                 0.0957                 0.6636

                      7                      8                      9
                      A                      A                      A
 Frequencies --    112.4204               179.6613               195.6957
 Red. masses --      3.4041                 3.9438                 6.9279
 Frc consts  --      0.0253                 0.0750                 0.1563
 IR Inten    --      0.0040                 1.1627                 5.7763

                     10                     11                     12
                      A                      A                      A
 Frequencies --    208.0938               231.7491               231.8475
 Red. masses --      5.7074                 1.0936                 1.0973
 Frc consts  --      0.1456                 0.0346                 0.0348
 IR Inten    --      4.5915                 0.0042                 0.1552

                     13                     14                     15
                      A                      A                      A
 Frequencies --    246.5718               250.4406               251.3777
 Red. masses --      6.0949                 1.0597                 1.1230
 Frc consts  --      0.2183                 0.0392                 0.0418
 IR Inten    --      4.5705                 0.0425                 0.5019

                     16                     17                     18
                      A                      A                      A
 Frequencies --    313.3422               358.0069               407.6240
 Red. masses --      3.2517                 2.4625                 3.4738
 Frc consts  --      0.1881                 0.1860                 0.3401
 IR Inten    --      1.4391                 1.1051                13.6438

                     19                     20                     21
                      A                      A                      A
 Frequencies --    414.9841               430.1664               474.5822
 Red. masses --      3.6022                 3.7988                 3.5302
 Frc consts  --      0.3655                 0.4142                 0.4685
 IR Inten    --      0.6279                11.6022                29.5208

                     22                     23                     24
                      A                      A                      A
 Frequencies --    483.9115               573.7178               619.8436
 Red. masses --      2.9626                 9.1448                 5.6850
 Frc consts  --      0.4088                 1.7735                 1.2869
 IR Inten    --      0.3696                 1.2635                 1.0344

                     25                     26                     27
                      A                      A                      A
 Frequencies --    654.6640               791.5128               809.2806
 Red. masses --      4.3844                 5.7786                 4.6148
 Frc consts  --      1.1071                 2.1330                 1.7807
 IR Inten    --      3.5544                39.1173                 1.1183

                     28                     29                     30
                      A                      A                      A
 Frequencies --    815.1194               856.3905               907.0959
 Red. masses --     10.8551                 6.4116                 3.2343
 Frc consts  --      4.2494                 2.7705                 1.5680
 IR Inten    --     32.1415                 0.9081                41.4069

                     31                     32                     33
                      A                      A                      A
 Frequencies --    923.3776               950.0063               950.0592
 Red. masses --      3.2784                 1.2760                 1.2761
 Frc consts  --      1.6469                 0.6785                 0.6786
 IR Inten    --      0.1675                 0.0391                 2.6725

                     34                     35                     36
                      A                      A                      A
 Frequencies --    957.2061               957.3500               962.0428
 Red. masses --      1.3409                 1.3177                 4.0784
 Frc consts  --      0.7239                 0.7116                 2.2240
 IR Inten    --      1.1781                 0.0355                 4.2527

                     37                     38                     39
                      A                      A                      A
 Frequencies --    989.2938              1166.5222              1169.4701
 Red. masses --      6.7924                 1.9929                 1.9120
 Frc consts  --      3.9168                 1.5978                 1.5407
 IR Inten    --     10.2330               275.5280                32.4253

                     40                     41                     42
                      A                      A                      A
 Frequencies --   1171.6481              1171.8459              1218.7867
 Red. masses --      2.1536                 2.1275                 1.9282
 Frc consts  --      1.7418                 1.7213                 1.6875
 IR Inten    --     23.3698                 2.2936                 8.5988

                     43                     44                     45
                      A                      A                      A
 Frequencies --   1219.0755              1237.1791              1283.1385
 Red. masses --      1.9358                 5.6133                 5.4743
 Frc consts  --      1.6950                 5.0622                 5.3104
 IR Inten    --      7.1935              1121.6780               205.6364

                     46                     47                     48
                      A                      A                      A
 Frequencies --   1391.4234              1391.4478              1419.4823
 Red. masses --      1.3201                 1.3202                 1.2785
 Frc consts  --      1.5058                 1.5060                 1.5177
 IR Inten    --      0.2721                 6.3260                23.1262

                     49                     50                     51
                      A                      A                      A
 Frequencies --   1420.9911              1430.5840              1430.6251
 Red. masses --      1.3211                 1.3284                 1.3281
 Frc consts  --      1.5717                 1.6017                 1.6015
 IR Inten    --     12.5255                 1.3305                36.2766

                     52                     53                     54
                      A                      A                      A
 Frequencies --   1444.7109              1445.0243              1511.1380
 Red. masses --      1.2418                 1.2409                 1.0481
 Frc consts  --      1.5271                 1.5266                 1.4102
 IR Inten    --     30.8615                 5.2478                 0.0115

                     55                     56                     57
                      A                      A                      A
 Frequencies --   1511.1929              1522.1795              1522.3831
 Red. masses --      1.0482                 1.0467                 1.0471
 Frc consts  --      1.4103                 1.4289                 1.4298
 IR Inten    --      0.2456                10.1086                22.7442

                     58                     59                     60
                      A                      A                      A
 Frequencies --   1526.8505              1526.9027              1546.8201
 Red. masses --      1.0485                 1.0484                 1.0538
 Frc consts  --      1.4401                 1.4402                 1.4856
 IR Inten    --      0.1068                 0.0879                12.6055

                     61                     62                     63
                      A                      A                      A
 Frequencies --   1546.9010              1654.7018              1833.3018
 Red. masses --      1.0540                13.9758                12.0953
 Frc consts  --      1.4860                22.5458                23.9516
 IR Inten    --      1.6955                 0.2222                65.6737

                     64                     65                     66
                      A                      A                      A
 Frequencies --   1850.3372              3062.4019              3062.4161
 Red. masses --     12.0609                 1.0374                 1.0374
 Frc consts  --     24.3295                 5.7323                 5.7324
 IR Inten    --    466.6366                 1.4338                30.7139

                     67                     68                     69
                      A                      A                      A
 Frequencies --   3066.4788              3066.5422              3095.3440
 Red. masses --      1.0383                 1.0383                 1.0866
 Frc consts  --      5.7525                 5.7526                 6.1337
 IR Inten    --     21.6977                 0.7457                 2.8998

                     70                     71                     72
                      A                      A                      A
 Frequencies --   3095.4845              3127.1847              3127.2299
 Red. masses --      1.0866                 1.1016                 1.1016
 Frc consts  --      6.1343                 6.3472                 6.3474
 IR Inten    --     36.7450                 0.7631                23.7862

                     73                     74                     75
                      A                      A                      A
 Frequencies --   3129.9840              3130.0753              3162.2909
 Red. masses --      1.1020                 1.1019                 1.1021
 Frc consts  --      6.3606                 6.3608                 6.4935
 IR Inten    --     63.0643                 0.6637                 0.6964

                     76                     77                     78
                      A                      A                      A
 Frequencies --   3162.2976              3166.8877              3166.9761
 Red. masses --      1.1021                 1.1010                 1.1010
 Frc consts  --      6.4935                 6.5059                 6.5062
 IR Inten    --      3.1147                 3.0839                35.8074

 - Thermochemistry -
 -------------------
 Temperature   298.150 Kelvin.  Pressure   1.00000 Atm.
 Atom     1 has atomic number  6 and mass  12.00000

 Molecular mass:   202.09536 amu.
 Principal axes and moments of inertia in atomic units:
                           1         2         3
     Eigenvalues --   988.102397253.574677349.69468
           X            0.99999   0.00000   0.00393
           Y           -0.00001   1.00000   0.00071
           Z           -0.00393  -0.00071   0.99999
 This molecule is an asymmetric top.
 Rotational symmetry number  1.
 Warning -- assumption of classical behavior for rotation
           may cause significant error
 Rotational temperatures (Kelvin)      0.08766     0.01194     0.01178
 Rotational constants (GHZ):           1.82647     0.24881     0.24555
 Zero-point vibrational energy     598218.4 (Joules/Mol)
                                  142.97762 (Kcal/Mol)
 Warning -- explicit consideration of  24 degrees of freedom as
           vibrations may cause significant error
 Vibrational temperatures:     17.34    46.41    70.00    79.68    88.28
          (Kelvin)            159.58   161.75   258.49   281.56   299.40
                              333.44   333.58   354.76   360.33   361.68
                              450.83   515.09   586.48   597.07   618.91
                              682.82   696.24   825.45   891.82   941.92
                             1138.81  1164.37  1172.78  1232.15  1305.11
                             1328.53  1366.85  1366.92  1377.21  1377.41
                             1384.17  1423.37  1678.37  1682.61  1685.74
                             1686.02  1753.56  1753.98  1780.02  1846.15
                             2001.95  2001.98  2042.32  2044.49  2058.29
                             2058.35  2078.62  2079.07  2174.19  2174.27
                             2190.08  2190.37  2196.80  2196.87  2225.53
                             2225.65  2380.75  2637.71  2662.22  4406.11
                             4406.13  4411.98  4412.07  4453.51  4453.71
                             4499.32  4499.39  4503.35  4503.48  4549.83
                             4549.84  4556.45  4556.57

 Zero-point correction=                           0.227849 (Hartree/Particle)
 Thermal correction to Energy=                    0.244017
 Thermal correction to Enthalpy=                  0.244961
 Thermal correction to Gibbs Free Energy=         0.181539
 Sum of electronic and zero-point Energies=           -723.417884
 Sum of electronic and thermal Energies=              -723.401716
 Sum of electronic and thermal Enthalpies=            -723.400772
 Sum of electronic and thermal Free Energies=         -723.464195

                     E (Thermal)             CV                S
                      KCal/Mol        Cal/Mol-Kelvin    Cal/Mol-Kelvin
 Total                  153.123             56.275            133.484
 Electronic               0.000              0.000              0.000
 Translational            0.889              2.981             41.815
 Rotational               0.889              2.981             32.332
 Vibrational            151.346             50.313             59.337
 Vibration     1          0.593              1.987              7.641
 Vibration     2          0.594              1.983              5.685
 Vibration     3          0.595              1.978              4.871
 Vibration     4          0.596              1.975              4.615
 Vibration     5          0.597              1.973              4.413
 Vibration     6          0.607              1.940              3.253
 Vibration     7          0.607              1.939              3.227
 Vibration     8          0.629              1.867              2.332
 Vibration     9          0.636              1.846              2.173
 Vibration    10          0.641              1.828              2.060
 Vibration    11          0.653              1.792              1.865
 Vibration    12          0.653              1.792              1.865
 Vibration    13          0.661              1.768              1.755
 Vibration    14          0.663              1.762              1.727
 Vibration    15          0.663              1.760              1.721
 Vibration    16          0.701              1.648              1.345
 Vibration    17          0.733              1.559              1.131
 Vibration    18          0.772              1.454              0.935
 Vibration    19          0.778              1.438              0.909
 Vibration    20          0.791              1.405              0.858
 Vibration    21          0.831              1.306              0.725
 Vibration    22          0.840              1.286              0.700
 Vibration    23          0.930              1.088              0.497
 Vibration    24          0.980              0.990              0.417

 Optimization completed.
    -- Stationary point found.
 Normal termination of Gaussian 16 at Sat Aug 22 14:10:19 2020.
 Gaussian 16:  ES64L-G16RevA.03 25-Dec-2016

 ----------------------------------------------------------------------
 # TD(NStates=10, Root=1) B3LYP/6-31G* scf=qc volume pop=NPA density=cu
 rrent Geom=AllCheck Guess=Read
 ----------------------------------------------------------------------

 Structure from the checkpoint file:  "azadicarboxylate_2_conf273.chk"
 -------------------
 Title Card Required
 -------------------
 Charge =  0 Multiplicity = 1

                         Standard orientation:
 ---------------------------------------------------------------------
 Center     Atomic      Atomic             Coordinates (Angstroms)
 Number     Number       Type             X           Y           Z
 ---------------------------------------------------------------------
      1          6           0        4.202015    0.154321    1.383650
      2          6           0        3.665707    0.903797    0.168616
      3          6           0        4.417545    0.629938   -1.129736
      4          8           0        2.218222    0.676814    0.003492
      5          6           0        1.767124   -0.540537   -0.276538
      6          8           0        2.378466   -1.569332   -0.425288
      7          7           0        0.336449   -0.482403   -0.523306
      8          7           0       -0.336384   -0.480982    0.524153
      9          6           0       -1.767061   -0.539815    0.277585
     10          8           0       -2.378323   -1.568314    0.428691
     11          8           0       -2.218269    0.676873   -0.005140
     12          6           0       -3.665796    0.903388   -0.170550
     13          6           0       -4.202263    0.151138   -1.383798
     14          6           0       -4.417400    0.632405    1.128543
     15          1           0        5.225276    0.488539    1.588929
     16          1           0        4.214025   -0.924146    1.212200
     17          1           0        3.591023    0.367482    2.266649
     18          1           0        3.679313    1.978044    0.372984
     19          1           0        4.430621   -0.436297   -1.365449
     20          1           0        5.451368    0.977968   -1.025460
     21          1           0        3.959194    1.173675   -1.962225
     22          1           0       -3.679505    1.977170   -0.377336
     23          1           0       -4.214183   -0.926941   -1.209910
     24          1           0       -3.591435    0.362339   -2.267382
     25          1           0       -5.225578    0.484833   -1.589658
     26          1           0       -4.430380   -0.433299    1.366657
     27          1           0       -5.451260    0.980145    1.023660
     28          1           0       -3.958938    1.178038    1.959730
 ---------------------------------------------------------------------

 SCF Done:  E(RB3LYP) =  -723.645733469     a.u. after    1 cycles

 Excitation energies and oscillator strengths:

 Excited State   1:      Singlet-A      2.9395 eV  421.78 nm  f=0.0039  <S**2>=0.000
      53 -> 55        -0.11091
      54 -> 55         0.69819
 This state for optimization and/or second-order correction.
 Total Energy, E(TD-HF/TD-DFT) =  -723.537707821
 Copying the excited state density for this state as the 1-particle RhoCI density.

 Excited State   2:      Singlet-A      4.9998 eV  247.98 nm  f=0.0596  <S**2>=0.000
      53 -> 55         0.68691
      54 -> 55         0.10620

 Excited State   3:      Singlet-A      5.0987 eV  243.17 nm  f=0.0004  <S**2>=0.000
      52 -> 55         0.69302

 Excited State   4:      Singlet-A      5.4460 eV  227.66 nm  f=0.0037  <S**2>=0.000
      51 -> 55         0.70294

 Excited State   5:      Singlet-A      5.4525 eV  227.39 nm  f=0.0018  <S**2>=0.000
      50 -> 55         0.70135

 Excited State   6:      Singlet-A      5.5836 eV  222.05 nm  f=0.0000  <S**2>=0.000
      52 -> 57        -0.16881
      53 -> 56         0.10267
      54 -> 56         0.66811

 Excited State   7:      Singlet-A      5.6431 eV  219.71 nm  f=0.0177  <S**2>=0.000
      52 -> 56        -0.16591
      54 -> 57         0.67621

 Excited State   8:      Singlet-A      6.5769 eV  188.52 nm  f=0.0107  <S**2>=0.000
      45 -> 55        -0.12924
      47 -> 55         0.10406
      49 -> 55         0.67433

 Excited State   9:      Singlet-A      6.6272 eV  187.08 nm  f=0.0000  <S**2>=0.000
      44 -> 55        -0.17273
      48 -> 55         0.66238

 Excited State  10:      Singlet-A      6.7560 eV  183.52 nm  f=0.0217  <S**2>=0.000
      52 -> 56         0.48671
      53 -> 57        -0.46051
      54 -> 57         0.18195

 The electronic state is 1-A.
 Alpha  occ. eigenvalues --  -19.20738 -19.20738 -19.15225 -19.15224 -14.41802
 Alpha  occ. eigenvalues --  -14.41751 -10.34936 -10.34935 -10.26501 -10.26501
 Alpha  occ. eigenvalues --  -10.18831 -10.18831 -10.18736 -10.18736  -1.13252
 Alpha  occ. eigenvalues --   -1.11970  -1.05161  -1.03606  -1.03223  -0.82140
 Alpha  occ. eigenvalues --   -0.80449  -0.76237  -0.70389  -0.70386  -0.66947
 Alpha  occ. eigenvalues --   -0.64195  -0.58464  -0.52647  -0.51959  -0.50818
 Alpha  occ. eigenvalues --   -0.50186  -0.49314  -0.47959  -0.46807  -0.45947
 Alpha  occ. eigenvalues --   -0.44617  -0.43215  -0.42785  -0.41769  -0.40948
 Alpha  occ. eigenvalues --   -0.40467  -0.39357  -0.38883  -0.37727  -0.37350
 Alpha  occ. eigenvalues --   -0.36448  -0.36410  -0.35430  -0.35222  -0.31397
 Alpha  occ. eigenvalues --   -0.31382  -0.30169  -0.30020  -0.24442
 Alpha virt. eigenvalues --   -0.07705   0.00690   0.01137   0.08647   0.08653
 Alpha virt. eigenvalues --    0.10569   0.10671   0.13696   0.13858   0.14801
 Alpha virt. eigenvalues --    0.14816   0.15657   0.15707   0.17154   0.17383

 Mulliken charges:
               1
     1  C   -0.470194
     2  C    0.129876
     3  C   -0.471653
     4  O   -0.432635
     5  C    0.737034
     6  O   -0.415392
     7  N   -0.243316
     8  N   -0.243314
     9  C    0.737039
    10  O   -0.415370
    11  O   -0.432628
    12  C    0.129872
    13  C   -0.470193
    14  C   -0.471656
    15  H    0.152307
    16  H    0.188019
    17  H    0.164052
    18  H    0.156875
    19  H    0.187786
    20  H    0.154481
    21  H    0.162742
    22  H    0.156877
    23  H    0.188019
    24  H    0.164052
    25  H    0.152309
    26  H    0.187785
    27  H    0.154484
    28  H    0.162744
 Sum of Mulliken charges =   0.00000

 Dipole moment (field-independent basis, Debye):
    X=             -0.0006    Y=              3.8512    Z=             -0.0039  Tot=              3.8512
 Quadrupole moment (field-independent basis, Debye-Ang):
   XX=            -57.5291   YY=            -88.2724   ZZ=            -80.4458
   XY=              0.0041   XZ=              2.8881   YZ=              0.0085

 Summary of Natural Population Analysis:

                                       Natural Population
                Natural  -----------------------------------------------
    Atom  No    Charge         Core      Valence    Rydberg      Total
 -----------------------------------------------------------------------
      C    1   -0.70929      1.99939     4.70192    0.00798     6.70929
      C    2    0.08488      1.99912     3.89772    0.01827     5.91512
      C    3   -0.71036      1.99939     4.70287    0.00810     6.71036
      O    4   -0.53325      1.99972     6.52153    0.01199     8.53325
      C    5    0.92023      1.99951     3.02797    0.05229     5.07977
      O    6   -0.54539      1.99977     6.52513    0.02049     8.54539
      N    7   -0.22596      1.99939     5.19988    0.02669     7.22596
      N    8   -0.22596      1.99939     5.19989    0.02669     7.22596
      C    9    0.92024      1.99951     3.02796    0.05229     5.07976
      O   10   -0.54537      1.99977     6.52511    0.02049     8.54537
      O   11   -0.53324      1.99972     6.52152    0.01199     8.53324
      C   12    0.08488      1.99912     3.89773    0.01827     5.91512
      C   13   -0.70929      1.99939     4.70192    0.00798     6.70929
      C   14   -0.71036      1.99939     4.70287    0.00810     6.71036
      H   15    0.24048      0.00000     0.75878    0.00075     0.75952
      H   16    0.25250      0.00000     0.74615    0.00135     0.74750
      H   17    0.24367      0.00000     0.75527    0.00106     0.75633
      H   18    0.24524      0.00000     0.75307    0.00168     0.75476
      H   19    0.25207      0.00000     0.74646    0.00146     0.74793
      H   20    0.24231      0.00000     0.75696    0.00073     0.75769
      H   21    0.24283      0.00000     0.75611    0.00106     0.75717
      H   22    0.24524      0.00000     0.75307    0.00168     0.75476
      H   23    0.25250      0.00000     0.74615    0.00135     0.74750
      H   24    0.24367      0.00000     0.75527    0.00106     0.75633
      H   25    0.24048      0.00000     0.75878    0.00075     0.75952
      H   26    0.25207      0.00000     0.74646    0.00146     0.74793
      H   27    0.24231      0.00000     0.75696    0.00073     0.75769
      H   28    0.24283      0.00000     0.75611    0.00106     0.75717
 =======================================================================
   * Total *   -0.00000     27.99259    79.69964    0.30778   108.00000

 Normal termination of Gaussian 16 at Sat Aug 22 14:15:49 2020.
