 Gaussian 16, Revision A.03,

 ---------------------------------
 # opt=CalcAll B3LYP/6-31G* scf=qc
 ---------------------------------

 -------------------
 Title Card Required
 -------------------
 Symbolic Z-matrix:
 Charge =  0 Multiplicity = 1

 SCF Done:  E(RB3LYP) =  -723.620679501     a.u. after   10 cycles
 SCF Done:  E(RB3LYP) =  -723.643553907     a.u. after   17 cycles
 SCF Done:  E(RB3LYP) =  -723.647020799     a.u. after   21 cycles
 SCF Done:  E(RB3LYP) =  -723.648811585     a.u. after   19 cycles
 SCF Done:  E(RB3LYP) =  -723.649127188     a.u. after   17 cycles
 SCF Done:  E(RB3LYP) =  -723.649193701     a.u. after   13 cycles
 SCF Done:  E(RB3LYP) =  -723.649202122     a.u. after    6 cycles
 SCF Done:  E(RB3LYP) =  -723.649235139     a.u. after   11 cycles
 SCF Done:  E(RB3LYP) =  -723.649295610     a.u. after   21 cycles
 SCF Done:  E(RB3LYP) =  -723.649369052     a.u. after    9 cycles
 SCF Done:  E(RB3LYP) =  -723.649371988     a.u. after    5 cycles
 SCF Done:  E(RB3LYP) =  -723.649371960     a.u. after    2 cycles
 Optimization completed.
    -- Stationary point found.
 Normal termination of Gaussian 16 at Sat Aug 22 14:16:29 2020.

 ----------------------------------------------------------------------
 # freq B3LYP/6-31G* scf=qc volume NMR pop=NPA density=current Geom=All
 Check Guess=Read
 ----------------------------------------------------------------------

 Structure from the checkpoint file:  "azadicarboxylate_2_conf242.chk"
 -------------------
 Title Card Required
 -------------------
 Charge =  0 Multiplicity = 1

 SCF Done:  E(RB3LYP) =  -723.649371960     a.u. after    1 cycles

      1  C    Isotropic =   169.6167   Anisotropy =    27.7813

      2  C    Isotropic =   113.3733   Anisotropy =    72.2721

      3  C    Isotropic =   170.6360   Anisotropy =    27.5263

      4  O    Isotropic =   138.4092   Anisotropy =   143.0832

      5  C    Isotropic =    35.3259   Anisotropy =    79.1937

      6  O    Isotropic =   -27.2014   Anisotropy =   484.0280

      7  N    Isotropic =  -321.7623   Anisotropy =   671.2557

      8  N    Isotropic =  -319.1297   Anisotropy =   668.8300

      9  C    Isotropic =    34.8093   Anisotropy =    78.2944

     10  O    Isotropic =   -19.5860   Anisotropy =   496.7786

     11  O    Isotropic =   134.3806   Anisotropy =   116.3309

     12  C    Isotropic =   118.5379   Anisotropy =    64.7625

     13  C    Isotropic =   168.2791   Anisotropy =    30.3497

     14  C    Isotropic =   169.0176   Anisotropy =    30.5599

     15  H    Isotropic =    31.1997   Anisotropy =     8.5140

     16  H    Isotropic =    29.7712   Anisotropy =     5.2622

     17  H    Isotropic =    30.6863   Anisotropy =     8.1295

     18  H    Isotropic =    27.6279   Anisotropy =     4.5126

     19  H    Isotropic =    29.6216   Anisotropy =     5.5577

     20  H    Isotropic =    31.1577   Anisotropy =     8.3775

     21  H    Isotropic =    30.6333   Anisotropy =     8.1791

     22  H    Isotropic =    26.9538   Anisotropy =     2.5225

     23  H    Isotropic =    30.7918   Anisotropy =     6.4950

     24  H    Isotropic =    30.7468   Anisotropy =     8.6918

     25  H    Isotropic =    31.1356   Anisotropy =     8.4711

     26  H    Isotropic =    30.9769   Anisotropy =     6.6318

     27  H    Isotropic =    31.1412   Anisotropy =     8.6001

     28  H    Isotropic =    30.1997   Anisotropy =     7.3532

  Exact polarizability: 154.144   3.460  98.030   0.356  -2.463  86.134
 Approx polarizability: 169.475  11.711 159.088  -1.731 -15.844 129.957

                      1                      2                      3
                      A                      A                      A
 Frequencies --     10.8543                36.8566                49.7221
 Red. masses --      4.2641                 3.2221                 4.9650
 Frc consts  --      0.0003                 0.0026                 0.0072
 IR Inten    --      2.6571                 0.9569                 1.8886

                      4                      5                      6
                      A                      A                      A
 Frequencies --     55.8125                59.0384                82.0423
 Red. masses --      4.5694                 6.1269                 4.9674
 Frc consts  --      0.0084                 0.0126                 0.0197
 IR Inten    --      0.7142                 0.4074                 0.5433

                      7                      8                      9
                      A                      A                      A
 Frequencies --    111.0371               188.0743               199.2513
 Red. masses --      3.5241                 3.9706                 4.9948
 Frc consts  --      0.0256                 0.0828                 0.1168
 IR Inten    --      0.2867                 0.7199                 3.0416

                     10                     11                     12
                      A                      A                      A
 Frequencies --    203.7153               221.8832               227.1369
 Red. masses --      5.6834                 1.1710                 2.9216
 Frc consts  --      0.1390                 0.0340                 0.0888
 IR Inten    --      2.0485                 1.6606                15.6455

                     13                     14                     15
                      A                      A                      A
 Frequencies --    231.6164               250.3107               264.6534
 Red. masses --      1.0979                 1.0576                 1.2967
 Frc consts  --      0.0347                 0.0390                 0.0535
 IR Inten    --      0.2331                 0.0217                 4.0085

                     16                     17                     18
                      A                      A                      A
 Frequencies --    330.8993               344.3396               413.1797
 Red. masses --      2.6698                 2.9431                 3.2618
 Frc consts  --      0.1722                 0.2056                 0.3281
 IR Inten    --      0.0643                 2.8304                 4.0176

                     19                     20                     21
                      A                      A                      A
 Frequencies --    421.8821               432.9758               455.1286
 Red. masses --      3.7734                 5.8876                 2.8482
 Frc consts  --      0.3957                 0.6503                 0.3476
 IR Inten    --      9.4555                 0.5230                 1.4214

                     22                     23                     24
                      A                      A                      A
 Frequencies --    484.8872               569.4327               609.6389
 Red. masses --      2.8338                 4.9463                 7.6966
 Frc consts  --      0.3926                 0.9450                 1.6854
 IR Inten    --      7.4469                 7.4642                 3.1255

                     25                     26                     27
                      A                      A                      A
 Frequencies --    661.5002               795.0092               815.5443
 Red. masses --      7.6050                 4.5582                12.0828
 Frc consts  --      1.9607                 1.6974                 4.7349
 IR Inten    --     12.8447                 9.4526                32.7655

                     28                     29                     30
                      A                      A                      A
 Frequencies --    833.2233               860.6469               909.7913
 Red. masses --      3.7076                 6.2413                 3.4476
 Frc consts  --      1.5166                 2.7238                 1.6813
 IR Inten    --     20.4606                 2.6919                57.3174

                     31                     32                     33
                      A                      A                      A
 Frequencies --    916.7135               950.3713               950.9550
 Red. masses --      3.0106                 1.2825                 1.2519
 Frc consts  --      1.4906                 0.6825                 0.6670
 IR Inten    --      3.1134                 1.3634                 0.6380

                     34                     35                     36
                      A                      A                      A
 Frequencies --    957.4815               962.0928               972.9168
 Red. masses --      1.3107                 1.3852                 4.7012
 Frc consts  --      0.7080                 0.7554                 2.6219
 IR Inten    --      0.4959                 4.9307                16.5870

                     37                     38                     39
                      A                      A                      A
 Frequencies --   1000.6350              1144.0687              1168.1624
 Red. masses --      8.5188                 1.8274                 1.9220
 Frc consts  --      5.0255                 1.4093                 1.5453
 IR Inten    --      6.7788               241.2682               114.3658

                     40                     41                     42
                      A                      A                      A
 Frequencies --   1171.9647              1175.4140              1218.3589
 Red. masses --      2.1506                 2.0366                 1.9564
 Frc consts  --      1.7404                 1.6578                 1.7110
 IR Inten    --     13.3945                 9.5307                40.9747

                     43                     44                     45
                      A                      A                      A
 Frequencies --   1219.1633              1261.4139              1280.1681
 Red. masses --      1.9299                 5.3315                 6.5455
 Frc consts  --      1.6901                 4.9982                 6.3202
 IR Inten    --      4.9400              1092.3050               175.9086

                     46                     47                     48
                      A                      A                      A
 Frequencies --   1384.8226              1391.6357              1397.6748
 Red. masses --      1.4080                 1.3203                 1.2536
 Frc consts  --      1.5909                 1.5065                 1.4429
 IR Inten    --     11.4335                 3.1542                 4.8814

                     49                     50                     51
                      A                      A                      A
 Frequencies --   1420.5410              1430.6028              1433.9722
 Red. masses --      1.3031                 1.3279                 1.3432
 Frc consts  --      1.5493                 1.6012                 1.6273
 IR Inten    --     22.0184                18.5726                19.3864

                     52                     53                     54
                      A                      A                      A
 Frequencies --   1444.8481              1448.8532              1511.3325
 Red. masses --      1.2415                 1.2569                 1.0483
 Frc consts  --      1.5270                 1.5545                 1.4107
 IR Inten    --     17.7648                 6.6464                 0.1356

                     55                     56                     57
                      A                      A                      A
 Frequencies --   1511.8445              1516.5199              1522.3405
 Red. masses --      1.0540                 1.0443                 1.0469
 Frc consts  --      1.4194                 1.4150                 1.4295
 IR Inten    --      1.8331                 1.2105                17.2219

                     58                     59                     60
                      A                      A                      A
 Frequencies --   1525.6390              1526.7094              1539.7966
 Red. masses --      1.0505                 1.0484                 1.0495
 Frc consts  --      1.4406                 1.4397                 1.4661
 IR Inten    --      3.8513                 0.0618                 9.7172

                     61                     62                     63
                      A                      A                      A
 Frequencies --   1546.7082              1651.0525              1832.9855
 Red. masses --      1.0539                13.9730                12.3473
 Frc consts  --      1.4855                22.4420                24.4422
 IR Inten    --      7.3236                 0.0500                 0.2938

                     64                     65                     66
                      A                      A                      A
 Frequencies --   1847.1476              3058.5198              3062.5006
 Red. masses --     12.3392                 1.0354                 1.0373
 Frc consts  --     24.8052                 5.7066                 5.7321
 IR Inten    --    542.7596                10.6458                15.8041

                     67                     68                     69
                      A                      A                      A
 Frequencies --   3063.0891              3066.6458              3097.2429
 Red. masses --      1.0359                 1.0381                 1.0868
 Frc consts  --      5.7263                 5.7519                 6.1424
 IR Inten    --     15.5061                11.1063                18.7119

                     70                     71                     72
                      A                      A                      A
 Frequencies --   3102.1864              3126.7869              3127.5344
 Red. masses --      1.0879                 1.1029                 1.1016
 Frc consts  --      6.1685                 6.3529                 6.3485
 IR Inten    --      1.2680                 2.1427                11.9453

                     73                     74                     75
                      A                      A                      A
 Frequencies --   3130.3535              3136.5121              3141.2888
 Red. masses --      1.1019                 1.1014                 1.1028
 Frc consts  --      6.3620                 6.3840                 6.4117
 IR Inten    --     32.0069                41.0268                19.3655

                     76                     77                     78
                      A                      A                      A
 Frequencies --   3146.8177              3161.5853              3166.3277
 Red. masses --      1.1027                 1.1022                 1.1011
 Frc consts  --      6.4338                 6.4914                 6.5041
 IR Inten    --     17.9762                 1.9518                20.6283

 - Thermochemistry -
 -------------------
 Temperature   298.150 Kelvin.  Pressure   1.00000 Atm.
 Atom     1 has atomic number  6 and mass  12.00000

 Molecular mass:   202.09536 amu.
 Principal axes and moments of inertia in atomic units:
                           1         2         3
     Eigenvalues --   942.369517414.513317723.02555
           X            0.99997  -0.00742   0.00179
           Y            0.00723   0.99574   0.09196
           Z           -0.00246  -0.09195   0.99576
 This molecule is an asymmetric top.
 Rotational symmetry number  1.
 Warning -- assumption of classical behavior for rotation
           may cause significant error
 Rotational temperatures (Kelvin)      0.09191     0.01168     0.01122
 Rotational constants (GHZ):           1.91511     0.24341     0.23368
 Zero-point vibrational energy     597848.0 (Joules/Mol)
                                  142.88910 (Kcal/Mol)
 Warning -- explicit consideration of  24 degrees of freedom as
           vibrations may cause significant error
 Vibrational temperatures:     15.62    53.03    71.54    80.30    84.94
          (Kelvin)            118.04   159.76   270.60   286.68   293.10
                              319.24   326.80   333.24   360.14   380.78
                              476.09   495.43   594.47   606.99   622.96
                              654.83   697.64   819.29   877.13   951.75
                             1143.84  1173.39  1198.82  1238.28  1308.99
                             1318.95  1367.37  1368.21  1377.60  1384.24
                             1399.81  1439.69  1646.06  1680.73  1686.20
                             1691.16  1752.95  1754.10  1814.89  1841.88
                             1992.45  2002.25  2010.94  2043.84  2058.32
                             2063.17  2078.81  2084.58  2174.47  2175.21
                             2181.93  2190.31  2195.05  2196.59  2215.42
                             2225.37  2375.50  2637.26  2657.63  4400.53
                             4406.26  4407.10  4412.22  4456.24  4463.35
                             4498.75  4499.82  4503.88  4512.74  4519.61
                             4527.57  4548.82  4555.64

 Zero-point correction=                           0.227708 (Hartree/Particle)
 Thermal correction to Energy=                    0.243930
 Thermal correction to Enthalpy=                  0.244875
 Thermal correction to Gibbs Free Energy=         0.181160
 Sum of electronic and zero-point Energies=           -723.421664
 Sum of electronic and thermal Energies=              -723.405441
 Sum of electronic and thermal Enthalpies=            -723.404497
 Sum of electronic and thermal Free Energies=         -723.468212

                     E (Thermal)             CV                S
                      KCal/Mol        Cal/Mol-Kelvin    Cal/Mol-Kelvin
 Total                  153.069             56.265            134.098
 Electronic               0.000              0.000              0.000
 Translational            0.889              2.981             41.815
 Rotational               0.889              2.981             32.356
 Vibrational            151.291             50.303             59.926
 Vibration     1          0.593              1.987              7.848
 Vibration     2          0.594              1.982              5.421
 Vibration     3          0.595              1.978              4.828
 Vibration     4          0.596              1.975              4.600
 Vibration     5          0.596              1.974              4.489
 Vibration     6          0.600              1.961              3.841
 Vibration     7          0.607              1.940              3.251
 Vibration     8          0.633              1.856              2.247
 Vibration     9          0.637              1.841              2.140
 Vibration    10          0.639              1.835              2.099
 Vibration    11          0.648              1.808              1.944
 Vibration    12          0.651              1.800              1.901
 Vibration    13          0.653              1.793              1.866
 Vibration    14          0.663              1.762              1.728
 Vibration    15          0.671              1.738              1.631
 Vibration    16          0.713              1.614              1.256
 Vibration    17          0.723              1.587              1.192
 Vibration    18          0.777              1.442              0.915
 Vibration    19          0.784              1.423              0.886
 Vibration    20          0.794              1.398              0.849
 Vibration    21          0.813              1.350              0.780
 Vibration    22          0.841              1.284              0.697
 Vibration    23          0.925              1.097              0.505
 Vibration    24          0.969              1.011              0.433

 Optimization completed.
    -- Stationary point found.
 Normal termination of Gaussian 16 at Sat Aug 22 14:20:56 2020.
 Gaussian 16:  ES64L-G16RevA.03 25-Dec-2016

 ----------------------------------------------------------------------
 # TD(NStates=10, Root=1) B3LYP/6-31G* scf=qc volume pop=NPA density=cu
 rrent Geom=AllCheck Guess=Read
 ----------------------------------------------------------------------

 Structure from the checkpoint file:  "azadicarboxylate_2_conf243.chk"
 -------------------
 Title Card Required
 -------------------
 Charge =  0 Multiplicity = 1

                         Standard orientation:
 ---------------------------------------------------------------------
 Center     Atomic      Atomic             Coordinates (Angstroms)
 Number     Number       Type             X           Y           Z
 ---------------------------------------------------------------------
      1          6           0        4.213737   -0.616647   -1.305786
      2          6           0        3.918965   -0.481539    0.184266
      3          6           0        4.575704    0.719705    0.856181
      4          8           0        2.466835   -0.505902    0.439894
      5          6           0        1.696200    0.470340   -0.021575
      6          8           0        1.994461    1.446498   -0.664979
      7          7           0        0.338748    0.294772    0.464705
      8          7           0       -0.306654   -0.542976   -0.193010
      9          6           0       -1.663930   -0.714902    0.288212
     10          8           0       -1.984683   -1.698949    0.907655
     11          8           0       -2.434750    0.278954   -0.141704
     12          6           0       -3.870976    0.185790    0.159620
     13          6           0       -4.375224    1.620146    0.186943
     14          6           0       -4.543699   -0.688869   -0.890942
     15          1           0        5.287778   -0.783104   -1.445741
     16          1           0        3.925571    0.284424   -1.851512
     17          1           0        3.679035   -1.474267   -1.726459
     18          1           0        4.229041   -1.395914    0.697527
     19          1           0        4.293537    1.654193    0.366484
     20          1           0        5.664600    0.610363    0.800396
     21          1           0        4.294007    0.771403    1.912913
     22          1           0       -3.959570   -0.277189    1.146185
     23          1           0       -4.244703    2.096818   -0.790391
     24          1           0       -3.834981    2.208770    0.934429
     25          1           0       -5.441084    1.633387    0.438718
     26          1           0       -4.405182   -0.265654   -1.891733
     27          1           0       -5.618625   -0.752251   -0.688462
     28          1           0       -4.133645   -1.702486   -0.872660
 ---------------------------------------------------------------------

 SCF Done:  E(RB3LYP) =  -723.649371960     a.u. after    1 cycles

 Excitation energies and oscillator strengths:

 Excited State   1:      Singlet-A      2.9530 eV  419.86 nm  f=0.0000  <S**2>=0.000
      54 -> 55         0.70060
 This state for optimization and/or second-order correction.
 Total Energy, E(TD-HF/TD-DFT) =  -723.540851901
 Copying the excited state density for this state as the 1-particle RhoCI density.

 Excited State   2:      Singlet-A      4.9885 eV  248.54 nm  f=0.0751  <S**2>=0.000
      53 -> 55         0.68736

 Excited State   3:      Singlet-A      5.1516 eV  240.67 nm  f=0.0041  <S**2>=0.000
      50 -> 55         0.10432
      51 -> 55         0.20150
      52 -> 55         0.64702
      53 -> 55         0.10006

 Excited State   4:      Singlet-A      5.3848 eV  230.25 nm  f=0.0158  <S**2>=0.000
      50 -> 55         0.17252
      51 -> 55         0.64147
      52 -> 55        -0.22648

 Excited State   5:      Singlet-A      5.4184 eV  228.82 nm  f=0.0038  <S**2>=0.000
      50 -> 55         0.67260
      51 -> 55        -0.19785

 Excited State   6:      Singlet-A      5.6446 eV  219.65 nm  f=0.0053  <S**2>=0.000
      53 -> 56        -0.16168
      54 -> 56         0.65536
      54 -> 57         0.14448

 Excited State   7:      Singlet-A      5.7305 eV  216.36 nm  f=0.0111  <S**2>=0.000
      53 -> 57         0.13654
      54 -> 56        -0.14314
      54 -> 57         0.65916

 Excited State   8:      Singlet-A      6.4910 eV  191.01 nm  f=0.0003  <S**2>=0.000
      48 -> 55         0.18501
      49 -> 55         0.66521

 Excited State   9:      Singlet-A      6.5960 eV  187.97 nm  f=0.0003  <S**2>=0.000
      45 -> 55        -0.18479
      48 -> 55         0.63533
      49 -> 55        -0.18847

 Excited State  10:      Singlet-A      6.7025 eV  184.98 nm  f=0.0129  <S**2>=0.000
      52 -> 56        -0.22766
      52 -> 57        -0.15602
      53 -> 56         0.57619
      53 -> 57         0.13235
      54 -> 56         0.16929
      54 -> 57         0.10310

 The electronic state is 1-A.
 Alpha  occ. eigenvalues --  -19.20771 -19.20710 -19.15319 -19.15273 -14.41920
 Alpha  occ. eigenvalues --  -14.41866 -10.35021 -10.34878 -10.26491 -10.26078
 Alpha  occ. eigenvalues --  -10.19027 -10.18883 -10.18827 -10.18750  -1.13362
 Alpha  occ. eigenvalues --   -1.12084  -1.05259  -1.03662  -1.03222  -0.82214
 Alpha  occ. eigenvalues --   -0.80498  -0.76390  -0.70485  -0.70392  -0.66494
 Alpha  occ. eigenvalues --   -0.63256  -0.57871  -0.56252  -0.52257  -0.50830
 Alpha  occ. eigenvalues --   -0.49980  -0.48482  -0.47597  -0.46572  -0.46403
 Alpha  occ. eigenvalues --   -0.44291  -0.43058  -0.41880  -0.41436  -0.41312
 Alpha  occ. eigenvalues --   -0.40341  -0.39601  -0.39215  -0.38197  -0.37400
 Alpha  occ. eigenvalues --   -0.36909  -0.36474  -0.35354  -0.34794  -0.31456
 Alpha  occ. eigenvalues --   -0.31349  -0.30980  -0.29586  -0.24699
 Alpha virt. eigenvalues --   -0.07867   0.00789   0.01111   0.08676   0.08860
 Alpha virt. eigenvalues --    0.10471   0.10782   0.13325   0.13808   0.14536
 Alpha virt. eigenvalues --    0.14812   0.15686   0.16574   0.16989   0.17339

 Mulliken charges:
               1
     1  C   -0.470695
     2  C    0.130022
     3  C   -0.472043
     4  O   -0.430649
     5  C    0.735521
     6  O   -0.419350
     7  N   -0.238092
     8  N   -0.244254
     9  C    0.734673
    10  O   -0.420953
    11  O   -0.423038
    12  C    0.117091
    13  C   -0.454169
    14  C   -0.460019
    15  H    0.152907
    16  H    0.187080
    17  H    0.165042
    18  H    0.159369
    19  H    0.187306
    20  H    0.154886
    21  H    0.163785
    22  H    0.168307
    23  H    0.163964
    24  H    0.167253
    25  H    0.154028
    26  H    0.160763
    27  H    0.155040
    28  H    0.176225
 Sum of Mulliken charges =  -0.00000

 Dipole moment (field-independent basis, Debye):
    X=              0.2271    Y=              0.2142    Z=             -0.1665  Tot=              0.3538
 Quadrupole moment (field-independent basis, Debye-Ang):
   XX=            -51.9345   YY=            -88.4194   ZZ=            -82.8090
   XY=             -7.0603   XZ=              2.4797   YZ=              4.9192

 Summary of Natural Population Analysis:

                                       Natural Population
                Natural  -----------------------------------------------
    Atom  No    Charge         Core      Valence    Rydberg      Total
 -----------------------------------------------------------------------
      C    1   -0.70946      1.99939     4.70209    0.00797     6.70946
      C    2    0.08539      1.99912     3.89724    0.01826     5.91461
      C    3   -0.71053      1.99939     4.70303    0.00811     6.71053
      O    4   -0.53082      1.99972     6.51906    0.01205     8.53082
      C    5    0.91859      1.99951     3.02957    0.05233     5.08141
      O    6   -0.55065      1.99977     6.53047    0.02041     8.55065
      N    7   -0.21768      1.99939     5.19183    0.02646     7.21768
      N    8   -0.22033      1.99938     5.19468    0.02627     7.22033
      C    9    0.92002      1.99950     3.02945    0.05103     5.07998
      O   10   -0.55060      1.99977     6.53024    0.02059     8.55060
      O   11   -0.53683      1.99971     6.52435    0.01276     8.53683
      C   12    0.08284      1.99912     3.90061    0.01743     5.91716
      C   13   -0.69629      1.99939     4.68781    0.00908     6.69629
      C   14   -0.70450      1.99939     4.69658    0.00853     6.70450
      H   15    0.24089      0.00000     0.75836    0.00074     0.75911
      H   16    0.25199      0.00000     0.74664    0.00136     0.74801
      H   17    0.24415      0.00000     0.75479    0.00106     0.75585
      H   18    0.24669      0.00000     0.75164    0.00167     0.75331
      H   19    0.25186      0.00000     0.74667    0.00147     0.74814
      H   20    0.24259      0.00000     0.75668    0.00072     0.75741
      H   21    0.24339      0.00000     0.75556    0.00105     0.75661
      H   22    0.24379      0.00000     0.75353    0.00268     0.75621
      H   23    0.23941      0.00000     0.75931    0.00128     0.76059
      H   24    0.24670      0.00000     0.75234    0.00097     0.75330
      H   25    0.24059      0.00000     0.75875    0.00067     0.75941
      H   26    0.23700      0.00000     0.76163    0.00136     0.76300
      H   27    0.24183      0.00000     0.75744    0.00073     0.75817
      H   28    0.24998      0.00000     0.74889    0.00113     0.75002
 =======================================================================
   * Total *   -0.00000     27.99257    79.69926    0.30818   108.00000

 Normal termination of Gaussian 16 at Sat Aug 22 14:26:12 2020.
