 Gaussian 16, Revision A.03,

 ---------------------------------
 # opt=CalcAll B3LYP/6-31G* scf=qc
 ---------------------------------

 -------------------
 Title Card Required
 -------------------
 Symbolic Z-matrix:
 Charge =  0 Multiplicity = 1

 SCF Done:  E(RB3LYP) =  -605.197170273     a.u. after    9 cycles
 SCF Done:  E(RB3LYP) =  -605.228192707     a.u. after   28 cycles
 SCF Done:  E(RB3LYP) =  -605.239251299     a.u. after   19 cycles
 SCF Done:  E(RB3LYP) =  -605.266804957     a.u. after   19 cycles
 SCF Done:  E(RB3LYP) =  -605.274465739     a.u. after   21 cycles
 SCF Done:  E(RB3LYP) =  -605.277491957     a.u. after   19 cycles
 SCF Done:  E(RB3LYP) =  -605.279042262     a.u. after   13 cycles
 SCF Done:  E(RB3LYP) =  -605.279295032     a.u. after   13 cycles
 SCF Done:  E(RB3LYP) =  -605.279326948     a.u. after    9 cycles
 SCF Done:  E(RB3LYP) =  -605.279330063     a.u. after    5 cycles
 SCF Done:  E(RB3LYP) =  -605.279330112     a.u. after    2 cycles
 Optimization completed.
    -- Stationary point found.
 Normal termination of Gaussian 16 at Sat Aug 22 18:16:51 2020.

 ----------------------------------------------------------------------
 # freq B3LYP/6-31G* scf=qc volume NMR pop=NPA density=current Geom=All
 Check Guess=Read
 ----------------------------------------------------------------------

 Structure from the checkpoint file:  "azadicarboxylate_6_conf232.chk"
 -------------------
 Title Card Required
 -------------------
 Charge =  0 Multiplicity = 1

 SCF Done:  E(RB3LYP) =  -605.279330112     a.u. after    1 cycles

      1  C    Isotropic =    35.5298   Anisotropy =    81.0136

      2  O    Isotropic =    -2.0181   Anisotropy =   439.3527

      3  N    Isotropic =  -357.3299   Anisotropy =   735.7981

      4  N    Isotropic =  -357.2978   Anisotropy =   735.7651

      5  C    Isotropic =    35.5305   Anisotropy =    81.0177

      6  O    Isotropic =    -2.0136   Anisotropy =   439.3303

      7  N    Isotropic =   164.3570   Anisotropy =    80.6881

      8  C    Isotropic =   156.2145   Anisotropy =    46.0146

      9  C    Isotropic =   156.2409   Anisotropy =    48.9305

     10  N    Isotropic =   164.3662   Anisotropy =    80.6860

     11  C    Isotropic =   156.2157   Anisotropy =    46.0118

     12  C    Isotropic =   156.2420   Anisotropy =    48.9301

     13  H    Isotropic =    29.2318   Anisotropy =     8.0912

     14  H    Isotropic =    29.8634   Anisotropy =     8.5515

     15  H    Isotropic =    29.7882   Anisotropy =     8.1471

     16  H    Isotropic =    28.0473   Anisotropy =     6.4816

     17  H    Isotropic =    29.8739   Anisotropy =     8.2983

     18  H    Isotropic =    29.9319   Anisotropy =     8.7869

     19  H    Isotropic =    29.2323   Anisotropy =     8.0913

     20  H    Isotropic =    29.7885   Anisotropy =     8.1474

     21  H    Isotropic =    29.8636   Anisotropy =     8.5515

     22  H    Isotropic =    28.0474   Anisotropy =     6.4817

     23  H    Isotropic =    29.9321   Anisotropy =     8.7868

     24  H    Isotropic =    29.8738   Anisotropy =     8.2988

  Exact polarizability: 137.974   6.501  98.264   1.115  -0.143  63.610
 Approx polarizability: 156.822  11.144 160.815   5.914  -0.182  97.927

                      1                      2                      3
                      A                      A                      A
 Frequencies --     22.7144                51.3671                60.6811
 Red. masses --      4.8443                 6.5553                 4.3797
 Frc consts  --      0.0015                 0.0102                 0.0095
 IR Inten    --      9.6764                 0.0000                 9.4500

                      4                      5                      6
                      A                      A                      A
 Frequencies --     71.6001               103.7053               105.0680
 Red. masses --      2.7753                 1.7438                 1.4325
 Frc consts  --      0.0084                 0.0110                 0.0093
 IR Inten    --      0.3649                 0.0000                 0.0370

                      7                      8                      9
                      A                      A                      A
 Frequencies --    109.0845               151.5018               152.3765
 Red. masses --      2.0177                 1.0574                 1.0907
 Frc consts  --      0.0141                 0.0143                 0.0149
 IR Inten    --      0.0000                 0.2717                 0.0000

                     10                     11                     12
                      A                      A                      A
 Frequencies --    196.5952               226.5957               253.0680
 Red. masses --      2.9863                 2.3593                 4.9203
 Frc consts  --      0.0680                 0.0714                 0.1857
 IR Inten    --      0.6015                 0.0000                 0.0000

                     13                     14                     15
                      A                      A                      A
 Frequencies --    261.9388               296.9974               328.3469
 Red. masses --      3.0785                 3.7705                 4.1767
 Frc consts  --      0.1244                 0.1960                 0.2653
 IR Inten    --     11.7878                 0.0000                29.8290

                     16                     17                     18
                      A                      A                      A
 Frequencies --    382.6173               392.7254               461.5288
 Red. masses --      3.1509                 2.5416                 4.5291
 Frc consts  --      0.2718                 0.2310                 0.5684
 IR Inten    --      0.0000                 2.8007                 0.0000

                     19                     20                     21
                      A                      A                      A
 Frequencies --    581.5753               582.5878               599.2998
 Red. masses --      9.5715                 7.1898                 6.7315
 Frc consts  --      1.9074                 1.4378                 1.4245
 IR Inten    --      0.0034                26.2815                 8.2738

                     22                     23                     24
                      A                      A                      A
 Frequencies --    695.2123               771.3874               799.2445
 Red. masses --      5.9246                 7.4611                11.3880
 Frc consts  --      1.6871                 2.6158                 4.2861
 IR Inten    --      0.0000                 7.9989                20.7383

                     25                     26                     27
                      A                      A                      A
 Frequencies --    923.4896               997.6766              1003.5613
 Red. masses --      6.2769                 4.7005                 3.0347
 Frc consts  --      3.1540                 2.7566                 1.8008
 IR Inten    --      0.0000                 0.0000                13.4398

                     28                     29                     30
                      A                      A                      A
 Frequencies --   1094.0001              1094.1908              1138.8061
 Red. masses --      1.3831                 1.3883                 1.2195
 Frc consts  --      0.9753                 0.9793                 0.9318
 IR Inten    --     11.9733                 0.0084                 0.0001

                     31                     32                     33
                      A                      A                      A
 Frequencies --   1138.9011              1162.6519              1174.5598
 Red. masses --      1.2187                 2.1502                 2.4310
 Frc consts  --      0.9314                 1.7125                 1.9760
 IR Inten    --      0.3626                 0.0002               415.8569

                     34                     35                     36
                      A                      A                      A
 Frequencies --   1189.2596              1189.4784              1291.3116
 Red. masses --      1.3688                 1.3910                 5.7899
 Frc consts  --      1.1406                 1.1596                 5.6883
 IR Inten    --      0.0002                21.4970               133.5277

                     37                     38                     39
                      A                      A                      A
 Frequencies --   1293.0802              1445.9616              1452.3414
 Red. masses --      5.5933                 2.8317                 2.7541
 Frc consts  --      5.5102                 3.4882                 3.4227
 IR Inten    --      0.0003               359.2358                 0.0009

                     40                     41                     42
                      A                      A                      A
 Frequencies --   1458.5916              1458.6182              1493.7201
 Red. masses --      1.1530                 1.1603                 1.1803
 Frc consts  --      1.4452                 1.4544                 1.5516
 IR Inten    --     16.3381                 0.0714                22.4940

                     43                     44                     45
                      A                      A                      A
 Frequencies --   1494.8863              1513.8448              1513.8585
 Red. masses --      1.1968                 1.0462                 1.0449
 Frc consts  --      1.5757                 1.4127                 1.4109
 IR Inten    --      0.0013                 0.5051                 3.9410

                     46                     47                     48
                      A                      A                      A
 Frequencies --   1527.1738              1527.3272              1529.1924
 Red. masses --      1.0482                 1.0489                 1.0465
 Frc consts  --      1.4404                 1.4416                 1.4419
 IR Inten    --      0.0027                28.7376                 0.0016

                     49                     50                     51
                      A                      A                      A
 Frequencies --   1529.3590              1563.6933              1564.9385
 Red. masses --      1.0458                 1.2511                 1.2403
 Frc consts  --      1.4412                 1.8024                 1.7897
 IR Inten    --     33.7748                 0.0004                58.3890

                     52                     53                     54
                      A                      A                      A
 Frequencies --   1656.5644              1783.8659              1804.8363
 Red. masses --     13.0588                10.6257                10.8335
 Frc consts  --     21.1140                19.9220                20.7919
 IR Inten    --      0.0000                 0.0002               772.1453

                     55                     56                     57
                      A                      A                      A
 Frequencies --   3035.9376              3035.9394              3041.9909
 Red. masses --      1.0382                 1.0381                 1.0388
 Frc consts  --      5.6376                 5.6376                 5.6638
 IR Inten    --     35.8656                 9.7073               168.6970

                     58                     59                     60
                      A                      A                      A
 Frequencies --   3042.6452              3088.3286              3088.4634
 Red. masses --      1.0389                 1.1041                 1.1042
 Frc consts  --      5.6665                 6.2047                 6.2055
 IR Inten    --      0.0001                 0.0007               120.1583

                     61                     62                     63
                      A                      A                      A
 Frequencies --   3091.1707              3091.1888              3176.7151
 Red. masses --      1.1052                 1.1052                 1.0983
 Frc consts  --      6.2224                 6.2224                 6.5303
 IR Inten    --      4.2613                 0.0031                 8.3590

                     64                     65                     66
                      A                      A                      A
 Frequencies --   3177.0146              3187.6179              3187.6332
 Red. masses --      1.0984                 1.0975                 1.0975
 Frc consts  --      6.5321                 6.5702                 6.5702
 IR Inten    --      0.0034                 1.4721                 0.3149

 - Thermochemistry -
 -------------------
 Temperature   298.150 Kelvin.  Pressure   1.00000 Atm.
 Atom     1 has atomic number  6 and mass  12.00000

 Molecular mass:   172.09603 amu.
 Principal axes and moments of inertia in atomic units:
                           1         2         3
     Eigenvalues --   831.707473959.586974689.48942
           X            0.99974   0.02270  -0.00376
           Y           -0.02268   0.99972   0.00616
           Z            0.00390  -0.00607   0.99997
 This molecule is an asymmetric top.
 Rotational symmetry number  1.
 Warning -- assumption of classical behavior for rotation
           may cause significant error
 Rotational temperatures (Kelvin)      0.10414     0.02187     0.01847
 Rotational constants (GHZ):           2.16992     0.45579     0.38485
 Zero-point vibrational energy     513869.1 (Joules/Mol)
                                  122.81766 (Kcal/Mol)
 Warning -- explicit consideration of  21 degrees of freedom as
           vibrations may cause significant error
 Vibrational temperatures:     32.68    73.91    87.31   103.02   149.21
          (Kelvin)            151.17   156.95   217.98   219.24   282.86
                              326.02   364.11   376.87   427.31   472.42
                              550.50   565.04   664.04   836.76   838.21
                              862.26  1000.26  1109.85  1149.93  1328.70
                             1435.43  1443.90  1574.02  1574.30  1638.49
                             1638.62  1672.80  1689.93  1711.08  1711.39
                             1857.91  1860.45  2080.42  2089.60  2098.59
                             2098.63  2149.13  2150.81  2178.09  2178.10
                             2197.26  2197.48  2200.17  2200.41  2249.81
                             2251.60  2383.43  2566.59  2596.76  4368.04
                             4368.04  4376.75  4377.69  4443.42  4443.61
                             4447.51  4447.53  4570.58  4571.02  4586.27
                             4586.29

 Zero-point correction=                           0.195722 (Hartree/Particle)
 Thermal correction to Energy=                    0.210246
 Thermal correction to Enthalpy=                  0.211190
 Thermal correction to Gibbs Free Energy=         0.152512
 Sum of electronic and zero-point Energies=           -605.083608
 Sum of electronic and thermal Energies=              -605.069084
 Sum of electronic and thermal Enthalpies=            -605.068140
 Sum of electronic and thermal Free Energies=         -605.126818

                     E (Thermal)             CV                S
                      KCal/Mol        Cal/Mol-Kelvin    Cal/Mol-Kelvin
 Total                  131.931             48.237            123.498
 Electronic               0.000              0.000              0.000
 Translational            0.889              2.981             41.336
 Rotational               0.889              2.981             31.113
 Vibrational            130.154             42.275             51.049
 Vibration     1          0.593              1.985              6.382
 Vibration     2          0.596              1.977              4.764
 Vibration     3          0.597              1.973              4.435
 Vibration     4          0.598              1.968              4.109
 Vibration     5          0.605              1.946              3.383
 Vibration     6          0.605              1.945              3.358
 Vibration     7          0.606              1.942              3.285
 Vibration     8          0.619              1.901              2.653
 Vibration     9          0.619              1.900              2.642
 Vibration    10          0.636              1.845              2.165
 Vibration    11          0.650              1.800              1.906
 Vibration    12          0.664              1.758              1.709
 Vibration    13          0.669              1.742              1.649
 Vibration    14          0.691              1.679              1.434
 Vibration    15          0.712              1.619              1.268
 Vibration    16          0.752              1.507              1.029
 Vibration    17          0.760              1.486              0.990
 Vibration    18          0.819              1.335              0.762
 Vibration    19          0.938              1.071              0.482
 Vibration    20          0.939              1.069              0.481
 Vibration    21          0.957              1.033              0.451

 Optimization completed.
    -- Stationary point found.
 Normal termination of Gaussian 16 at Sat Aug 22 18:21:42 2020.
 Gaussian 16:  ES64L-G16RevA.03 25-Dec-2016

 ----------------------------------------------------------------------
 # TD(NStates=10, Root=1) B3LYP/6-31G* scf=qc volume pop=NPA density=cu
 rrent Geom=AllCheck Guess=Read
 ----------------------------------------------------------------------

 Structure from the checkpoint file:  "azadicarboxylate_6_conf233.chk"
 -------------------
 Title Card Required
 -------------------
 Charge =  0 Multiplicity = 1

                         Standard orientation:
 ---------------------------------------------------------------------
 Center     Atomic      Atomic             Coordinates (Angstroms)
 Number     Number       Type             X           Y           Z
 ---------------------------------------------------------------------
      1          6           0       -1.671578    0.634949   -0.144129
      2          8           0       -1.697927    1.853605   -0.094302
      3          7           0       -0.413765   -0.042188   -0.462324
      4          7           0        0.413681    0.042313    0.461980
      5          6           0        1.671475   -0.634879    0.143766
      6          8           0        1.697680   -1.853516    0.093363
      7          7           0        2.732637    0.205545    0.052198
      8          6           0        2.615921    1.658475    0.071042
      9          6           0        4.059226   -0.351680   -0.166322
     10          7           0       -2.732580   -0.205588   -0.051916
     11          6           0       -2.615632   -1.658504   -0.070178
     12          6           0       -4.059222    0.351529    0.166538
     13          1           0        1.596028    1.956147    0.314900
     14          1           0        2.881795    2.080017   -0.907329
     15          1           0        3.294968    2.075869    0.824604
     16          1           0        3.988109   -1.438719   -0.143695
     17          1           0        4.744936   -0.010994    0.619499
     18          1           0        4.456219   -0.032201   -1.138415
     19          1           0       -1.595720   -1.956129   -0.314019
     20          1           0       -3.294675   -2.076326   -0.823507
     21          1           0       -2.881343   -2.079685    0.908392
     22          1           0       -3.988252    1.438571    0.143504
     23          1           0       -4.456062    0.032351    1.138790
     24          1           0       -4.744975    0.010468   -0.619085
 ---------------------------------------------------------------------

 SCF Done:  E(RB3LYP) =  -605.279330112     a.u. after    1 cycles

 Excitation energies and oscillator strengths:

 Excited State   1:      Singlet-A      2.6052 eV  475.90 nm  f=0.0000  <S**2>=0.000
      46 -> 47         0.69816
 This state for optimization and/or second-order correction.
 Total Energy, E(TD-HF/TD-DFT) =  -605.183589350
 Copying the excited state density for this state as the 1-particle RhoCI density.

 Excited State   2:      Singlet-A      3.8806 eV  319.50 nm  f=0.0000  <S**2>=0.000
      44 -> 47         0.70053

 Excited State   3:      Singlet-A      3.8876 eV  318.92 nm  f=0.0066  <S**2>=0.000
      45 -> 47         0.70094

 Excited State   4:      Singlet-A      4.3024 eV  288.18 nm  f=0.0297  <S**2>=0.000
      43 -> 47         0.69233

 Excited State   5:      Singlet-A      4.9902 eV  248.45 nm  f=0.0000  <S**2>=0.000
      42 -> 47         0.68511
      46 -> 49        -0.11431

 Excited State   6:      Singlet-A      5.8216 eV  212.97 nm  f=0.0481  <S**2>=0.000
      43 -> 49         0.19007
      46 -> 48         0.67020

 Excited State   7:      Singlet-A      5.8917 eV  210.44 nm  f=0.0000  <S**2>=0.000
      42 -> 47         0.12999
      43 -> 48         0.19846
      46 -> 49         0.65627

 Excited State   8:      Singlet-A      6.7261 eV  184.33 nm  f=0.1196  <S**2>=0.000
      40 -> 47        -0.19300
      41 -> 47         0.63172
      43 -> 49        -0.15771
      44 -> 48        -0.10202

 Excited State   9:      Singlet-A      6.9079 eV  179.48 nm  f=0.0000  <S**2>=0.000
      39 -> 47        -0.11073
      42 -> 49        -0.26189
      43 -> 48         0.57984
      44 -> 49         0.12041
      45 -> 48         0.12294
      46 -> 49        -0.22122

 Excited State  10:      Singlet-A      6.9233 eV  179.08 nm  f=0.0078  <S**2>=0.000
      41 -> 47         0.13240
      42 -> 48        -0.26504
      43 -> 49         0.55562
      45 -> 49         0.21786
      46 -> 48        -0.20273

 The electronic state is 1-A.
 Alpha  occ. eigenvalues --  -19.12473 -19.12472 -14.40716 -14.40665 -14.37974
 Alpha  occ. eigenvalues --  -14.37974 -10.31285 -10.31285 -10.22755 -10.22755
 Alpha  occ. eigenvalues --  -10.22269 -10.22269  -1.08632  -1.05002  -1.01178
 Alpha  occ. eigenvalues --   -0.94986  -0.94815  -0.77931  -0.73450  -0.72911
 Alpha  occ. eigenvalues --   -0.71230  -0.67431  -0.57924  -0.54610  -0.52852
 Alpha  occ. eigenvalues --   -0.50074  -0.48674  -0.48407  -0.47426  -0.46757
 Alpha  occ. eigenvalues --   -0.43297  -0.43266  -0.41278  -0.41278  -0.41160
 Alpha  occ. eigenvalues --   -0.41066  -0.41060  -0.39430  -0.38280  -0.38166
 Alpha  occ. eigenvalues --   -0.35964  -0.30281  -0.27253  -0.25248  -0.25173
 Alpha  occ. eigenvalues --   -0.22806
 Alpha virt. eigenvalues --   -0.07390   0.03339   0.03374   0.08944   0.09049
 Alpha virt. eigenvalues --    0.13444   0.13519   0.14157   0.14254   0.14813
 Alpha virt. eigenvalues --    0.15112   0.15657   0.15667   0.16954   0.17003

 Mulliken charges:
               1
     1  C    0.704207
     2  O   -0.463686
     3  N   -0.277716
     4  N   -0.277733
     5  C    0.704239
     6  O   -0.463698
     7  N   -0.386810
     8  C   -0.322030
     9  C   -0.320153
    10  N   -0.386784
    11  C   -0.322042
    12  C   -0.320155
    13  H    0.219710
    14  H    0.160690
    15  H    0.158812
    16  H    0.203669
    17  H    0.160977
    18  H    0.162315
    19  H    0.219725
    20  H    0.158813
    21  H    0.160687
    22  H    0.203669
    23  H    0.162313
    24  H    0.160981
 Sum of Mulliken charges =   0.00000

 Dipole moment (field-independent basis, Debye):
    X=              0.0003    Y=             -0.0003    Z=              0.0018  Tot=              0.0019
 Quadrupole moment (field-independent basis, Debye-Ang):
   XX=            -46.6835   YY=            -77.3295   ZZ=            -70.9913
   XY=             10.5425   XZ=             -1.1213   YZ=              0.4905

 Summary of Natural Population Analysis:

                                       Natural Population
                Natural  -----------------------------------------------
    Atom  No    Charge         Core      Valence    Rydberg      Total
 -----------------------------------------------------------------------
      C    1    0.79151      1.99935     3.16274    0.04640     5.20849
      O    2   -0.56890      1.99979     6.55041    0.01871     8.56890
      N    3   -0.24641      1.99941     5.22069    0.02631     7.24641
      N    4   -0.24644      1.99941     5.22072    0.02631     7.24644
      C    5    0.79150      1.99935     3.16276    0.04640     5.20850
      O    6   -0.56891      1.99979     6.55042    0.01871     8.56891
      N    7   -0.45844      1.99930     5.44839    0.01076     7.45844
      C    8   -0.47244      1.99945     4.46122    0.01177     6.47244
      C    9   -0.47032      1.99947     4.45889    0.01196     6.47032
      N   10   -0.45844      1.99930     5.44839    0.01076     7.45844
      C   11   -0.47244      1.99945     4.46122    0.01177     6.47244
      C   12   -0.47032      1.99947     4.45890    0.01196     6.47032
      H   13    0.26602      0.00000     0.73208    0.00190     0.73398
      H   14    0.22334      0.00000     0.77511    0.00155     0.77666
      H   15    0.22548      0.00000     0.77316    0.00135     0.77452
      H   16    0.26036      0.00000     0.73793    0.00171     0.73964
      H   17    0.22533      0.00000     0.77339    0.00128     0.77467
      H   18    0.22449      0.00000     0.77424    0.00127     0.77551
      H   19    0.26602      0.00000     0.73208    0.00190     0.73398
      H   20    0.22548      0.00000     0.77316    0.00135     0.77452
      H   21    0.22334      0.00000     0.77511    0.00155     0.77666
      H   22    0.26036      0.00000     0.73793    0.00171     0.73964
      H   23    0.22449      0.00000     0.77424    0.00127     0.77551
      H   24    0.22533      0.00000     0.77339    0.00128     0.77467
 =======================================================================
   * Total *    0.00000     23.99350    67.73657    0.26992    92.00000

 Normal termination of Gaussian 16 at Sat Aug 22 18:27:12 2020.
