 Gaussian 16, Revision A.03,

 ---------------------------------
 # opt=CalcAll B3LYP/6-31G* scf=qc
 ---------------------------------

 -------------------
 Title Card Required
 -------------------
 Symbolic Z-matrix:
 Charge =  0 Multiplicity = 1

 SCF Done:  E(RB3LYP) =  -605.145692844     a.u. after    9 cycles
 SCF Done:  E(RB3LYP) =  -605.172878949     a.u. after   23 cycles
 SCF Done:  E(RB3LYP) =  -605.230710932     a.u. after   27 cycles
 SCF Done:  E(RB3LYP) =  -605.256760963     a.u. after   27 cycles
 SCF Done:  E(RB3LYP) =  -605.267213218     a.u. after   25 cycles
 SCF Done:  E(RB3LYP) =  -605.275115167     a.u. after   19 cycles
 SCF Done:  E(RB3LYP) =  -605.277888339     a.u. after   17 cycles
 SCF Done:  E(RB3LYP) =  -605.278972195     a.u. after   15 cycles
 SCF Done:  E(RB3LYP) =  -605.279256213     a.u. after   13 cycles
 SCF Done:  E(RB3LYP) =  -605.279323755     a.u. after    9 cycles
 SCF Done:  E(RB3LYP) =  -605.279328800     a.u. after    5 cycles
 SCF Done:  E(RB3LYP) =  -605.279330096     a.u. after    4 cycles
 SCF Done:  E(RB3LYP) =  -605.279330115     a.u. after    2 cycles
 Optimization completed.
    -- Stationary point found.
 Normal termination of Gaussian 16 at Sat Aug 22 18:40:25 2020.

 ----------------------------------------------------------------------
 # freq B3LYP/6-31G* scf=qc volume NMR pop=NPA density=current Geom=All
 Check Guess=Read
 ----------------------------------------------------------------------

 Structure from the checkpoint file:  "azadicarboxylate_6_conf32.chk"
 -------------------
 Title Card Required
 -------------------
 Charge =  0 Multiplicity = 1

 SCF Done:  E(RB3LYP) =  -605.279330115     a.u. after    1 cycles

      1  C    Isotropic =    35.5291   Anisotropy =    81.0164

      2  O    Isotropic =    -2.0172   Anisotropy =   439.3393

      3  N    Isotropic =  -357.3304   Anisotropy =   735.8088

      4  N    Isotropic =  -357.3198   Anisotropy =   735.7973

      5  C    Isotropic =    35.5297   Anisotropy =    81.0174

      6  O    Isotropic =    -2.0173   Anisotropy =   439.3338

      7  N    Isotropic =   164.3574   Anisotropy =    80.6877

      8  C    Isotropic =   156.2407   Anisotropy =    48.9306

      9  C    Isotropic =   156.2150   Anisotropy =    46.0126

     10  N    Isotropic =   164.3584   Anisotropy =    80.6897

     11  C    Isotropic =   156.2153   Anisotropy =    46.0118

     12  C    Isotropic =   156.2409   Anisotropy =    48.9308

     13  H    Isotropic =    28.0473   Anisotropy =     6.4816

     14  H    Isotropic =    29.9319   Anisotropy =     8.7870

     15  H    Isotropic =    29.8739   Anisotropy =     8.2982

     16  H    Isotropic =    29.2318   Anisotropy =     8.0910

     17  H    Isotropic =    29.7884   Anisotropy =     8.1469

     18  H    Isotropic =    29.8634   Anisotropy =     8.5518

     19  H    Isotropic =    29.2318   Anisotropy =     8.0910

     20  H    Isotropic =    29.8635   Anisotropy =     8.5517

     21  H    Isotropic =    29.7885   Anisotropy =     8.1469

     22  H    Isotropic =    28.0474   Anisotropy =     6.4816

     23  H    Isotropic =    29.8739   Anisotropy =     8.2984

     24  H    Isotropic =    29.9320   Anisotropy =     8.7869

  Exact polarizability: 137.975  -6.502  98.264   1.115   0.143  63.610
 Approx polarizability: 156.823 -11.148 160.813   5.915   0.181  97.926

                      1                      2                      3
                      A                      A                      A
 Frequencies --     22.7165                51.3374                60.6915
 Red. masses --      4.8442                 6.5560                 4.3800
 Frc consts  --      0.0015                 0.0102                 0.0095
 IR Inten    --      9.6763                 0.0000                 9.4481

                      4                      5                      6
                      A                      A                      A
 Frequencies --     71.6015               103.7099               105.0794
 Red. masses --      2.7753                 1.7463                 1.4325
 Frc consts  --      0.0084                 0.0111                 0.0093
 IR Inten    --      0.3654                 0.0000                 0.0369

                      7                      8                      9
                      A                      A                      A
 Frequencies --    109.0989               151.5105               152.3801
 Red. masses --      2.0143                 1.0575                 1.0907
 Frc consts  --      0.0141                 0.0143                 0.0149
 IR Inten    --      0.0000                 0.2722                 0.0000

                     10                     11                     12
                      A                      A                      A
 Frequencies --    196.6000               226.5949               253.0741
 Red. masses --      2.9861                 2.3590                 4.9216
 Frc consts  --      0.0680                 0.0714                 0.1857
 IR Inten    --      0.6023                 0.0000                 0.0000

                     13                     14                     15
                      A                      A                      A
 Frequencies --    261.9375               296.9938               328.3487
 Red. masses --      3.0788                 3.7704                 4.1767
 Frc consts  --      0.1245                 0.1959                 0.2653
 IR Inten    --     11.7887                 0.0000                29.8229

                     16                     17                     18
                      A                      A                      A
 Frequencies --    382.6202               392.7222               461.5167
 Red. masses --      3.1510                 2.5415                 4.5287
 Frc consts  --      0.2718                 0.2309                 0.5683
 IR Inten    --      0.0000                 2.8023                 0.0000

                     19                     20                     21
                      A                      A                      A
 Frequencies --    581.5801               582.5852               599.2948
 Red. masses --      9.5717                 7.1898                 6.7315
 Frc consts  --      1.9075                 1.4377                 1.4244
 IR Inten    --      0.0005                26.2781                 8.2744

                     22                     23                     24
                      A                      A                      A
 Frequencies --    695.2044               771.3776               799.2494
 Red. masses --      5.9246                 7.4609                11.3886
 Frc consts  --      1.6871                 2.6156                 4.2863
 IR Inten    --      0.0000                 7.9996                20.7425

                     25                     26                     27
                      A                      A                      A
 Frequencies --    923.4928               997.6593              1003.5502
 Red. masses --      6.2767                 4.7010                 3.0349
 Frc consts  --      3.1539                 2.7568                 1.8008
 IR Inten    --      0.0000                 0.0000                13.4355

                     28                     29                     30
                      A                      A                      A
 Frequencies --   1093.9963              1094.1870              1138.8050
 Red. masses --      1.3831                 1.3884                 1.2195
 Frc consts  --      0.9753                 0.9793                 0.9318
 IR Inten    --     11.9842                 0.0000                 0.0000

                     31                     32                     33
                      A                      A                      A
 Frequencies --   1138.9000              1162.6376              1174.5415
 Red. masses --      1.2187                 2.1501                 2.4308
 Frc consts  --      0.9314                 1.7124                 1.9758
 IR Inten    --      0.3640                 0.0001               415.8802

                     34                     35                     36
                      A                      A                      A
 Frequencies --   1189.2590              1189.4786              1291.3101
 Red. masses --      1.3688                 1.3911                 5.7898
 Frc consts  --      1.1407                 1.1596                 5.6882
 IR Inten    --      0.0000                21.5139               133.5177

                     37                     38                     39
                      A                      A                      A
 Frequencies --   1293.0787              1445.9492              1452.3279
 Red. masses --      5.5932                 2.8319                 2.7544
 Frc consts  --      5.5101                 3.4885                 3.4230
 IR Inten    --      0.0000               359.2193                 0.0001

                     40                     41                     42
                      A                      A                      A
 Frequencies --   1458.5904              1458.6167              1493.7116
 Red. masses --      1.1529                 1.1603                 1.1803
 Frc consts  --      1.4452                 1.4544                 1.5516
 IR Inten    --     16.4077                 0.0001                22.4893

                     43                     44                     45
                      A                      A                      A
 Frequencies --   1494.8770              1513.8487              1513.8594
 Red. masses --      1.1968                 1.0464                 1.0448
 Frc consts  --      1.5757                 1.4129                 1.4107
 IR Inten    --      0.0001                 0.1200                 4.3330

                     46                     47                     48
                      A                      A                      A
 Frequencies --   1527.1752              1527.3285              1529.1893
 Red. masses --      1.0482                 1.0489                 1.0465
 Frc consts  --      1.4404                 1.4416                 1.4419
 IR Inten    --      0.0017                28.7365                 0.0009

                     49                     50                     51
                      A                      A                      A
 Frequencies --   1529.3561              1563.6879              1564.9336
 Red. masses --      1.0458                 1.2511                 1.2403
 Frc consts  --      1.4412                 1.8023                 1.7896
 IR Inten    --     33.7865                 0.0000                58.3708

                     52                     53                     54
                      A                      A                      A
 Frequencies --   1656.5755              1783.8639              1804.8324
 Red. masses --     13.0583                10.6259                10.8336
 Frc consts  --     21.1135                19.9222                20.7921
 IR Inten    --      0.0000                 0.0000               772.0843

                     55                     56                     57
                      A                      A                      A
 Frequencies --   3035.9347              3035.9357              3041.9881
 Red. masses --      1.0382                 1.0381                 1.0388
 Frc consts  --      5.6376                 5.6376                 5.6638
 IR Inten    --     45.5738                 0.0040               168.6823

                     58                     59                     60
                      A                      A                      A
 Frequencies --   3042.6421              3088.3315              3088.4663
 Red. masses --      1.0389                 1.1041                 1.1042
 Frc consts  --      5.6665                 6.2047                 6.2055
 IR Inten    --      0.0000                 0.0028               120.2112

                     61                     62                     63
                      A                      A                      A
 Frequencies --   3091.1710              3091.1891              3176.7045
 Red. masses --      1.1052                 1.1052                 1.0983
 Frc consts  --      6.2223                 6.2224                 6.5303
 IR Inten    --      4.2094                 0.0024                 8.3670

                     64                     65                     66
                      A                      A                      A
 Frequencies --   3177.0038              3187.6251              3187.6350
 Red. masses --      1.0984                 1.0975                 1.0975
 Frc consts  --      6.5320                 6.5702                 6.5702
 IR Inten    --      0.0004                 1.7823                 0.0047

 - Thermochemistry -
 -------------------
 Temperature   298.150 Kelvin.  Pressure   1.00000 Atm.
 Atom     1 has atomic number  6 and mass  12.00000

 Molecular mass:   172.09603 amu.
 Principal axes and moments of inertia in atomic units:
                           1         2         3
     Eigenvalues --   831.702413959.670174689.56191
           X            0.99974  -0.02270  -0.00376
           Y            0.02268   0.99972  -0.00616
           Z            0.00390   0.00607   0.99997
 This molecule is an asymmetric top.
 Rotational symmetry number  1.
 Warning -- assumption of classical behavior for rotation
           may cause significant error
 Rotational temperatures (Kelvin)      0.10414     0.02187     0.01847
 Rotational constants (GHZ):           2.16994     0.45578     0.38484
 Zero-point vibrational energy     513868.3 (Joules/Mol)
                                  122.81747 (Kcal/Mol)
 Warning -- explicit consideration of  21 degrees of freedom as
           vibrations may cause significant error
 Vibrational temperatures:     32.68    73.86    87.32   103.02   149.22
          (Kelvin)            151.19   156.97   217.99   219.24   282.86
                              326.02   364.12   376.87   427.31   472.42
                              550.51   565.04   664.02   836.76   838.21
                              862.25  1000.24  1109.84  1149.94  1328.70
                             1435.41  1443.88  1574.02  1574.29  1638.49
                             1638.62  1672.78  1689.90  1711.08  1711.39
                             1857.91  1860.45  2080.40  2089.58  2098.59
                             2098.62  2149.12  2150.79  2178.09  2178.11
                             2197.26  2197.49  2200.16  2200.40  2249.80
                             2251.59  2383.44  2566.58  2596.75  4368.03
                             4368.03  4376.74  4377.68  4443.42  4443.61
                             4447.51  4447.53  4570.57  4571.00  4586.28
                             4586.30

 Zero-point correction=                           0.195722 (Hartree/Particle)
 Thermal correction to Energy=                    0.210246
 Thermal correction to Enthalpy=                  0.211190
 Thermal correction to Gibbs Free Energy=         0.152512
 Sum of electronic and zero-point Energies=           -605.083608
 Sum of electronic and thermal Energies=              -605.069084
 Sum of electronic and thermal Enthalpies=            -605.068140
 Sum of electronic and thermal Free Energies=         -605.126818

                     E (Thermal)             CV                S
                      KCal/Mol        Cal/Mol-Kelvin    Cal/Mol-Kelvin
 Total                  131.931             48.237            123.498
 Electronic               0.000              0.000              0.000
 Translational            0.889              2.981             41.336
 Rotational               0.889              2.981             31.113
 Vibrational            130.154             42.276             51.049
 Vibration     1          0.593              1.985              6.381
 Vibration     2          0.596              1.977              4.765
 Vibration     3          0.597              1.973              4.435
 Vibration     4          0.598              1.968              4.109
 Vibration     5          0.605              1.946              3.383
 Vibration     6          0.605              1.945              3.358
 Vibration     7          0.606              1.942              3.285
 Vibration     8          0.619              1.901              2.653
 Vibration     9          0.619              1.900              2.642
 Vibration    10          0.636              1.845              2.165
 Vibration    11          0.650              1.800              1.906
 Vibration    12          0.664              1.758              1.709
 Vibration    13          0.669              1.742              1.649
 Vibration    14          0.691              1.679              1.434
 Vibration    15          0.712              1.619              1.268
 Vibration    16          0.752              1.507              1.029
 Vibration    17          0.760              1.486              0.990
 Vibration    18          0.819              1.335              0.762
 Vibration    19          0.938              1.071              0.482
 Vibration    20          0.939              1.069              0.481
 Vibration    21          0.957              1.033              0.451

 Optimization completed.
    -- Stationary point found.
 Normal termination of Gaussian 16 at Sat Aug 22 18:45:02 2020.
 Gaussian 16:  ES64L-G16RevA.03 25-Dec-2016

 ----------------------------------------------------------------------
 # TD(NStates=10, Root=1) B3LYP/6-31G* scf=qc volume pop=NPA density=cu
 rrent Geom=AllCheck Guess=Read
 ----------------------------------------------------------------------

 Structure from the checkpoint file:  "azadicarboxylate_6_conf33.chk"
 -------------------
 Title Card Required
 -------------------
 Charge =  0 Multiplicity = 1

                         Standard orientation:
 ---------------------------------------------------------------------
 Center     Atomic      Atomic             Coordinates (Angstroms)
 Number     Number       Type             X           Y           Z
 ---------------------------------------------------------------------
      1          6           0       -1.671556   -0.634915   -0.144047
      2          8           0       -1.697846   -1.853562   -0.093999
      3          7           0       -0.413748    0.042302   -0.462191
      4          7           0        0.413726   -0.042363    0.462069
      5          6           0        1.671519    0.634875    0.143935
      6          8           0        1.697743    1.853520    0.093749
      7          7           0        2.732663   -0.205548    0.052171
      8          6           0        4.059234    0.351693   -0.166402
      9          6           0        2.615915   -1.658479    0.070687
     10          7           0       -2.732642    0.205565   -0.052068
     11          6           0       -2.615808    1.658490   -0.070551
     12          6           0       -4.059230   -0.351612    0.166570
     13          1           0        3.988138    1.438730   -0.143558
     14          1           0        4.456108    0.032396   -1.138604
     15          1           0        4.745032    0.010844    0.619272
     16          1           0        1.596094   -1.956185    0.314813
     17          1           0        3.295189   -2.076061    0.823937
     18          1           0        2.881468   -2.079805   -0.907866
     19          1           0       -1.595992    1.956151   -0.314749
     20          1           0       -2.881256    2.079799    0.908037
     21          1           0       -3.295113    2.076138   -0.823739
     22          1           0       -3.988192   -1.438652    0.143732
     23          1           0       -4.745053   -0.010739   -0.619072
     24          1           0       -4.456037   -0.032284    1.138788
 ---------------------------------------------------------------------

 SCF Done:  E(RB3LYP) =  -605.279330115     a.u. after    1 cycles

 Excitation energies and oscillator strengths:

 Excited State   1:      Singlet-A      2.6051 eV  475.93 nm  f=0.0000  <S**2>=0.000
      46 -> 47         0.69816
 This state for optimization and/or second-order correction.
 Total Energy, E(TD-HF/TD-DFT) =  -605.183594150
 Copying the excited state density for this state as the 1-particle RhoCI density.

 Excited State   2:      Singlet-A      3.8806 eV  319.50 nm  f=0.0000  <S**2>=0.000
      44 -> 47         0.70056

 Excited State   3:      Singlet-A      3.8876 eV  318.92 nm  f=0.0066  <S**2>=0.000
      45 -> 47         0.70098

 Excited State   4:      Singlet-A      4.3022 eV  288.19 nm  f=0.0297  <S**2>=0.000
      43 -> 47         0.69233

 Excited State   5:      Singlet-A      4.9901 eV  248.46 nm  f=0.0000  <S**2>=0.000
      42 -> 47         0.68512
      46 -> 49        -0.11428

 Excited State   6:      Singlet-A      5.8215 eV  212.98 nm  f=0.0481  <S**2>=0.000
      43 -> 49        -0.19006
      46 -> 48         0.67022

 Excited State   7:      Singlet-A      5.8918 eV  210.44 nm  f=0.0000  <S**2>=0.000
      42 -> 47         0.12997
      43 -> 48        -0.19848
      46 -> 49         0.65629

 Excited State   8:      Singlet-A      6.7260 eV  184.33 nm  f=0.1197  <S**2>=0.000
      40 -> 47         0.19301
      41 -> 47         0.63172
      43 -> 49         0.15769
      44 -> 48         0.10200

 Excited State   9:      Singlet-A      6.9079 eV  179.48 nm  f=0.0000  <S**2>=0.000
      39 -> 47         0.11075
      42 -> 49        -0.26189
      43 -> 48         0.57986
      44 -> 49         0.12036
      45 -> 48         0.12293
      46 -> 49         0.22125

 Excited State  10:      Singlet-A      6.9234 eV  179.08 nm  f=0.0078  <S**2>=0.000
      41 -> 47        -0.13238
      42 -> 48        -0.26509
      43 -> 49         0.55562
      45 -> 49         0.21786
      46 -> 48         0.20275

 The electronic state is 1-A.
 Alpha  occ. eigenvalues --  -19.12472 -19.12472 -14.40716 -14.40665 -14.37974
 Alpha  occ. eigenvalues --  -14.37974 -10.31285 -10.31285 -10.22755 -10.22755
 Alpha  occ. eigenvalues --  -10.22269 -10.22269  -1.08632  -1.05002  -1.01178
 Alpha  occ. eigenvalues --   -0.94986  -0.94815  -0.77930  -0.73450  -0.72911
 Alpha  occ. eigenvalues --   -0.71230  -0.67431  -0.57923  -0.54610  -0.52852
 Alpha  occ. eigenvalues --   -0.50074  -0.48674  -0.48407  -0.47426  -0.46757
 Alpha  occ. eigenvalues --   -0.43297  -0.43265  -0.41278  -0.41278  -0.41160
 Alpha  occ. eigenvalues --   -0.41065  -0.41060  -0.39430  -0.38280  -0.38166
 Alpha  occ. eigenvalues --   -0.35963  -0.30281  -0.27252  -0.25248  -0.25173
 Alpha  occ. eigenvalues --   -0.22806
 Alpha virt. eigenvalues --   -0.07390   0.03339   0.03374   0.08944   0.09049
 Alpha virt. eigenvalues --    0.13444   0.13519   0.14157   0.14254   0.14813
 Alpha virt. eigenvalues --    0.15112   0.15657   0.15667   0.16954   0.17003

 Mulliken charges:
               1
     1  C    0.704224
     2  O   -0.463687
     3  N   -0.277725
     4  N   -0.277725
     5  C    0.704232
     6  O   -0.463693
     7  N   -0.386807
     8  C   -0.320154
     9  C   -0.322031
    10  N   -0.386801
    11  C   -0.322033
    12  C   -0.320154
    13  H    0.203669
    14  H    0.162313
    15  H    0.160978
    16  H    0.219711
    17  H    0.158812
    18  H    0.160691
    19  H    0.219716
    20  H    0.160692
    21  H    0.158811
    22  H    0.203669
    23  H    0.160979
    24  H    0.162313
 Sum of Mulliken charges =  -0.00000

 Dipole moment (field-independent basis, Debye):
    X=              0.0001    Y=              0.0001    Z=              0.0005  Tot=              0.0005
 Quadrupole moment (field-independent basis, Debye-Ang):
   XX=            -46.6831   YY=            -77.3291   ZZ=            -70.9912
   XY=            -10.5423   XZ=             -1.1221   YZ=             -0.4909

 Summary of Natural Population Analysis:

                                       Natural Population
                Natural  -----------------------------------------------
    Atom  No    Charge         Core      Valence    Rydberg      Total
 -----------------------------------------------------------------------
      C    1    0.79151      1.99935     3.16275    0.04640     5.20849
      O    2   -0.56890      1.99979     6.55041    0.01871     8.56890
      N    3   -0.24643      1.99941     5.22070    0.02631     7.24643
      N    4   -0.24643      1.99941     5.22071    0.02631     7.24643
      C    5    0.79150      1.99935     3.16275    0.04640     5.20850
      O    6   -0.56891      1.99979     6.55041    0.01871     8.56891
      N    7   -0.45844      1.99930     5.44839    0.01076     7.45844
      C    8   -0.47032      1.99947     4.45889    0.01196     6.47032
      C    9   -0.47244      1.99945     4.46122    0.01177     6.47244
      N   10   -0.45844      1.99930     5.44839    0.01076     7.45844
      C   11   -0.47244      1.99945     4.46122    0.01177     6.47244
      C   12   -0.47032      1.99947     4.45889    0.01196     6.47032
      H   13    0.26036      0.00000     0.73793    0.00171     0.73964
      H   14    0.22449      0.00000     0.77424    0.00127     0.77551
      H   15    0.22533      0.00000     0.77339    0.00128     0.77467
      H   16    0.26602      0.00000     0.73208    0.00190     0.73398
      H   17    0.22549      0.00000     0.77316    0.00135     0.77451
      H   18    0.22334      0.00000     0.77511    0.00155     0.77666
      H   19    0.26602      0.00000     0.73208    0.00190     0.73398
      H   20    0.22334      0.00000     0.77511    0.00155     0.77666
      H   21    0.22548      0.00000     0.77316    0.00135     0.77452
      H   22    0.26036      0.00000     0.73793    0.00171     0.73964
      H   23    0.22533      0.00000     0.77339    0.00128     0.77467
      H   24    0.22449      0.00000     0.77424    0.00127     0.77551
 =======================================================================
   * Total *   -0.00000     23.99350    67.73658    0.26992    92.00000

 Normal termination of Gaussian 16 at Sat Aug 22 18:50:28 2020.
