 Gaussian 16, Revision A.03,

 ---------------------------------
 # opt=CalcAll B3LYP/6-31G* scf=qc
 ---------------------------------

 -------------------
 Title Card Required
 -------------------
 Symbolic Z-matrix:
 Charge =  0 Multiplicity = 1

 SCF Done:  E(RB3LYP) =  -723.597961652     a.u. after   10 cycles
 SCF Done:  E(RB3LYP) =  -723.610314722     a.u. after   17 cycles
 SCF Done:  E(RB3LYP) =  -723.639930876     a.u. after   15 cycles
 SCF Done:  E(RB3LYP) =  -723.646972746     a.u. after   19 cycles
 SCF Done:  E(RB3LYP) =  -723.648614117     a.u. after   21 cycles
 SCF Done:  E(RB3LYP) =  -723.648959729     a.u. after   11 cycles
 SCF Done:  E(RB3LYP) =  -723.648881811     a.u. after   19 cycles
 SCF Done:  E(RB3LYP) =  -723.649104171     a.u. after    9 cycles
 SCF Done:  E(RB3LYP) =  -723.649124280     a.u. after    6 cycles
 SCF Done:  E(RB3LYP) =  -723.649124348     a.u. after    5 cycles
 SCF Done:  E(RB3LYP) =  -723.649124200     a.u. after    3 cycles
 Optimization completed on the basis of negligible forces.
    -- Stationary point found.
 Normal termination of Gaussian 16 at Sat Aug 22 14:09:37 2020.

 ----------------------------------------------------------------------
 # freq B3LYP/6-31G* scf=qc volume NMR pop=NPA density=current Geom=All
 Check Guess=Read
 ----------------------------------------------------------------------

 Structure from the checkpoint file:  "azadicarboxylate_2_conf282.chk"
 -------------------
 Title Card Required
 -------------------
 Charge =  0 Multiplicity = 1

 SCF Done:  E(RB3LYP) =  -723.649124200     a.u. after    1 cycles

      1  C    Isotropic =   168.3510   Anisotropy =    31.2890

      2  C    Isotropic =   118.4886   Anisotropy =    64.3553

      3  C    Isotropic =   168.2951   Anisotropy =    30.0536

      4  O    Isotropic =   134.6773   Anisotropy =   113.5491

      5  C    Isotropic =    35.1032   Anisotropy =    85.7257

      6  O    Isotropic =   -21.1756   Anisotropy =   497.4166

      7  N    Isotropic =  -318.7230   Anisotropy =   668.0333

      8  N    Isotropic =  -323.3055   Anisotropy =   672.2672

      9  C    Isotropic =    35.5276   Anisotropy =    80.4038

     10  O    Isotropic =   -27.6068   Anisotropy =   483.7593

     11  O    Isotropic =   139.6483   Anisotropy =   141.7191

     12  C    Isotropic =   113.3145   Anisotropy =    72.2065

     13  C    Isotropic =   170.6268   Anisotropy =    27.4982

     14  C    Isotropic =   169.6179   Anisotropy =    27.8955

     15  H    Isotropic =    31.1726   Anisotropy =     8.7424

     16  H    Isotropic =    31.0553   Anisotropy =     6.6812

     17  H    Isotropic =    30.3655   Anisotropy =     7.1186

     18  H    Isotropic =    26.9897   Anisotropy =     2.6770

     19  H    Isotropic =    30.8006   Anisotropy =     6.5017

     20  H    Isotropic =    31.1067   Anisotropy =     8.4463

     21  H    Isotropic =    30.7129   Anisotropy =     8.4542

     22  H    Isotropic =    27.6459   Anisotropy =     4.2829

     23  H    Isotropic =    29.6003   Anisotropy =     5.5740

     24  H    Isotropic =    30.6402   Anisotropy =     8.1420

     25  H    Isotropic =    31.1535   Anisotropy =     8.3622

     26  H    Isotropic =    29.7373   Anisotropy =     5.3904

     27  H    Isotropic =    31.1982   Anisotropy =     8.5364

     28  H    Isotropic =    30.6970   Anisotropy =     8.1155

  Exact polarizability: 149.681  -1.998  98.781  -3.352   0.016  88.497
 Approx polarizability: 172.220  -3.048 156.592 -11.477  -0.204 129.216

                      1                      2                      3
                      A                      A                      A
 Frequencies --     11.7246                35.0534                46.4582
 Red. masses --      4.0305                 3.7563                 4.0430
 Frc consts  --      0.0003                 0.0027                 0.0051
 IR Inten    --      0.1646                 1.2796                 0.9123

                      4                      5                      6
                      A                      A                      A
 Frequencies --     54.6887                60.2002                84.5932
 Red. masses --      5.5155                 4.8985                 5.0438
 Frc consts  --      0.0097                 0.0105                 0.0213
 IR Inten    --      0.6768                 0.1910                 0.5069

                      7                      8                      9
                      A                      A                      A
 Frequencies --    111.3631               183.3990               193.9573
 Red. masses --      3.5283                 5.1905                 4.4564
 Frc consts  --      0.0258                 0.1029                 0.0988
 IR Inten    --      0.2923                 4.7130                 1.3133

                     10                     11                     12
                      A                      A                      A
 Frequencies --    215.8148               222.2836               230.4607
 Red. masses --      2.3690                 1.1227                 1.0924
 Frc consts  --      0.0650                 0.0327                 0.0342
 IR Inten    --      2.3756                 0.4703                 0.0740

                     13                     14                     15
                      A                      A                      A
 Frequencies --    239.9511               249.6371               265.2372
 Red. masses --      8.1509                 1.0528                 1.3942
 Frc consts  --      0.2765                 0.0387                 0.0578
 IR Inten    --      4.2162                 0.0012                 1.8100

                     16                     17                     18
                      A                      A                      A
 Frequencies --    311.1824               356.7876               405.4132
 Red. masses --      3.1090                 2.5169                 3.9192
 Frc consts  --      0.1774                 0.1888                 0.3795
 IR Inten    --      4.6874                 0.4548                 4.5613

                     19                     20                     21
                      A                      A                      A
 Frequencies --    414.3607               429.8878               465.2241
 Red. masses --      3.5693                 3.4783                 2.8638
 Frc consts  --      0.3611                 0.3787                 0.3652
 IR Inten    --     11.7933                15.8058                 4.5719

                     22                     23                     24
                      A                      A                      A
 Frequencies --    488.5501               580.0546               614.0184
 Red. masses --      3.1607                 8.6946                 7.6402
 Frc consts  --      0.4445                 1.7236                 1.6971
 IR Inten    --     12.0540                 0.7540                 4.5458

                     25                     26                     27
                      A                      A                      A
 Frequencies --    644.2140               798.7270               813.7788
 Red. masses --      4.9729                 5.5009                10.2246
 Frc consts  --      1.2160                 2.0677                 3.9894
 IR Inten    --      3.9026                27.1262                28.7692

                     28                     29                     30
                      A                      A                      A
 Frequencies --    835.2408               860.7430               906.3282
 Red. masses --      3.4883                 6.2655                 3.2553
 Frc consts  --      1.4338                 2.7350                 1.5755
 IR Inten    --      6.5716                 2.6659                45.9316

                     31                     32                     33
                      A                      A                      A
 Frequencies --    922.9383               949.9021               951.0581
 Red. masses --      3.2470                 1.2687                 1.2553
 Frc consts  --      1.6296                 0.6745                 0.6690
 IR Inten    --      0.3300                 1.3746                 0.5960

                     34                     35                     36
                      A                      A                      A
 Frequencies --    957.2068               962.1444               972.1999
 Red. masses --      1.3269                 1.3920                 4.6223
 Frc consts  --      0.7163                 0.7592                 2.5741
 IR Inten    --      0.4558                 3.1640                 4.3934

                     37                     38                     39
                      A                      A                      A
 Frequencies --    999.2310              1143.4680              1168.2353
 Red. masses --      8.3087                 1.8454                 1.9271
 Frc consts  --      4.8878                 1.4217                 1.5496
 IR Inten    --     19.0009               238.3814               105.9323

                     40                     41                     42
                      A                      A                      A
 Frequencies --   1171.5499              1175.2353              1218.1424
 Red. masses --      2.1476                 2.0342                 1.9963
 Frc consts  --      1.7367                 1.6553                 1.7453
 IR Inten    --     14.7354                 7.2791                61.9822

                     43                     44                     45
                      A                      A                      A
 Frequencies --   1218.9467              1244.2591              1290.3636
 Red. masses --      1.9373                 5.2687                 6.1808
 Frc consts  --      1.6960                 4.8059                 6.0635
 IR Inten    --     11.0056               965.6553               247.7534

                     46                     47                     48
                      A                      A                      A
 Frequencies --   1383.5008              1391.4418              1398.9285
 Red. masses --      1.4060                 1.3199                 1.2528
 Frc consts  --      1.5856                 1.5057                 1.4446
 IR Inten    --      7.1683                 3.3301                 5.1537

                     49                     50                     51
                      A                      A                      A
 Frequencies --   1420.1754              1430.5206              1433.8551
 Red. masses --      1.3019                 1.3290                 1.3398
 Frc consts  --      1.5470                 1.6024                 1.6229
 IR Inten    --     17.7081                18.7875                16.1439

                     52                     53                     54
                      A                      A                      A
 Frequencies --   1444.7791              1448.7719              1511.0225
 Red. masses --      1.2414                 1.2568                 1.0482
 Frc consts  --      1.5267                 1.5543                 1.4100
 IR Inten    --     18.5370                 7.0723                 0.1330

                     55                     56                     57
                      A                      A                      A
 Frequencies --   1511.7861              1516.4078              1522.1449
 Red. masses --      1.0541                 1.0440                 1.0469
 Frc consts  --      1.4194                 1.4144                 1.4291
 IR Inten    --      1.6177                 1.1397                16.5044

                     58                     59                     60
                      A                      A                      A
 Frequencies --   1525.4272              1526.7015              1539.4038
 Red. masses --      1.0507                 1.0484                 1.0497
 Frc consts  --      1.4404                 1.4398                 1.4657
 IR Inten    --      4.3740                 0.0642                 9.6173

                     61                     62                     63
                      A                      A                      A
 Frequencies --   1546.6648              1652.1906              1834.1805
 Red. masses --      1.0540                13.9815                12.3529
 Frc consts  --      1.4855                22.4866                24.4853
 IR Inten    --      7.1667                 0.4972                78.5975

                     64                     65                     66
                      A                      A                      A
 Frequencies --   1850.6966              3058.5189              3062.4589
 Red. masses --     12.3307                 1.0354                 1.0374
 Frc consts  --     24.8833                 5.7064                 5.7323
 IR Inten    --    482.4168                10.8405                15.7243

                     67                     68                     69
                      A                      A                      A
 Frequencies --   3062.9341              3066.5744              3095.7777
 Red. masses --      1.0360                 1.0382                 1.0866
 Frc consts  --      5.7263                 5.7524                 6.1357
 IR Inten    --     14.8918                10.9294                19.5012

                     70                     71                     72
                      A                      A                      A
 Frequencies --   3098.0926              3126.9198              3127.3283
 Red. masses --      1.0874                 1.1029                 1.1016
 Frc consts  --      6.1492                 6.3537                 6.3479
 IR Inten    --      1.6888                 1.6862                12.2386

                     73                     74                     75
                      A                      A                      A
 Frequencies --   3130.1793              3136.0559              3139.4715
 Red. masses --      1.1019                 1.1017                 1.1027
 Frc consts  --      6.3613                 6.3841                 6.4035
 IR Inten    --     31.9481                38.8441                24.1732

                     76                     77                     78
                      A                      A                      A
 Frequencies --   3148.4139              3162.0580              3166.7386
 Red. masses --      1.1028                 1.1022                 1.1011
 Frc consts  --      6.4405                 6.4928                 6.5056
 IR Inten    --     14.9136                 1.9817                19.2705

 - Thermochemistry -
 -------------------
 Temperature   298.150 Kelvin.  Pressure   1.00000 Atm.
 Atom     1 has atomic number  6 and mass  12.00000

 Molecular mass:   202.09536 amu.
 Principal axes and moments of inertia in atomic units:
                           1         2         3
     Eigenvalues --  1162.084966968.081477333.87164
           X            0.99997   0.00429   0.00672
           Y           -0.00426   0.99998  -0.00412
           Z           -0.00674   0.00409   0.99997
 This molecule is an asymmetric top.
 Rotational symmetry number  1.
 Warning -- assumption of classical behavior for rotation
           may cause significant error
 Rotational temperatures (Kelvin)      0.07453     0.01243     0.01181
 Rotational constants (GHZ):           1.55302     0.25900     0.24608
 Zero-point vibrational energy     597799.9 (Joules/Mol)
                                  142.87760 (Kcal/Mol)
 Warning -- explicit consideration of  24 degrees of freedom as
           vibrations may cause significant error
 Vibrational temperatures:     16.87    50.43    66.84    78.68    86.61
          (Kelvin)            121.71   160.23   263.87   279.06   310.51
                              319.82   331.58   345.24   359.17   381.62
                              447.72   513.34   583.30   596.17   618.51
                              669.35   702.91   834.57   883.44   926.88
                             1149.19  1170.85  1201.73  1238.42  1304.00
                             1327.90  1366.70  1368.36  1377.21  1384.31
                             1398.78  1437.67  1645.20  1680.83  1685.60
                             1690.90  1752.64  1753.79  1790.21  1856.55
                             1990.55  2001.97  2012.75  2043.32  2058.20
                             2063.00  2078.71  2084.46  2174.02  2175.12
                             2181.77  2190.03  2194.75  2196.58  2214.86
                             2225.31  2377.13  2638.98  2662.74  4400.53
                             4406.20  4406.88  4412.12  4454.13  4457.46
                             4498.94  4499.53  4503.63  4512.08  4517.00
                             4529.87  4549.50  4556.23

 Zero-point correction=                           0.227690 (Hartree/Particle)
 Thermal correction to Energy=                    0.243910
 Thermal correction to Enthalpy=                  0.244854
 Thermal correction to Gibbs Free Energy=         0.181104
 Sum of electronic and zero-point Energies=           -723.421434
 Sum of electronic and thermal Energies=              -723.405215
 Sum of electronic and thermal Enthalpies=            -723.404270
 Sum of electronic and thermal Free Energies=         -723.468020

                     E (Thermal)             CV                S
                      KCal/Mol        Cal/Mol-Kelvin    Cal/Mol-Kelvin
 Total                  153.056             56.266            134.173
 Electronic               0.000              0.000              0.000
 Translational            0.889              2.981             41.815
 Rotational               0.889              2.981             32.452
 Vibrational            151.278             50.304             59.906
 Vibration     1          0.593              1.987              7.695
 Vibration     2          0.594              1.982              5.521
 Vibration     3          0.595              1.979              4.963
 Vibration     4          0.596              1.976              4.640
 Vibration     5          0.597              1.973              4.451
 Vibration     6          0.601              1.960              3.781
 Vibration     7          0.607              1.940              3.245
 Vibration     8          0.631              1.862              2.294
 Vibration     9          0.635              1.848              2.190
 Vibration    10          0.645              1.817              1.994
 Vibration    11          0.648              1.807              1.940
 Vibration    12          0.652              1.794              1.875
 Vibration    13          0.657              1.779              1.803
 Vibration    14          0.662              1.763              1.733
 Vibration    15          0.671              1.737              1.627
 Vibration    16          0.700              1.652              1.356
 Vibration    17          0.732              1.561              1.136
 Vibration    18          0.770              1.458              0.943
 Vibration    19          0.778              1.439              0.911
 Vibration    20          0.791              1.405              0.859
 Vibration    21          0.823              1.327              0.751
 Vibration    22          0.844              1.275              0.687
 Vibration    23          0.937              1.074              0.485
 Vibration    24          0.973              1.002              0.426

 Optimization completed on the basis of negligible forces.
    -- Stationary point found.
 Normal termination of Gaussian 16 at Sat Aug 22 14:13:43 2020.
 Gaussian 16:  ES64L-G16RevA.03 25-Dec-2016

 ----------------------------------------------------------------------
 # TD(NStates=10, Root=1) B3LYP/6-31G* scf=qc volume pop=NPA density=cu
 rrent Geom=AllCheck Guess=Read
 ----------------------------------------------------------------------

 Structure from the checkpoint file:  "azadicarboxylate_2_conf283.chk"
 -------------------
 Title Card Required
 -------------------
 Charge =  0 Multiplicity = 1

                         Standard orientation:
 ---------------------------------------------------------------------
 Center     Atomic      Atomic             Coordinates (Angstroms)
 Number     Number       Type             X           Y           Z
 ---------------------------------------------------------------------
      1          6           0       -4.184066   -0.055440   -1.291342
      2          6           0       -3.747059   -0.405417    0.125607
      3          6           0       -4.125303   -1.812614    0.560709
      4          8           0       -2.280371   -0.347043    0.201198
      5          6           0       -1.739561    0.848949    0.418134
      6          8           0       -2.299113    1.906867    0.564698
      7          7           0       -0.303827    0.730950    0.590829
      8          7           0        0.297219    0.536626   -0.482370
      9          6           0        1.741935    0.528733   -0.327334
     10          8           0        2.403193    1.482293   -0.655355
     11          8           0        2.134914   -0.666323    0.097552
     12          6           0        3.573822   -0.968581    0.212282
     13          6           0        4.254661   -0.929903   -1.151831
     14          6           0        4.232397   -0.097103    1.276379
     15          1           0       -5.275603   -0.111649   -1.368205
     16          1           0       -3.749661   -0.755672   -2.012953
     17          1           0       -3.875098    0.960550   -1.551828
     18          1           0       -4.130616    0.338195    0.830159
     19          1           0       -3.699717   -2.557509   -0.120134
     20          1           0       -5.215041   -1.922153    0.554781
     21          1           0       -3.762652   -2.019688    1.572164
     22          1           0        3.534896   -2.002501    0.566406
     23          1           0        4.317576    0.089977   -1.537179
     24          1           0        3.710675   -1.550273   -1.871548
     25          1           0        5.269850   -1.331374   -1.057065
     26          1           0        4.298020    0.943940    0.953017
     27          1           0        5.244931   -0.469273    1.469102
     28          1           0        3.668757   -0.143694    2.213690
 ---------------------------------------------------------------------

 SCF Done:  E(RB3LYP) =  -723.649124200     a.u. after    1 cycles

 Excitation energies and oscillator strengths:

 Excited State   1:      Singlet-A      2.9275 eV  423.52 nm  f=0.0041  <S**2>=0.000
      54 -> 55         0.69873
 This state for optimization and/or second-order correction.
 Total Energy, E(TD-HF/TD-DFT) =  -723.541541256
 Copying the excited state density for this state as the 1-particle RhoCI density.

 Excited State   2:      Singlet-A      4.9566 eV  250.14 nm  f=0.0532  <S**2>=0.000
      52 -> 55        -0.18862
      53 -> 55         0.66130

 Excited State   3:      Singlet-A      5.1042 eV  242.91 nm  f=0.0014  <S**2>=0.000
      52 -> 55         0.66752
      53 -> 55         0.19239

 Excited State   4:      Singlet-A      5.4005 eV  229.58 nm  f=0.0030  <S**2>=0.000
      50 -> 55         0.37977
      51 -> 55         0.59163

 Excited State   5:      Singlet-A      5.4310 eV  228.29 nm  f=0.0036  <S**2>=0.000
      50 -> 55         0.58678
      51 -> 55        -0.37587

 Excited State   6:      Singlet-A      5.6263 eV  220.37 nm  f=0.0055  <S**2>=0.000
      53 -> 56        -0.14275
      54 -> 56         0.66160
      54 -> 57         0.11666

 Excited State   7:      Singlet-A      5.7714 eV  214.83 nm  f=0.0114  <S**2>=0.000
      52 -> 56        -0.10365
      52 -> 57         0.13779
      54 -> 56        -0.11825
      54 -> 57         0.66654

 Excited State   8:      Singlet-A      6.5028 eV  190.66 nm  f=0.0016  <S**2>=0.000
      44 -> 55         0.12658
      48 -> 55        -0.13552
      49 -> 55         0.66790

 Excited State   9:      Singlet-A      6.5608 eV  188.98 nm  f=0.0078  <S**2>=0.000
      45 -> 55        -0.12122
      48 -> 55         0.65613
      49 -> 55         0.13717

 Excited State  10:      Singlet-A      6.7759 eV  182.98 nm  f=0.0120  <S**2>=0.000
      52 -> 56         0.22190
      53 -> 56         0.57149
      53 -> 57         0.25070
      54 -> 56         0.15969

 The electronic state is 1-A.
 Alpha  occ. eigenvalues --  -19.20829 -19.20797 -19.15317 -19.15313 -14.41941
 Alpha  occ. eigenvalues --  -14.41884 -10.35038 -10.34896 -10.26568 -10.26146
 Alpha  occ. eigenvalues --  -10.19202 -10.18890 -10.18849 -10.18786  -1.13400
 Alpha  occ. eigenvalues --   -1.12122  -1.05287  -1.03656  -1.03308  -0.82247
 Alpha  occ. eigenvalues --   -0.80568  -0.76407  -0.70542  -0.70444  -0.66554
 Alpha  occ. eigenvalues --   -0.63177  -0.58177  -0.56138  -0.52355  -0.50888
 Alpha  occ. eigenvalues --   -0.49804  -0.48895  -0.47596  -0.46686  -0.45513
 Alpha  occ. eigenvalues --   -0.44872  -0.43360  -0.42561  -0.41461  -0.40639
 Alpha  occ. eigenvalues --   -0.40482  -0.40096  -0.39000  -0.38152  -0.37447
 Alpha  occ. eigenvalues --   -0.36739  -0.36465  -0.35406  -0.34941  -0.31506
 Alpha  occ. eigenvalues --   -0.31441  -0.30591  -0.30147  -0.24669
 Alpha virt. eigenvalues --   -0.07978   0.00711   0.01339   0.08597   0.08751
 Alpha virt. eigenvalues --    0.10502   0.10637   0.13238   0.13722   0.14462
 Alpha virt. eigenvalues --    0.14764   0.15615   0.16476   0.16870   0.17204

 Mulliken charges:
               1
     1  C   -0.459227
     2  C    0.117678
     3  C   -0.454433
     4  O   -0.426008
     5  C    0.736679
     6  O   -0.420376
     7  N   -0.245900
     8  N   -0.240252
     9  C    0.738212
    10  O   -0.413201
    11  O   -0.432157
    12  C    0.129167
    13  C   -0.471825
    14  C   -0.470364
    15  H    0.153073
    16  H    0.159857
    17  H    0.178420
    18  H    0.168130
    19  H    0.162968
    20  H    0.155190
    21  H    0.164888
    22  H    0.157622
    23  H    0.187849
    24  H    0.163055
    25  H    0.155200
    26  H    0.188173
    27  H    0.152947
    28  H    0.164636
 Sum of Mulliken charges =  -0.00000

 Dipole moment (field-independent basis, Debye):
    X=              0.1604    Y=             -4.0174    Z=              0.1644  Tot=              4.0240
 Quadrupole moment (field-independent basis, Debye-Ang):
   XX=            -58.4580   YY=            -89.0778   ZZ=            -81.0051
   XY=             -0.7064   XZ=              3.0315   YZ=             -0.0718

 Summary of Natural Population Analysis:

                                       Natural Population
                Natural  -----------------------------------------------
    Atom  No    Charge         Core      Valence    Rydberg      Total
 -----------------------------------------------------------------------
      C    1   -0.70376      1.99939     4.69582    0.00854     6.70376
      C    2    0.08318      1.99912     3.90018    0.01751     5.91682
      C    3   -0.69622      1.99939     4.68781    0.00902     6.69622
      O    4   -0.53947      1.99972     6.52709    0.01266     8.53947
      C    5    0.91808      1.99950     3.03165    0.05077     5.08192
      O    6   -0.54811      1.99977     6.52764    0.02070     8.54811
      N    7   -0.22128      1.99939     5.19536    0.02653     7.22128
      N    8   -0.22022      1.99939     5.19431    0.02652     7.22022
      C    9    0.92018      1.99951     3.02811    0.05220     5.07982
      O   10   -0.54271      1.99977     6.52245    0.02050     8.54271
      O   11   -0.53251      1.99972     6.52079    0.01199     8.53251
      C   12    0.08487      1.99912     3.89778    0.01823     5.91513
      C   13   -0.71052      1.99939     4.70302    0.00810     6.71052
      C   14   -0.70946      1.99939     4.70208    0.00799     6.70946
      H   15    0.24015      0.00000     0.75909    0.00076     0.75985
      H   16    0.23654      0.00000     0.76210    0.00136     0.76346
      H   17    0.25136      0.00000     0.74761    0.00102     0.74864
      H   18    0.24328      0.00000     0.75399    0.00274     0.75672
      H   19    0.23895      0.00000     0.75976    0.00128     0.76105
      H   20    0.24141      0.00000     0.75793    0.00066     0.75859
      H   21    0.24529      0.00000     0.75374    0.00098     0.75471
      H   22    0.24565      0.00000     0.75267    0.00168     0.75435
      H   23    0.25208      0.00000     0.74647    0.00145     0.74792
      H   24    0.24300      0.00000     0.75594    0.00105     0.75700
      H   25    0.24279      0.00000     0.75649    0.00072     0.75721
      H   26    0.25256      0.00000     0.74610    0.00134     0.74744
      H   27    0.24090      0.00000     0.75836    0.00074     0.75910
      H   28    0.24399      0.00000     0.75495    0.00106     0.75601
 =======================================================================
   * Total *   -0.00000     27.99258    79.69930    0.30812   108.00000

 Normal termination of Gaussian 16 at Sat Aug 22 14:18:43 2020.
