 Gaussian 16, Revision A.03,

 ---------------------------------
 # opt=CalcAll B3LYP/6-31G* scf=qc
 ---------------------------------

 -------------------
 Title Card Required
 -------------------
 Symbolic Z-matrix:
 Charge =  0 Multiplicity = 1

 SCF Done:  E(RB3LYP) =  -723.613186679     a.u. after   10 cycles
 SCF Done:  E(RB3LYP) =  -723.642595084     a.u. after   25 cycles
 SCF Done:  E(RB3LYP) =  -723.648294718     a.u. after   17 cycles
 SCF Done:  E(RB3LYP) =  -723.649278636     a.u. after   15 cycles
 SCF Done:  E(RB3LYP) =  -723.649482038     a.u. after   21 cycles
 SCF Done:  E(RB3LYP) =  -723.649539239     a.u. after   13 cycles
 SCF Done:  E(RB3LYP) =  -723.649574515     a.u. after    9 cycles
 SCF Done:  E(RB3LYP) =  -723.649576049     a.u. after   11 cycles
 SCF Done:  E(RB3LYP) =  -723.649584936     a.u. after    9 cycles
 SCF Done:  E(RB3LYP) =  -723.649585128     a.u. after    2 cycles
 SCF Done:  E(RB3LYP) =  -723.649585239     a.u. after    3 cycles
 Optimization completed on the basis of negligible forces.
    -- Stationary point found.
 Normal termination of Gaussian 16 at Sat Aug 22 13:57:54 2020.

 ----------------------------------------------------------------------
 # freq B3LYP/6-31G* scf=qc volume NMR pop=NPA density=current Geom=All
 Check Guess=Read
 ----------------------------------------------------------------------

 Structure from the checkpoint file:  "azadicarboxylate_2_conf202.chk"
 -------------------
 Title Card Required
 -------------------
 Charge =  0 Multiplicity = 1

 SCF Done:  E(RB3LYP) =  -723.649585239     a.u. after    1 cycles

      1  C    Isotropic =   169.6200   Anisotropy =    27.8142

      2  C    Isotropic =   113.3602   Anisotropy =    72.2882

      3  C    Isotropic =   170.6040   Anisotropy =    27.5119

      4  O    Isotropic =   138.2406   Anisotropy =   143.8498

      5  C    Isotropic =    35.1993   Anisotropy =    78.3832

      6  O    Isotropic =   -27.5199   Anisotropy =   483.5109

      7  N    Isotropic =  -322.4417   Anisotropy =   672.2578

      8  N    Isotropic =  -317.8516   Anisotropy =   667.8150

      9  C    Isotropic =    34.9574   Anisotropy =    84.7881

     10  O    Isotropic =   -21.0150   Anisotropy =   498.3418

     11  O    Isotropic =   133.5475   Anisotropy =   114.8563

     12  C    Isotropic =   118.3938   Anisotropy =    64.3512

     13  C    Isotropic =   168.3275   Anisotropy =    31.2289

     14  C    Isotropic =   168.3344   Anisotropy =    30.1184

     15  H    Isotropic =    31.1966   Anisotropy =     8.5330

     16  H    Isotropic =    29.7703   Anisotropy =     5.2541

     17  H    Isotropic =    30.6800   Anisotropy =     8.1602

     18  H    Isotropic =    27.6245   Anisotropy =     4.5070

     19  H    Isotropic =    29.6187   Anisotropy =     5.5555

     20  H    Isotropic =    31.1547   Anisotropy =     8.3735

     21  H    Isotropic =    30.6325   Anisotropy =     8.1422

     22  H    Isotropic =    26.9993   Anisotropy =     2.6197

     23  H    Isotropic =    31.0317   Anisotropy =     6.7166

     24  H    Isotropic =    30.3949   Anisotropy =     7.0252

     25  H    Isotropic =    31.1765   Anisotropy =     8.6912

     26  H    Isotropic =    30.7718   Anisotropy =     6.6144

     27  H    Isotropic =    31.1187   Anisotropy =     8.4480

     28  H    Isotropic =    30.7099   Anisotropy =     8.4854

  Exact polarizability: 153.145   2.693  97.507   2.292   1.291  87.419
 Approx polarizability: 168.919  11.506 166.258   5.702   5.522 124.122

                      1                      2                      3
                      A                      A                      A
 Frequencies --     12.6215                37.2403                50.6492
 Red. masses --      4.2187                 3.1919                 4.7992
 Frc consts  --      0.0004                 0.0026                 0.0073
 IR Inten    --      2.6456                 0.8406                 2.7530

                      4                      5                      6
                      A                      A                      A
 Frequencies --     56.9195                62.0697                84.6132
 Red. masses --      4.2598                 6.4447                 5.2504
 Frc consts  --      0.0081                 0.0146                 0.0221
 IR Inten    --      0.1749                 0.0336                 0.5901

                      7                      8                      9
                      A                      A                      A
 Frequencies --    110.5871               188.5516               197.2309
 Red. masses --      3.5296                 4.6585                 4.9479
 Frc consts  --      0.0254                 0.0976                 0.1134
 IR Inten    --      0.2924                 1.4172                 5.6466

                     10                     11                     12
                      A                      A                      A
 Frequencies --    207.3502               220.7939               230.9057
 Red. masses --      5.0554                 1.0671                 1.1291
 Frc consts  --      0.1281                 0.0307                 0.0355
 IR Inten    --      2.7720                 0.3137                 0.8574

                     13                     14                     15
                      A                      A                      A
 Frequencies --    232.2106               249.7343               266.3840
 Red. masses --      2.5347                 1.0564                 1.5006
 Frc consts  --      0.0805                 0.0388                 0.0627
 IR Inten    --     10.6683                 0.0202                 4.8077

                     16                     17                     18
                      A                      A                      A
 Frequencies --    332.1358               348.3536               403.3490
 Red. masses --      2.6125                 2.9842                 3.7402
 Frc consts  --      0.1698                 0.2134                 0.3585
 IR Inten    --      0.5048                 0.6523                 4.3858

                     19                     20                     21
                      A                      A                      A
 Frequencies --    422.7484               429.8292               460.8297
 Red. masses --      3.5629                 4.6343                 2.9381
 Frc consts  --      0.3752                 0.5045                 0.3676
 IR Inten    --      9.1671                 4.7635                 0.3682

                     22                     23                     24
                      A                      A                      A
 Frequencies --    479.5163               573.6091               611.6593
 Red. masses --      3.0860                 4.3055                 8.6379
 Frc consts  --      0.4181                 0.8347                 1.9040
 IR Inten    --      6.1000                 9.0091                 2.3832

                     25                     26                     27
                      A                      A                      A
 Frequencies --    663.2333               794.6801               814.8248
 Red. masses --      7.4898                 4.6101                11.8683
 Frc consts  --      1.9411                 1.7153                 4.6427
 IR Inten    --     11.1428                10.0194                33.0974

                     28                     29                     30
                      A                      A                      A
 Frequencies --    834.4504               860.9238               909.8784
 Red. masses --      3.7459                 6.0900                 3.4875
 Frc consts  --      1.5367                 2.6595                 1.7011
 IR Inten    --     19.5687                 2.7446                56.6388

                     31                     32                     33
                      A                      A                      A
 Frequencies --    917.4899               950.2114               951.2605
 Red. masses --      3.0014                 1.2814                 1.2541
 Frc consts  --      1.4886                 0.6816                 0.6686
 IR Inten    --      1.8991                 1.3561                 0.7520

                     34                     35                     36
                      A                      A                      A
 Frequencies --    957.4292               962.2790               974.6434
 Red. masses --      1.3117                 1.3799                 4.7322
 Frc consts  --      0.7084                 0.7529                 2.6485
 IR Inten    --      0.4984                 4.1074                15.9913

                     37                     38                     39
                      A                      A                      A
 Frequencies --    999.3841              1143.7745              1168.2010
 Red. masses --      8.5011                 1.8277                 1.9220
 Frc consts  --      5.0025                 1.4087                 1.5454
 IR Inten    --      9.6116               242.1679               113.4217

                     40                     41                     42
                      A                      A                      A
 Frequencies --   1171.8152              1175.2727              1218.8214
 Red. masses --      2.1493                 2.0330                 1.9561
 Frc consts  --      1.7388                 1.6545                 1.7121
 IR Inten    --     13.6141                 9.6494                37.7040

                     43                     44                     45
                      A                      A                      A
 Frequencies --   1219.0565              1261.9678              1279.7794
 Red. masses --      1.9304                 5.3269                 6.7043
 Frc consts  --      1.6902                 4.9983                 6.4696
 IR Inten    --      4.3386              1090.5222               155.4130

                     46                     47                     48
                      A                      A                      A
 Frequencies --   1383.4853              1391.5737              1399.0006
 Red. masses --      1.4075                 1.3203                 1.2545
 Frc consts  --      1.5872                 1.5063                 1.4466
 IR Inten    --      9.0061                 3.3122                 6.2114

                     49                     50                     51
                      A                      A                      A
 Frequencies --   1420.6637              1430.5762              1433.9797
 Red. masses --      1.3037                 1.3282                 1.3398
 Frc consts  --      1.5503                 1.6016                 1.6232
 IR Inten    --     22.4610                18.6145                17.0773

                     52                     53                     54
                      A                      A                      A
 Frequencies --   1444.8171              1448.9588              1511.2223
 Red. masses --      1.2417                 1.2565                 1.0483
 Frc consts  --      1.5272                 1.5542                 1.4106
 IR Inten    --     17.8612                 6.9385                 0.1462

                     55                     56                     57
                      A                      A                      A
 Frequencies --   1511.8102              1516.3803              1522.2227
 Red. masses --      1.0537                 1.0441                 1.0469
 Frc consts  --      1.4190                 1.4146                 1.4293
 IR Inten    --      1.6921                 1.1518                17.2114

                     58                     59                     60
                      A                      A                      A
 Frequencies --   1525.4911              1526.6697              1539.5312
 Red. masses --      1.0507                 1.0484                 1.0497
 Frc consts  --      1.4406                 1.4397                 1.4659
 IR Inten    --      4.3177                 0.0601                 9.5378

                     61                     62                     63
                      A                      A                      A
 Frequencies --   1546.6702              1648.3010              1832.8482
 Red. masses --      1.0539                13.9727                12.3405
 Frc consts  --      1.4855                22.3668                24.4252
 IR Inten    --      7.3687                 0.0819                 2.5778

                     64                     65                     66
                      A                      A                      A
 Frequencies --   1846.4024              3058.7632              3062.5216
 Red. masses --     12.3167                 1.0353                 1.0373
 Frc consts  --     24.7398                 5.7072                 5.7322
 IR Inten    --    538.9968                10.8571                15.7174

                     67                     68                     69
                      A                      A                      A
 Frequencies --   3063.2016              3066.6694              3097.2133
 Red. masses --      1.0359                 1.0381                 1.0868
 Frc consts  --      5.7269                 5.7520                 6.1422
 IR Inten    --     14.8817                11.0900                18.6339

                     70                     71                     72
                      A                      A                      A
 Frequencies --   3097.5733              3127.3210              3127.5307
 Red. masses --      1.0873                 1.1029                 1.1016
 Frc consts  --      6.1468                 6.3551                 6.3486
 IR Inten    --      2.1468                 1.8456                12.2137

                     73                     74                     75
                      A                      A                      A
 Frequencies --   3130.4227              3136.1592              3140.0956
 Red. masses --      1.1019                 1.1018                 1.1028
 Frc consts  --      6.3622                 6.3848                 6.4066
 IR Inten    --     31.7185                38.1784                23.1823

                     76                     77                     78
                      A                      A                      A
 Frequencies --   3147.9741              3161.6122              3166.3425
 Red. masses --      1.1029                 1.1022                 1.1011
 Frc consts  --      6.4392                 6.4915                 6.5041
 IR Inten    --     15.9540                 1.9480                20.6447

 - Thermochemistry -
 -------------------
 Temperature   298.150 Kelvin.  Pressure   1.00000 Atm.
 Atom     1 has atomic number  6 and mass  12.00000

 Molecular mass:   202.09536 amu.
 Principal axes and moments of inertia in atomic units:
                           1         2         3
     Eigenvalues --   970.257987364.273527556.99161
           X            0.99996  -0.00815  -0.00386
           Y            0.00794   0.99870  -0.05042
           Z            0.00427   0.05039   0.99872
 This molecule is an asymmetric top.
 Rotational symmetry number  1.
 Warning -- assumption of classical behavior for rotation
           may cause significant error
 Rotational temperatures (Kelvin)      0.08927     0.01176     0.01146
 Rotational constants (GHZ):           1.86006     0.24507     0.23882
 Zero-point vibrational energy     597913.2 (Joules/Mol)
                                  142.90467 (Kcal/Mol)
 Warning -- explicit consideration of  24 degrees of freedom as
           vibrations may cause significant error
 Vibrational temperatures:     18.16    53.58    72.87    81.89    89.30
          (Kelvin)            121.74   159.11   271.28   283.77   298.33
                              317.67   332.22   334.10   359.31   383.27
                              477.87   501.20   580.33   608.24   618.43
                              663.03   689.92   825.30   880.04   954.24
                             1143.37  1172.35  1200.59  1238.68  1309.11
                             1320.06  1367.14  1368.65  1377.53  1384.50
                             1402.29  1437.89  1645.64  1680.78  1685.98
                             1690.96  1753.61  1753.95  1815.69  1841.32
                             1990.53  2002.16  2012.85  2044.02  2058.28
                             2063.18  2078.77  2084.73  2174.31  2175.16
                             2181.73  2190.14  2194.84  2196.54  2215.04
                             2225.31  2371.54  2637.06  2656.56  4400.88
                             4406.29  4407.26  4412.25  4456.20  4456.72
                             4499.52  4499.82  4503.98  4512.23  4517.90
                             4529.23  4548.85  4555.66

 Zero-point correction=                           0.227733 (Hartree/Particle)
 Thermal correction to Energy=                    0.243926
 Thermal correction to Enthalpy=                  0.244871
 Thermal correction to Gibbs Free Energy=         0.181440
 Sum of electronic and zero-point Energies=           -723.421852
 Sum of electronic and thermal Energies=              -723.405659
 Sum of electronic and thermal Enthalpies=            -723.404715
 Sum of electronic and thermal Free Energies=         -723.468146

                     E (Thermal)             CV                S
                      KCal/Mol        Cal/Mol-Kelvin    Cal/Mol-Kelvin
 Total                  153.066             56.247            133.502
 Electronic               0.000              0.000              0.000
 Translational            0.889              2.981             41.815
 Rotational               0.889              2.981             32.357
 Vibrational            151.289             50.286             59.330
 Vibration     1          0.593              1.987              7.549
 Vibration     2          0.594              1.982              5.401
 Vibration     3          0.595              1.977              4.792
 Vibration     4          0.596              1.975              4.561
 Vibration     5          0.597              1.972              4.390
 Vibration     6          0.601              1.960              3.781
 Vibration     7          0.606              1.941              3.259
 Vibration     8          0.633              1.856              2.242
 Vibration     9          0.637              1.844              2.159
 Vibration    10          0.641              1.829              2.067
 Vibration    11          0.648              1.809              1.953
 Vibration    12          0.653              1.794              1.872
 Vibration    13          0.653              1.792              1.862
 Vibration    14          0.663              1.763              1.732
 Vibration    15          0.672              1.735              1.620
 Vibration    16          0.714              1.611              1.250
 Vibration    17          0.726              1.579              1.174
 Vibration    18          0.769              1.463              0.950
 Vibration    19          0.785              1.421              0.883
 Vibration    20          0.791              1.405              0.859
 Vibration    21          0.819              1.337              0.764
 Vibration    22          0.836              1.295              0.711
 Vibration    23          0.930              1.088              0.497
 Vibration    24          0.971              1.007              0.430

 Optimization completed on the basis of negligible forces.
    -- Stationary point found.
 Normal termination of Gaussian 16 at Sat Aug 22 14:02:03 2020.
 Gaussian 16:  ES64L-G16RevA.03 25-Dec-2016

 ----------------------------------------------------------------------
 # TD(NStates=10, Root=1) B3LYP/6-31G* scf=qc volume pop=NPA density=cu
 rrent Geom=AllCheck Guess=Read
 ----------------------------------------------------------------------

 Structure from the checkpoint file:  "azadicarboxylate_2_conf203.chk"
 -------------------
 Title Card Required
 -------------------
 Charge =  0 Multiplicity = 1

                         Standard orientation:
 ---------------------------------------------------------------------
 Center     Atomic      Atomic             Coordinates (Angstroms)
 Number     Number       Type             X           Y           Z
 ---------------------------------------------------------------------
      1          6           0        4.294036    0.034763   -1.300969
      2          6           0        3.900839   -0.497821    0.072762
      3          6           0        4.466536    0.293329    1.247414
      4          8           0        2.437543   -0.642575    0.184366
      5          6           0        1.659929    0.431224    0.138816
      6          8           0        1.959692    1.592823    0.009648
      7          7           0        0.282898    0.049891    0.398235
      8          7           0       -0.291059   -0.407375   -0.608320
      9          6           0       -1.668447   -0.780244   -0.349560
     10          8           0       -2.005049   -1.938721   -0.347873
     11          8           0       -2.433094    0.301299   -0.237616
     12          6           0       -3.878504    0.079185   -0.090914
     13          6           0       -4.193157   -0.176291    1.377743
     14          6           0       -4.544572    1.322272   -0.659829
     15          1           0        5.380377   -0.046213   -1.419995
     16          1           0        4.006533    1.081771   -1.418916
     17          1           0        3.820302   -0.556012   -2.091492
     18          1           0        4.213406   -1.542231    0.157498
     19          1           0        4.179611    1.345732    1.194466
     20          1           0        5.560215    0.227538    1.230100
     21          1           0        4.116912   -0.124494    2.197102
     22          1           0       -4.125576   -0.804581   -0.686297
     23          1           0       -3.885527    0.676916    1.991790
     24          1           0       -3.679556   -1.073762    1.733331
     25          1           0       -5.271040   -0.325061    1.506406
     26          1           0       -4.256306    2.212372   -0.090615
     27          1           0       -5.633449    1.216202   -0.607770
     28          1           0       -4.261469    1.473093   -1.705991
 ---------------------------------------------------------------------

 SCF Done:  E(RB3LYP) =  -723.649585239     a.u. after    1 cycles

 Excitation energies and oscillator strengths:

 Excited State   1:      Singlet-A      2.9466 eV  420.77 nm  f=0.0000  <S**2>=0.000
      54 -> 55         0.70052
 This state for optimization and/or second-order correction.
 Total Energy, E(TD-HF/TD-DFT) =  -723.541298972
 Copying the excited state density for this state as the 1-particle RhoCI density.

 Excited State   2:      Singlet-A      4.9703 eV  249.45 nm  f=0.0885  <S**2>=0.000
      53 -> 55         0.69205

 Excited State   3:      Singlet-A      5.0807 eV  244.03 nm  f=0.0007  <S**2>=0.000
      50 -> 55         0.16558
      52 -> 55         0.66744

 Excited State   4:      Singlet-A      5.3869 eV  230.16 nm  f=0.0082  <S**2>=0.000
      50 -> 55        -0.11766
      51 -> 55         0.68938

 Excited State   5:      Singlet-A      5.4368 eV  228.05 nm  f=0.0020  <S**2>=0.000
      50 -> 55         0.66764
      52 -> 55        -0.18551

 Excited State   6:      Singlet-A      5.6473 eV  219.55 nm  f=0.0089  <S**2>=0.000
      53 -> 56        -0.18156
      54 -> 56         0.66867

 Excited State   7:      Singlet-A      5.7793 eV  214.53 nm  f=0.0061  <S**2>=0.000
      53 -> 57         0.15563
      54 -> 57         0.67329

 Excited State   8:      Singlet-A      6.4830 eV  191.24 nm  f=0.0033  <S**2>=0.000
      49 -> 55         0.67850

 Excited State   9:      Singlet-A      6.5536 eV  189.18 nm  f=0.0003  <S**2>=0.000
      45 -> 55        -0.13606
      48 -> 55         0.67092

 Excited State  10:      Singlet-A      6.7054 eV  184.90 nm  f=0.0116  <S**2>=0.000
      50 -> 56         0.13139
      52 -> 56         0.25909
      53 -> 56         0.58869
      54 -> 56         0.19374

 The electronic state is 1-A.
 Alpha  occ. eigenvalues --  -19.20782 -19.20732 -19.15335 -19.15296 -14.41919
 Alpha  occ. eigenvalues --  -14.41858 -10.35038 -10.34874 -10.26502 -10.26070
 Alpha  occ. eigenvalues --  -10.19056 -10.18840 -10.18794 -10.18752  -1.13383
 Alpha  occ. eigenvalues --   -1.12103  -1.05246  -1.03670  -1.03252  -0.82207
 Alpha  occ. eigenvalues --   -0.80489  -0.76388  -0.70448  -0.70400  -0.66456
 Alpha  occ. eigenvalues --   -0.63261  -0.58102  -0.56065  -0.52268  -0.50883
 Alpha  occ. eigenvalues --   -0.50058  -0.48440  -0.47791  -0.46608  -0.45437
 Alpha  occ. eigenvalues --   -0.44833  -0.42994  -0.42563  -0.41659  -0.40527
 Alpha  occ. eigenvalues --   -0.40413  -0.39960  -0.38924  -0.37950  -0.37475
 Alpha  occ. eigenvalues --   -0.36834  -0.36554  -0.35319  -0.34852  -0.31582
 Alpha  occ. eigenvalues --   -0.31388  -0.30815  -0.29618  -0.24744
 Alpha virt. eigenvalues --   -0.07956   0.00793   0.01244   0.08670   0.08850
 Alpha virt. eigenvalues --    0.10483   0.10795   0.13343   0.13801   0.14570
 Alpha virt. eigenvalues --    0.14806   0.15690   0.16568   0.16958   0.17275

 Mulliken charges:
               1
     1  C   -0.470796
     2  C    0.129808
     3  C   -0.472104
     4  O   -0.430436
     5  C    0.735777
     6  O   -0.418073
     7  N   -0.236345
     8  N   -0.243062
     9  C    0.735134
    10  O   -0.425520
    11  O   -0.424289
    12  C    0.117913
    13  C   -0.459408
    14  C   -0.454571
    15  H    0.153133
    16  H    0.187059
    17  H    0.165492
    18  H    0.159620
    19  H    0.187331
    20  H    0.155179
    21  H    0.163702
    22  H    0.167920
    23  H    0.161148
    24  H    0.177002
    25  H    0.153070
    26  H    0.164878
    27  H    0.154748
    28  H    0.165690
 Sum of Mulliken charges =  -0.00000

 Dipole moment (field-independent basis, Debye):
    X=              0.3669    Y=              0.3378    Z=              0.3682  Tot=              0.6199
 Quadrupole moment (field-independent basis, Debye-Ang):
   XX=            -52.2245   YY=            -91.3578   ZZ=            -80.1029
   XY=             -7.4938   XZ=             -0.2784   YZ=             -0.5502

 Summary of Natural Population Analysis:

                                       Natural Population
                Natural  -----------------------------------------------
    Atom  No    Charge         Core      Valence    Rydberg      Total
 -----------------------------------------------------------------------
      C    1   -0.70953      1.99939     4.70217    0.00798     6.70953
      C    2    0.08535      1.99912     3.89729    0.01825     5.91465
      C    3   -0.71057      1.99939     4.70307    0.00811     6.71057
      O    4   -0.53038      1.99972     6.51861    0.01205     8.53038
      C    5    0.91872      1.99951     3.02945    0.05232     5.08128
      O    6   -0.54957      1.99977     6.52939    0.02041     8.54957
      N    7   -0.21554      1.99939     5.18982    0.02633     7.21554
      N    8   -0.21682      1.99939     5.19106    0.02638     7.21682
      C    9    0.91658      1.99950     3.03306    0.05086     5.08342
      O   10   -0.55459      1.99977     6.53420    0.02062     8.55459
      O   11   -0.53774      1.99971     6.52531    0.01272     8.53774
      C   12    0.08371      1.99912     3.89964    0.01753     5.91629
      C   13   -0.70373      1.99939     4.69581    0.00853     6.70373
      C   14   -0.69641      1.99939     4.68798    0.00904     6.69641
      H   15    0.24105      0.00000     0.75821    0.00074     0.75895
      H   16    0.25197      0.00000     0.74667    0.00136     0.74803
      H   17    0.24440      0.00000     0.75454    0.00106     0.75560
      H   18    0.24683      0.00000     0.75150    0.00167     0.75317
      H   19    0.25185      0.00000     0.74668    0.00147     0.74815
      H   20    0.24278      0.00000     0.75650    0.00072     0.75722
      H   21    0.24333      0.00000     0.75561    0.00105     0.75667
      H   22    0.24330      0.00000     0.75395    0.00275     0.75670
      H   23    0.23722      0.00000     0.76143    0.00135     0.76278
      H   24    0.25060      0.00000     0.74837    0.00103     0.74940
      H   25    0.24019      0.00000     0.75905    0.00076     0.75981
      H   26    0.24003      0.00000     0.75870    0.00127     0.75997
      H   27    0.24119      0.00000     0.75815    0.00066     0.75881
      H   28    0.24579      0.00000     0.75324    0.00097     0.75421
 =======================================================================
   * Total *   -0.00000     27.99257    79.69945    0.30799   108.00000

 Normal termination of Gaussian 16 at Sat Aug 22 14:07:02 2020.
