 Gaussian 16, Revision A.03,

 ---------------------------------
 # opt=CalcAll B3LYP/6-31G* scf=qc
 ---------------------------------

 -------------------
 Title Card Required
 -------------------
 Symbolic Z-matrix:
 Charge =  0 Multiplicity = 1

 SCF Done:  E(RB3LYP) =  -1947.63723819     a.u. after    9 cycles
 SCF Done:  E(RB3LYP) =  -1947.66120986     a.u. after   23 cycles
 SCF Done:  E(RB3LYP) =  -1947.66734377     a.u. after   23 cycles
 SCF Done:  E(RB3LYP) =  -1947.67133893     a.u. after   17 cycles
 SCF Done:  E(RB3LYP) =  -1947.67294957     a.u. after   19 cycles
 SCF Done:  E(RB3LYP) =  -1947.67321363     a.u. after   19 cycles
 SCF Done:  E(RB3LYP) =  -1947.67327872     a.u. after   15 cycles
 SCF Done:  E(RB3LYP) =  -1947.67328961     a.u. after   13 cycles
 SCF Done:  E(RB3LYP) =  -1947.67335478     a.u. after   17 cycles
 SCF Done:  E(RB3LYP) =  -1947.67298076     a.u. after   17 cycles
 SCF Done:  E(RB3LYP) =  -1947.67345051     a.u. after   19 cycles
 SCF Done:  E(RB3LYP) =  -1947.67346014     a.u. after    7 cycles
 SCF Done:  E(RB3LYP) =  -1947.67346119     a.u. after    5 cycles
 SCF Done:  E(RB3LYP) =  -1947.67346119     a.u. after    2 cycles
 SCF Done:  E(RB3LYP) =  -1947.67346119     a.u. after    2 cycles
 Optimization completed.
    -- Stationary point found.
 Normal termination of Gaussian 16 at Sat Aug 22 17:07:08 2020.

 ----------------------------------------------------------------------
 # freq B3LYP/6-31G* scf=qc volume NMR pop=NPA density=current Geom=All
 Check Guess=Read
 ----------------------------------------------------------------------

 Structure from the checkpoint file:  "azadicarboxylate_3_conf192.chk"
 -------------------
 Title Card Required
 -------------------
 Charge =  0 Multiplicity = 1

 SCF Done:  E(RB3LYP) =  -1947.67346119     a.u. after    1 cycles

      1  C    Isotropic =    63.6611   Anisotropy =   171.8554

      2  C    Isotropic =   121.5626   Anisotropy =    40.4777

      3  O    Isotropic =   142.4065   Anisotropy =   141.2022

      4  C    Isotropic =    34.7465   Anisotropy =    83.1254

      5  O    Isotropic =   -20.4365   Anisotropy =   489.8842

      6  N    Isotropic =  -323.0769   Anisotropy =   674.4752

      7  N    Isotropic =  -323.0741   Anisotropy =   674.4731

      8  C    Isotropic =    34.7469   Anisotropy =    83.1302

      9  O    Isotropic =   -20.4376   Anisotropy =   489.8916

     10  O    Isotropic =   142.4065   Anisotropy =   141.1994

     11  C    Isotropic =   121.5625   Anisotropy =    40.4777

     12  C    Isotropic =    63.6611   Anisotropy =   171.8553

     13  C    Isotropic =    64.2537   Anisotropy =   151.5722

     14  C    Isotropic =    67.4902   Anisotropy =   140.8049

     15  C    Isotropic =    51.2016   Anisotropy =   111.0631

     16  C    Isotropic =    66.6251   Anisotropy =   142.5480

     17  C    Isotropic =    62.7304   Anisotropy =   159.9390

     18  Cl   Isotropic =   718.1550   Anisotropy =   454.6097

     19  C    Isotropic =    62.7304   Anisotropy =   159.9391

     20  C    Isotropic =    66.6251   Anisotropy =   142.5481

     21  C    Isotropic =    51.2016   Anisotropy =   111.0631

     22  C    Isotropic =    67.4902   Anisotropy =   140.8049

     23  C    Isotropic =    64.2537   Anisotropy =   151.5720

     24  Cl   Isotropic =   718.1550   Anisotropy =   454.6097

     25  H    Isotropic =    27.7115   Anisotropy =     5.1914

     26  H    Isotropic =    26.4929   Anisotropy =     2.7314

     27  H    Isotropic =    26.4930   Anisotropy =     2.7314

     28  H    Isotropic =    27.7115   Anisotropy =     5.1914

     29  H    Isotropic =    25.0567   Anisotropy =     6.4696

     30  H    Isotropic =    25.1342   Anisotropy =     6.9200

     31  H    Isotropic =    25.0775   Anisotropy =     7.2471

     32  H    Isotropic =    24.4442   Anisotropy =     7.9386

     33  H    Isotropic =    24.4443   Anisotropy =     7.9387

     34  H    Isotropic =    25.0775   Anisotropy =     7.2471

     35  H    Isotropic =    25.1342   Anisotropy =     6.9200

     36  H    Isotropic =    25.0567   Anisotropy =     6.4696

  Exact polarizability: 279.788 -52.415 160.892  -0.002  -0.002 188.905
 Approx polarizability: 340.505 -92.484 260.462  -0.004  -0.005 346.971

                      1                      2                      3
                      A                      A                      A
 Frequencies --      4.7304                11.2047                19.4768
 Red. masses --     10.3935                14.0925                10.5695
 Frc consts  --      0.0001                 0.0010                 0.0024
 IR Inten    --      0.0517                 0.1425                 0.0000

                      4                      5                      6
                      A                      A                      A
 Frequencies --     24.2849                26.6465                49.4870
 Red. masses --      4.5848                 4.1423                10.4108
 Frc consts  --      0.0016                 0.0017                 0.0150
 IR Inten    --      0.3612                 0.0676                 0.1521

                      7                      8                      9
                      A                      A                      A
 Frequencies --     50.3738                65.7777                74.6489
 Red. masses --     11.9385                 8.1284                 7.4347
 Frc consts  --      0.0178                 0.0207                 0.0244
 IR Inten    --      1.9793                 2.3559                 0.6501

                     10                     11                     12
                      A                      A                      A
 Frequencies --     94.6899                98.3483               169.8986
 Red. masses --      9.7143                10.7288                10.9000
 Frc consts  --      0.0513                 0.0611                 0.1854
 IR Inten    --      0.2618                 0.3920                 2.5608

                     13                     14                     15
                      A                      A                      A
 Frequencies --    202.7294               203.9969               227.0067
 Red. masses --      9.3005                 9.4153                 8.2932
 Frc consts  --      0.2252                 0.2308                 0.2518
 IR Inten    --      3.4582                 2.1650                 0.4641

                     16                     17                     18
                      A                      A                      A
 Frequencies --    248.1512               256.2426               295.3956
 Red. masses --     11.0110                10.8856                 4.5453
 Frc consts  --      0.3995                 0.4211                 0.2337
 IR Inten    --      0.5050                 2.2876                 4.3059

                     19                     20                     21
                      A                      A                      A
 Frequencies --    301.3807               321.4926               354.0785
 Red. masses --      4.8280                 8.4489                 7.0572
 Frc consts  --      0.2584                 0.5145                 0.5213
 IR Inten    --      2.0995                 0.9636                 0.0002

                     22                     23                     24
                      A                      A                      A
 Frequencies --    376.2440               390.0687               411.4927
 Red. masses --      2.8186                 2.3925                 6.0265
 Frc consts  --      0.2351                 0.2145                 0.6012
 IR Inten    --      0.8435                 4.2506                68.0365

                     25                     26                     27
                      A                      A                      A
 Frequencies --    420.6812               420.7406               430.5409
 Red. masses --      3.0408                 3.0432                 6.4152
 Frc consts  --      0.3171                 0.3174                 0.7006
 IR Inten    --      0.0067                 1.1873                 1.3362

                     28                     29                     30
                      A                      A                      A
 Frequencies --    462.7218               525.8341               545.8010
 Red. masses --      5.0172                 3.7425                 4.2904
 Frc consts  --      0.6329                 0.6097                 0.7530
 IR Inten    --      2.8652                 0.9987                49.1299

                     31                     32                     33
                      A                      A                      A
 Frequencies --    577.2159               635.3177               639.1920
 Red. masses --     12.0316                 7.6769                 7.0785
 Frc consts  --      2.3618                 1.8257                 1.7040
 IR Inten    --      0.7383                 3.4185                 4.2117

                     34                     35                     36
                      A                      A                      A
 Frequencies --    648.2128               648.7936               664.8152
 Red. masses --      6.5767                 6.7173                 4.9704
 Frc consts  --      1.6281                 1.6659                 1.2943
 IR Inten    --      0.4356                 0.0001                 8.8667

                     37                     38                     39
                      A                      A                      A
 Frequencies --    668.7163               737.5948               740.6765
 Red. masses --      4.9481                 4.2398                 4.2258
 Frc consts  --      1.3037                 1.3590                 1.3659
 IR Inten    --      0.3659                 7.1811                 0.6865

                     40                     41                     42
                      A                      A                      A
 Frequencies --    806.7805               821.6230               822.4480
 Red. masses --      9.2069                 2.5335                 2.5254
 Frc consts  --      3.5308                 1.0077                 1.0065
 IR Inten    --     22.1134                 3.6568                97.8928

                     43                     44                     45
                      A                      A                      A
 Frequencies --    828.7927               844.0378               844.0493
 Red. masses --      4.9613                 1.3023                 1.3176
 Frc consts  --      2.0079                 0.5466                 0.5530
 IR Inten    --      0.8064                 0.0027                 5.7584

                     46                     47                     48
                      A                      A                      A
 Frequencies --    857.6724               862.6332               877.1354
 Red. masses --      2.7502                 2.1809                 3.3615
 Frc consts  --      1.1919                 0.9562                 1.5238
 IR Inten    --    153.8074                 0.1951                 8.5873

                     49                     50                     51
                      A                      A                      A
 Frequencies --    925.8667               960.8554               962.9502
 Red. masses --      7.2213                 1.4621                 1.3588
 Frc consts  --      3.6472                 0.7953                 0.7424
 IR Inten    --      0.1531                27.4297                 0.0746

                     52                     53                     54
                      A                      A                      A
 Frequencies --    974.0864               978.4653               980.0077
 Red. masses --      2.3566                 1.3383                 1.6442
 Frc consts  --      1.3175                 0.7549                 0.9304
 IR Inten    --    119.8452                 0.1763                31.2778

                     55                     56                     57
                      A                      A                      A
 Frequencies --    992.8401              1023.2559              1025.1803
 Red. masses --      4.3132                 2.5814                 2.4237
 Frc consts  --      2.5050                 1.5925                 1.5008
 IR Inten    --      6.5763                12.1381                27.9832

                     58                     59                     60
                      A                      A                      A
 Frequencies --   1035.4651              1035.4912              1110.7730
 Red. masses --      3.7686                 3.8194                 3.1200
 Frc consts  --      2.3807                 2.4129                 2.2681
 IR Inten    --     38.0493                 1.4247               151.8140

                     61                     62                     63
                      A                      A                      A
 Frequencies --   1111.0941              1146.4727              1146.5771
 Red. masses --      3.1232                 1.3246                 1.3249
 Frc consts  --      2.2717                 1.0258                 1.0262
 IR Inten    --      1.9833                 6.2870                 0.2471

                     64                     65                     66
                      A                      A                      A
 Frequencies --   1214.8108              1216.2099              1227.9573
 Red. masses --      1.2443                 1.1440                 3.9767
 Frc consts  --      1.0820                 0.9970                 3.5330
 IR Inten    --    170.5678                 0.4516              1188.9320

                     67                     68                     69
                      A                      A                      A
 Frequencies --   1240.3859              1240.4863              1267.5978
 Red. masses --      3.1004                 3.0226                 2.8008
 Frc consts  --      2.8105                 2.7404                 2.6515
 IR Inten    --      0.7069                12.2104               108.6071

                     70                     71                     72
                      A                      A                      A
 Frequencies --   1296.0771              1301.6528              1336.5673
 Red. masses --      1.4524                 1.8380                 1.8083
 Frc consts  --      1.4374                 1.8348                 1.9033
 IR Inten    --     71.6089                74.1765                 1.0759

                     73                     74                     75
                      A                      A                      A
 Frequencies --   1336.6123              1363.7438              1363.8961
 Red. masses --      1.8220                 2.1516                 2.1399
 Frc consts  --      1.9178                 2.3576                 2.3454
 IR Inten    --      1.1711                 5.8686                 6.6660

                     76                     77                     78
                      A                      A                      A
 Frequencies --   1417.5930              1418.5319              1456.4313
 Red. masses --      1.3379                 1.3714                 2.6010
 Frc consts  --      1.5841                 1.6259                 3.2506
 IR Inten    --     36.7812                 4.8685                 1.8247

                     79                     80                     81
                      A                      A                      A
 Frequencies --   1456.4712              1516.7747              1517.0289
 Red. masses --      2.5999                 1.1166                 1.1192
 Frc consts  --      3.2495                 1.5135                 1.5175
 IR Inten    --     12.2054                23.1977                 0.1088

                     82                     83                     84
                      A                      A                      A
 Frequencies --   1541.5317              1541.6754              1631.1195
 Red. masses --      2.3128                 2.3074                 6.6806
 Frc consts  --      3.2381                 3.2312                10.4721
 IR Inten    --     89.1241                 1.9108                 0.0605

                     85                     86                     87
                      A                      A                      A
 Frequencies --   1631.1465              1654.6755              1656.1266
 Red. masses --      6.6795                13.8966                 5.5888
 Frc consts  --     10.4707                22.4173                 9.0315
 IR Inten    --      1.5309                 0.4097                59.7327

                     88                     89                     90
                      A                      A                      A
 Frequencies --   1656.1425              1833.2796              1849.1898
 Red. masses --      5.6003                12.1754                12.1329
 Frc consts  --      9.0501                24.1097                24.4443
 IR Inten    --      1.3042                83.6655               397.6921

                     91                     92                     93
                      A                      A                      A
 Frequencies --   3108.9770              3109.0598              3166.8822
 Red. masses --      1.0576                 1.0577                 1.1109
 Frc consts  --      6.0232                 6.0236                 6.5641
 IR Inten    --     29.7107                10.7641                 0.0847

                     94                     95                     96
                      A                      A                      A
 Frequencies --   3166.9106              3189.7347              3189.7512
 Red. masses --      1.1109                 1.0896                 1.0896
 Frc consts  --      6.5642                 6.5319                 6.5320
 IR Inten    --      7.7516                 4.8261                14.1732

                     97                     98                     99
                      A                      A                      A
 Frequencies --   3212.9334              3212.9381              3225.9520
 Red. masses --      1.0890                 1.0890                 1.0935
 Frc consts  --      6.6233                 6.6233                 6.7045
 IR Inten    --      1.5901                 0.0100                 1.0947

                    100                    101                    102
                      A                      A                      A
 Frequencies --   3225.9556              3228.8662              3228.8678
 Red. masses --      1.0935                 1.0949                 1.0949
 Frc consts  --      6.7046                 6.7253                 6.7253
 IR Inten    --      6.2417                 0.9286                 1.3936

 - Thermochemistry -
 -------------------
 Temperature   298.150 Kelvin.  Pressure   1.00000 Atm.
 Atom     1 has atomic number  6 and mass  12.00000

 Molecular mass:   366.01741 amu.
 Principal axes and moments of inertia in atomic units:
                           1         2         3
     Eigenvalues --  3134.75906********************
           X            0.99997   0.00741   0.00000
           Y           -0.00741   0.99997  -0.00000
           Z           -0.00000   0.00000   1.00000
 This molecule is an asymmetric top.
 Rotational symmetry number  1.
 Warning -- assumption of classical behavior for rotation
           may cause significant error
 Rotational temperatures (Kelvin)      0.02763     0.00251     0.00245
 Rotational constants (GHZ):           0.57572     0.05237     0.05108
 Zero-point vibrational energy     678700.1 (Joules/Mol)
                                  162.21322 (Kcal/Mol)
 Warning -- explicit consideration of  31 degrees of freedom as
           vibrations may cause significant error
 Vibrational temperatures:      6.81    16.12    28.02    34.94    38.34
          (Kelvin)             71.20    72.48    94.64   107.40   136.24
                              141.50   244.45   291.68   293.51   326.61
                              357.03   368.68   425.01   433.62   462.56
                              509.44   541.33   561.22   592.05   605.27
                              605.35   619.45   665.75   756.56   785.29
                              830.48   914.08   919.65   932.63   933.47
                              956.52   962.13  1061.23  1065.67  1160.78
                             1182.13  1183.32  1192.45  1214.38  1214.40
                             1234.00  1241.14  1262.00  1332.12  1382.46
                             1385.47  1401.49  1407.79  1410.01  1428.48
                             1472.24  1475.01  1489.80  1489.84  1598.15
                             1598.62  1649.52  1649.67  1747.84  1749.85
                             1766.76  1784.64  1784.78  1823.79  1864.77
                             1872.79  1923.02  1923.09  1962.12  1962.34
                             2039.60  2040.95  2095.48  2095.54  2182.30
                             2182.67  2217.92  2218.13  2346.82  2346.86
                             2380.71  2382.80  2382.82  2637.68  2660.57
                             4473.12  4473.24  4556.44  4556.48  4589.32
                             4589.34  4622.69  4622.70  4641.43  4641.43
                             4645.62  4645.62

 Zero-point correction=                           0.258503 (Hartree/Particle)
 Thermal correction to Energy=                    0.280368
 Thermal correction to Enthalpy=                  0.281312
 Thermal correction to Gibbs Free Energy=         0.199171
 Sum of electronic and zero-point Energies=          -1947.414958
 Sum of electronic and thermal Energies=             -1947.393093
 Sum of electronic and thermal Enthalpies=           -1947.392149
 Sum of electronic and thermal Free Energies=        -1947.474290

                     E (Thermal)             CV                S
                      KCal/Mol        Cal/Mol-Kelvin    Cal/Mol-Kelvin
 Total                  175.934             79.046            172.881
 Electronic               0.000              0.000              0.000
 Translational            0.889              2.981             43.586
 Rotational               0.889              2.981             36.588
 Vibrational            174.156             73.084             92.707
 Vibration     1          0.593              1.987              9.498
 Vibration     2          0.593              1.987              7.785
 Vibration     3          0.593              1.986              6.687
 Vibration     4          0.593              1.985              6.249
 Vibration     5          0.593              1.984              6.065
 Vibration     6          0.595              1.978              4.838
 Vibration     7          0.595              1.977              4.803
 Vibration     8          0.597              1.971              4.276
 Vibration     9          0.599              1.966              4.027
 Vibration    10          0.603              1.953              3.561
 Vibration    11          0.604              1.950              3.487
 Vibration    12          0.625              1.880              2.437
 Vibration    13          0.639              1.836              2.108
 Vibration    14          0.640              1.834              2.097
 Vibration    15          0.651              1.800              1.902
 Vibration    16          0.662              1.766              1.744
 Vibration    17          0.666              1.752              1.687
 Vibration    18          0.690              1.682              1.443
 Vibration    19          0.693              1.671              1.409
 Vibration    20          0.707              1.632              1.302
 Vibration    21          0.730              1.567              1.148
 Vibration    22          0.747              1.521              1.054
 Vibration    23          0.758              1.491              1.000
 Vibration    24          0.775              1.445              0.921
 Vibration    25          0.783              1.425              0.890
 Vibration    26          0.783              1.425              0.889
 Vibration    27          0.792              1.404              0.857
 Vibration    28          0.820              1.333              0.758
 Vibration    29          0.881              1.193              0.597
 Vibration    30          0.901              1.149              0.553
 Vibration    31          0.934              1.081              0.491

 Optimization completed.
    -- Stationary point found.
 Normal termination of Gaussian 16 at Sat Aug 22 17:19:36 2020.
 Gaussian 16:  ES64L-G16RevA.03 25-Dec-2016

 ----------------------------------------------------------------------
 # TD(NStates=10, Root=1) B3LYP/6-31G* scf=qc volume pop=NPA density=cu
 rrent Geom=AllCheck Guess=Read
 ----------------------------------------------------------------------

 Structure from the checkpoint file:  "azadicarboxylate_3_conf193.chk"
 -------------------
 Title Card Required
 -------------------
 Charge =  0 Multiplicity = 1

                         Standard orientation:
 ---------------------------------------------------------------------
 Center     Atomic      Atomic             Coordinates (Angstroms)
 Number     Number       Type             X           Y           Z
 ---------------------------------------------------------------------
      1          6           0        4.240661    1.239368   -0.524996
      2          6           0        3.025249    2.088764   -0.782800
      3          8           0        1.784942    1.316173   -0.653277
      4          6           0        1.232701    1.291146    0.557914
      5          8           0        1.623890    1.819955    1.568317
      6          7           0       -0.050349    0.620400    0.505554
      7          7           0        0.050340   -0.620454    0.505592
      8          6           0       -1.232715   -1.291195    0.557885
      9          8           0       -1.623922   -1.820059    1.568253
     10          8           0       -1.784939   -1.316150   -0.653314
     11          6           0       -3.025249   -2.088726   -0.782898
     12          6           0       -4.240658   -1.239339   -0.525057
     13          6           0       -4.861502   -0.556377   -1.577679
     14          6           0       -5.983934    0.239260   -1.354642
     15          6           0       -6.486166    0.348914   -0.058412
     16          6           0       -5.886030   -0.319814    1.008420
     17          6           0       -4.764466   -1.111603    0.768456
     18         17           0       -7.903911    1.344801    0.234708
     19          6           0        4.764449    1.111550    0.768516
     20          6           0        5.886015    0.319753    1.008446
     21          6           0        6.486173   -0.348899   -0.058422
     22          6           0        5.983961   -0.239163   -1.354653
     23          6           0        4.861526    0.556481   -1.577654
     24         17           0        7.903922   -1.344794    0.234653
     25          1           0        2.995938    2.444485   -1.813843
     26          1           0        2.967621    2.935666   -0.096602
     27          1           0       -2.967633   -2.935670   -0.096750
     28          1           0       -2.995927   -2.444385   -1.813962
     29          1           0       -4.466652   -0.646454   -2.586729
     30          1           0       -6.465207    0.765127   -2.172119
     31          1           0       -6.291896   -0.222226    2.009525
     32          1           0       -4.283584   -1.627246    1.594082
     33          1           0        4.283551    1.627134    1.594169
     34          1           0        6.291867    0.222102    2.009550
     35          1           0        6.465251   -0.764970   -2.172157
     36          1           0        4.466691    0.646622   -2.586704
 ---------------------------------------------------------------------

 SCF Done:  E(RB3LYP) =  -1947.67346119     a.u. after    1 cycles

 Excitation energies and oscillator strengths:

 Excited State   1:      Singlet-A      2.9403 eV  421.67 nm  f=0.0021  <S**2>=0.000
      92 -> 95         0.50337
      94 -> 95         0.48546
 This state for optimization and/or second-order correction.
 Total Energy, E(TD-HF/TD-DFT) =  -1947.56540571
 Copying the excited state density for this state as the 1-particle RhoCI density.

 Excited State   2:      Singlet-A      4.0100 eV  309.19 nm  f=0.0002  <S**2>=0.000
      93 -> 95         0.70525

 Excited State   3:      Singlet-A      4.0126 eV  308.99 nm  f=0.0449  <S**2>=0.000
      92 -> 95        -0.48513
      94 -> 95         0.51132

 Excited State   4:      Singlet-A      4.4472 eV  278.79 nm  f=0.0011  <S**2>=0.000
      91 -> 95         0.70532

 Excited State   5:      Singlet-A      4.4486 eV  278.70 nm  f=0.0007  <S**2>=0.000
      90 -> 95         0.70554

 Excited State   6:      Singlet-A      5.0426 eV  245.87 nm  f=0.0852  <S**2>=0.000
      87 -> 95         0.18148
      89 -> 95         0.66245

 Excited State   7:      Singlet-A      5.2162 eV  237.69 nm  f=0.0000  <S**2>=0.000
      86 -> 95         0.57056
      88 -> 95         0.38558

 Excited State   8:      Singlet-A      5.2514 eV  236.10 nm  f=0.0007  <S**2>=0.000
      90 -> 97         0.31629
      91 -> 96        -0.32051
      92 -> 98        -0.16048
      93 -> 99         0.36832
      94 -> 98         0.36160

 Excited State   9:      Singlet-A      5.2515 eV  236.09 nm  f=0.0001  <S**2>=0.000
      90 -> 96         0.32077
      91 -> 97        -0.31661
      92 -> 99        -0.16175
      93 -> 98         0.36920
      94 -> 99         0.36078

 Excited State  10:      Singlet-A      5.4662 eV  226.82 nm  f=0.0017  <S**2>=0.000
      85 -> 95         0.68887

 The electronic state is 1-A.
 Alpha  occ. eigenvalues -- -101.55442-101.55442 -19.22089 -19.22089 -19.16463
 Alpha  occ. eigenvalues --  -19.16463 -14.42996 -14.42945 -10.36013 -10.36012
 Alpha  occ. eigenvalues --  -10.26883 -10.26883 -10.26367 -10.26367 -10.21732
 Alpha  occ. eigenvalues --  -10.21732 -10.21484 -10.21484 -10.21386 -10.21386
 Alpha  occ. eigenvalues --  -10.21262 -10.21262 -10.21085 -10.21085  -9.47075
 Alpha  occ. eigenvalues --   -9.47075  -7.23471  -7.23471  -7.22505  -7.22505
 Alpha  occ. eigenvalues --   -7.22467  -7.22467  -1.14543  -1.13308  -1.06422
 Alpha  occ. eigenvalues --   -1.04707  -1.04373  -0.89965  -0.89954  -0.85349
 Alpha  occ. eigenvalues --   -0.85175  -0.81378  -0.78418  -0.76900  -0.76896
 Alpha  occ. eigenvalues --   -0.76419  -0.71513  -0.69739  -0.63442  -0.63441
 Alpha  occ. eigenvalues --   -0.62689  -0.60787  -0.59618  -0.57422  -0.56468
 Alpha  occ. eigenvalues --   -0.53303  -0.52863  -0.50928  -0.50882  -0.50212
 Alpha  occ. eigenvalues --   -0.49043  -0.48754  -0.48294  -0.47903  -0.46504
 Alpha  occ. eigenvalues --   -0.45743  -0.44829  -0.44523  -0.44081  -0.43663
 Alpha  occ. eigenvalues --   -0.42874  -0.41119  -0.41107  -0.40315  -0.40121
 Alpha  occ. eigenvalues --   -0.38953  -0.38801  -0.38094  -0.37821  -0.36487
 Alpha  occ. eigenvalues --   -0.36476  -0.33971  -0.33888  -0.32711  -0.32643
 Alpha  occ. eigenvalues --   -0.32032  -0.31866  -0.31750  -0.31440  -0.27226
 Alpha  occ. eigenvalues --   -0.27224  -0.26177  -0.25556  -0.25165
 Alpha virt. eigenvalues --   -0.08979  -0.03159  -0.03120  -0.02242  -0.02237
 Alpha virt. eigenvalues --   -0.00271   0.00216   0.02366   0.02386   0.09614
 Alpha virt. eigenvalues --    0.09633   0.10698   0.10825   0.11987   0.11991

 Mulliken charges:
               1
     1  C    0.152286
     2  C   -0.158206
     3  O   -0.408514
     4  C    0.740012
     5  O   -0.414717
     6  N   -0.239097
     7  N   -0.239098
     8  C    0.740011
     9  O   -0.414723
    10  O   -0.408516
    11  C   -0.158205
    12  C    0.152285
    13  C   -0.165775
    14  C   -0.128190
    15  C   -0.062469
    16  C   -0.128962
    17  C   -0.172385
    18  Cl  -0.014189
    19  C   -0.172386
    20  C   -0.128962
    21  C   -0.062469
    22  C   -0.128190
    23  C   -0.165775
    24  Cl  -0.014188
    25  H    0.172756
    26  H    0.187247
    27  H    0.187246
    28  H    0.172756
    29  H    0.143831
    30  H    0.160398
    31  H    0.163679
    32  H    0.172299
    33  H    0.172299
    34  H    0.163679
    35  H    0.160399
    36  H    0.143832
 Sum of Mulliken charges =   0.00000

 Dipole moment (field-independent basis, Debye):
    X=              0.0001    Y=              0.0002    Z=             -3.9117  Tot=              3.9117
 Quadrupole moment (field-independent basis, Debye-Ang):
   XX=           -156.9150   YY=           -145.3975   ZZ=           -142.4558
   XY=             14.0988   XZ=              0.0003   YZ=             -0.0000

 Summary of Natural Population Analysis:

                                       Natural Population
                Natural  -----------------------------------------------
    Atom  No    Charge         Core      Valence    Rydberg      Total
 -----------------------------------------------------------------------
      C    1   -0.09426      1.99901     4.08089    0.01436     6.09426
      C    2   -0.12482      1.99912     4.10644    0.01925     6.12482
      O    3   -0.52268      1.99973     6.51068    0.01226     8.52268
      C    4    0.92253      1.99950     3.02774    0.05022     5.07747
      O    5   -0.54826      1.99977     6.52774    0.02076     8.54826
      N    6   -0.21650      1.99938     5.19070    0.02641     7.21650
      N    7   -0.21650      1.99938     5.19070    0.02641     7.21650
      C    8    0.92253      1.99950     3.02774    0.05022     5.07747
      O    9   -0.54827      1.99977     6.52774    0.02076     8.54827
      O   10   -0.52268      1.99973     6.51069    0.01226     8.52268
      C   11   -0.12481      1.99912     4.10644    0.01925     6.12481
      C   12   -0.09426      1.99901     4.08089    0.01436     6.09426
      C   13   -0.20038      1.99903     4.18829    0.01306     6.20038
      C   14   -0.24368      1.99893     4.22983    0.01491     6.24368
      C   15   -0.03603      1.99856     4.01571    0.02176     6.03603
      C   16   -0.24127      1.99894     4.22740    0.01493     6.24127
      C   17   -0.19922      1.99903     4.18688    0.01331     6.19922
     Cl   18    0.00243      9.99967     6.97860    0.01930    16.99757
      C   19   -0.19922      1.99903     4.18688    0.01331     6.19922
      C   20   -0.24127      1.99894     4.22740    0.01493     6.24127
      C   21   -0.03603      1.99856     4.01571    0.02176     6.03603
      C   22   -0.24368      1.99893     4.22983    0.01491     6.24368
      C   23   -0.20038      1.99903     4.18829    0.01306     6.20038
     Cl   24    0.00243      9.99967     6.97860    0.01930    16.99757
      H   25    0.24270      0.00000     0.75619    0.00112     0.75730
      H   26    0.24393      0.00000     0.75391    0.00216     0.75607
      H   27    0.24393      0.00000     0.75391    0.00216     0.75607
      H   28    0.24270      0.00000     0.75619    0.00112     0.75730
      H   29    0.24269      0.00000     0.75630    0.00101     0.75731
      H   30    0.25612      0.00000     0.74286    0.00102     0.74388
      H   31    0.25767      0.00000     0.74133    0.00100     0.74233
      H   32    0.25902      0.00000     0.73966    0.00133     0.74098
      H   33    0.25902      0.00000     0.73966    0.00133     0.74098
      H   34    0.25767      0.00000     0.74133    0.00100     0.74233
      H   35    0.25612      0.00000     0.74286    0.00102     0.74388
      H   36    0.24269      0.00000     0.75630    0.00101     0.75731
 =======================================================================
   * Total *    0.00000     63.98135   123.52232    0.49633   188.00000

 Normal termination of Gaussian 16 at Sat Aug 22 17:30:31 2020.
