 Gaussian 16, Revision A.03,

 ---------------------------------
 # opt=CalcAll B3LYP/6-31G* scf=qc
 ---------------------------------

 -------------------
 Title Card Required
 -------------------
 Symbolic Z-matrix:
 Charge =  0 Multiplicity = 1

 SCF Done:  E(RB3LYP) =  -723.609719769     a.u. after   10 cycles
 SCF Done:  E(RB3LYP) =  -723.640738632     a.u. after   19 cycles
 SCF Done:  E(RB3LYP) =  -723.647782968     a.u. after   23 cycles
 SCF Done:  E(RB3LYP) =  -723.645654969     a.u. after   17 cycles
 SCF Done:  E(RB3LYP) =  -723.648013021     a.u. after   12 cycles
 SCF Done:  E(RB3LYP) =  -723.649055227     a.u. after   13 cycles
 SCF Done:  E(RB3LYP) =  -723.649122884     a.u. after   11 cycles
 SCF Done:  E(RB3LYP) =  -723.649124153     a.u. after    4 cycles
 SCF Done:  E(RB3LYP) =  -723.649124101     a.u. after    3 cycles
 SCF Done:  E(RB3LYP) =  -723.649124133     a.u. after    2 cycles
 Optimization completed.
    -- Stationary point found.
 Normal termination of Gaussian 16 at Sat Aug 22 13:51:10 2020.

 ----------------------------------------------------------------------
 # freq B3LYP/6-31G* scf=qc volume NMR pop=NPA density=current Geom=All
 Check Guess=Read
 ----------------------------------------------------------------------

 Structure from the checkpoint file:  "azadicarboxylate_2_conf192.chk"
 -------------------
 Title Card Required
 -------------------
 Charge =  0 Multiplicity = 1

 SCF Done:  E(RB3LYP) =  -723.649124133     a.u. after    1 cycles

      1  C    Isotropic =   168.2953   Anisotropy =    30.0535

      2  C    Isotropic =   118.4879   Anisotropy =    64.3544

      3  C    Isotropic =   168.3518   Anisotropy =    31.2885

      4  O    Isotropic =   134.6794   Anisotropy =   113.5304

      5  C    Isotropic =    35.1049   Anisotropy =    85.7560

      6  O    Isotropic =   -21.1851   Anisotropy =   497.4720

      7  N    Isotropic =  -318.7515   Anisotropy =   668.0804

      8  N    Isotropic =  -323.3175   Anisotropy =   672.3012

      9  C    Isotropic =    35.5312   Anisotropy =    80.4802

     10  O    Isotropic =   -27.6144   Anisotropy =   483.8679

     11  O    Isotropic =   139.6514   Anisotropy =   141.6480

     12  C    Isotropic =   113.3163   Anisotropy =    72.2052

     13  C    Isotropic =   169.6196   Anisotropy =    27.8947

     14  C    Isotropic =   170.6283   Anisotropy =    27.4962

     15  H    Isotropic =    31.1067   Anisotropy =     8.4464

     16  H    Isotropic =    30.8006   Anisotropy =     6.5018

     17  H    Isotropic =    30.7129   Anisotropy =     8.4540

     18  H    Isotropic =    26.9900   Anisotropy =     2.6771

     19  H    Isotropic =    31.0554   Anisotropy =     6.6815

     20  H    Isotropic =    31.1726   Anisotropy =     8.7423

     21  H    Isotropic =    30.3653   Anisotropy =     7.1184

     22  H    Isotropic =    27.6461   Anisotropy =     4.2834

     23  H    Isotropic =    29.7374   Anisotropy =     5.3902

     24  H    Isotropic =    30.6969   Anisotropy =     8.1161

     25  H    Isotropic =    31.1983   Anisotropy =     8.5365

     26  H    Isotropic =    29.6004   Anisotropy =     5.5743

     27  H    Isotropic =    31.1536   Anisotropy =     8.3622

     28  H    Isotropic =    30.6404   Anisotropy =     8.1418

  Exact polarizability: 149.678   1.999  98.775   3.357   0.013  88.507
 Approx polarizability: 172.214   3.053 156.556  11.503  -0.231 129.267

                      1                      2                      3
                      A                      A                      A
 Frequencies --     11.7813                35.0615                46.4399
 Red. masses --      4.0305                 3.7554                 4.0392
 Frc consts  --      0.0003                 0.0027                 0.0051
 IR Inten    --      0.1668                 1.2808                 0.9126

                      4                      5                      6
                      A                      A                      A
 Frequencies --     54.7722                60.2442                84.6487
 Red. masses --      5.5170                 4.9011                 5.0447
 Frc consts  --      0.0098                 0.0105                 0.0213
 IR Inten    --      0.6773                 0.1915                 0.5083

                      7                      8                      9
                      A                      A                      A
 Frequencies --    111.3725               183.3702               193.9756
 Red. masses --      3.5290                 5.1967                 4.4511
 Frc consts  --      0.0258                 0.1030                 0.0987
 IR Inten    --      0.2931                 4.7099                 1.3129

                     10                     11                     12
                      A                      A                      A
 Frequencies --    215.8430               222.2885               230.4486
 Red. masses --      2.3646                 1.1236                 1.0924
 Frc consts  --      0.0649                 0.0327                 0.0342
 IR Inten    --      2.3748                 0.4748                 0.0742

                     13                     14                     15
                      A                      A                      A
 Frequencies --    239.9230               249.6046               265.2465
 Red. masses --      8.1307                 1.0528                 1.3950
 Frc consts  --      0.2758                 0.0386                 0.0578
 IR Inten    --      4.2153                 0.0012                 1.8161

                     16                     17                     18
                      A                      A                      A
 Frequencies --    311.1935               356.8024               405.4015
 Red. masses --      3.1085                 2.5168                 3.9187
 Frc consts  --      0.1774                 0.1888                 0.3795
 IR Inten    --      4.6795                 0.4540                 4.5744

                     19                     20                     21
                      A                      A                      A
 Frequencies --    414.3648               429.9273               465.2511
 Red. masses --      3.5692                 3.4778                 2.8637
 Frc consts  --      0.3611                 0.3787                 0.3652
 IR Inten    --     11.7854                15.7878                 4.5753

                     22                     23                     24
                      A                      A                      A
 Frequencies --    488.5719               579.9038               614.1745
 Red. masses --      3.1615                 8.7115                 7.6348
 Frc consts  --      0.4446                 1.7261                 1.6968
 IR Inten    --     12.0554                 0.7386                 4.5806

                     25                     26                     27
                      A                      A                      A
 Frequencies --    644.2499               798.7109               813.7584
 Red. masses --      4.9713                 5.5076                10.1981
 Frc consts  --      1.2157                 2.0701                 3.9789
 IR Inten    --      3.9009                27.1293                28.7191

                     28                     29                     30
                      A                      A                      A
 Frequencies --    835.2492               860.7431               906.3384
 Red. masses --      3.4891                 6.2664                 3.2556
 Frc consts  --      1.4342                 2.7354                 1.5756
 IR Inten    --      6.5790                 2.6521                45.9408

                     31                     32                     33
                      A                      A                      A
 Frequencies --    922.9147               949.9003               951.0644
 Red. masses --      3.2471                 1.2684                 1.2553
 Frc consts  --      1.6296                 0.6743                 0.6690
 IR Inten    --      0.3275                 1.3753                 0.5959

                     34                     35                     36
                      A                      A                      A
 Frequencies --    957.2044               962.1460               972.2023
 Red. masses --      1.3272                 1.3921                 4.6213
 Frc consts  --      0.7165                 0.7593                 2.5735
 IR Inten    --      0.4543                 3.1642                 4.4058

                     37                     38                     39
                      A                      A                      A
 Frequencies --    999.2609              1143.4695              1168.2389
 Red. masses --      8.3070                 1.8455                 1.9272
 Frc consts  --      4.8871                 1.4217                 1.5497
 IR Inten    --     19.0280               238.3799               105.9507

                     40                     41                     42
                      A                      A                      A
 Frequencies --   1171.5451              1175.2400              1218.1404
 Red. masses --      2.1476                 2.0342                 1.9964
 Frc consts  --      1.7367                 1.6553                 1.7454
 IR Inten    --     14.7400                 7.2727                62.0720

                     43                     44                     45
                      A                      A                      A
 Frequencies --   1218.9442              1244.2250              1290.3563
 Red. masses --      1.9373                 5.2681                 6.1814
 Frc consts  --      1.6960                 4.8051                 6.0639
 IR Inten    --     11.0380               965.3199               247.5482

                     46                     47                     48
                      A                      A                      A
 Frequencies --   1383.4983              1391.4414              1398.9275
 Red. masses --      1.4060                 1.3199                 1.2528
 Frc consts  --      1.5856                 1.5057                 1.4446
 IR Inten    --      7.1664                 3.3305                 5.1538

                     49                     50                     51
                      A                      A                      A
 Frequencies --   1420.1715              1430.5168              1433.8559
 Red. masses --      1.3018                 1.3290                 1.3398
 Frc consts  --      1.5469                 1.6024                 1.6229
 IR Inten    --     17.6745                18.7879                16.1440

                     52                     53                     54
                      A                      A                      A
 Frequencies --   1444.7767              1448.7725              1511.0195
 Red. masses --      1.2414                 1.2568                 1.0482
 Frc consts  --      1.5267                 1.5543                 1.4100
 IR Inten    --     18.5382                 7.0739                 0.1333

                     55                     56                     57
                      A                      A                      A
 Frequencies --   1511.7859              1516.4100              1522.1395
 Red. masses --      1.0541                 1.0440                 1.0469
 Frc consts  --      1.4194                 1.4144                 1.4291
 IR Inten    --      1.6179                 1.1413                16.5059

                     58                     59                     60
                      A                      A                      A
 Frequencies --   1525.4281              1526.7040              1539.4058
 Red. masses --      1.0507                 1.0484                 1.0497
 Frc consts  --      1.4404                 1.4398                 1.4657
 IR Inten    --      4.3723                 0.0645                 9.6171

                     61                     62                     63
                      A                      A                      A
 Frequencies --   1546.6647              1652.1379              1834.1846
 Red. masses --      1.0540                13.9814                12.3529
 Frc consts  --      1.4855                22.4851                24.4854
 IR Inten    --      7.1654                 0.5015                78.9722

                     64                     65                     66
                      A                      A                      A
 Frequencies --   1850.6910              3058.5206              3062.4603
 Red. masses --     12.3307                 1.0354                 1.0374
 Frc consts  --     24.8831                 5.7064                 5.7323
 IR Inten    --    482.0466                10.8402                15.7213

                     67                     68                     69
                      A                      A                      A
 Frequencies --   3062.9355              3066.5763              3095.7775
 Red. masses --      1.0360                 1.0382                 1.0866
 Frc consts  --      5.7263                 5.7525                 6.1357
 IR Inten    --     14.8945                10.9299                19.4987

                     70                     71                     72
                      A                      A                      A
 Frequencies --   3098.0798              3126.9212              3127.3288
 Red. masses --      1.0874                 1.1029                 1.1016
 Frc consts  --      6.1491                 6.3537                 6.3479
 IR Inten    --      1.6918                 1.6862                12.2498

                     73                     74                     75
                      A                      A                      A
 Frequencies --   3130.1827              3136.0562              3139.4707
 Red. masses --      1.1019                 1.1017                 1.1027
 Frc consts  --      6.3614                 6.3841                 6.4035
 IR Inten    --     31.9338                38.8449                24.1730

                     76                     77                     78
                      A                      A                      A
 Frequencies --   3148.4213              3162.0603              3166.7403
 Red. masses --      1.1028                 1.1022                 1.1011
 Frc consts  --      6.4405                 6.4928                 6.5056
 IR Inten    --     14.9073                 1.9821                19.2687

 - Thermochemistry -
 -------------------
 Temperature   298.150 Kelvin.  Pressure   1.00000 Atm.
 Atom     1 has atomic number  6 and mass  12.00000

 Molecular mass:   202.09536 amu.
 Principal axes and moments of inertia in atomic units:
                           1         2         3
     Eigenvalues --  1162.032266967.695627333.31859
           X            0.99997  -0.00429  -0.00674
           Y            0.00426   0.99998  -0.00397
           Z            0.00675   0.00394   0.99997
 This molecule is an asymmetric top.
 Rotational symmetry number  1.
 Warning -- assumption of classical behavior for rotation
           may cause significant error
 Rotational temperatures (Kelvin)      0.07454     0.01243     0.01181
 Rotational constants (GHZ):           1.55309     0.25902     0.24610
 Zero-point vibrational energy     597801.3 (Joules/Mol)
                                  142.87795 (Kcal/Mol)
 Warning -- explicit consideration of  24 degrees of freedom as
           vibrations may cause significant error
 Vibrational temperatures:     16.95    50.45    66.82    78.80    86.68
          (Kelvin)            121.79   160.24   263.83   279.09   310.55
                              319.82   331.56   345.20   359.13   381.63
                              447.74   513.36   583.28   596.18   618.57
                              669.39   702.95   834.35   883.66   926.93
                             1149.17  1170.82  1201.74  1238.42  1304.02
                             1327.87  1366.69  1368.37  1377.20  1384.31
                             1398.78  1437.71  1645.20  1680.84  1685.59
                             1690.91  1752.63  1753.79  1790.16  1856.53
                             1990.55  2001.97  2012.74  2043.31  2058.19
                             2063.00  2078.71  2084.46  2174.02  2175.12
                             2181.78  2190.02  2194.75  2196.59  2214.86
                             2225.31  2377.06  2638.98  2662.73  4400.53
                             4406.20  4406.88  4412.12  4454.13  4457.45
                             4498.94  4499.53  4503.63  4512.09  4517.00
                             4529.88  4549.50  4556.23

 Zero-point correction=                           0.227690 (Hartree/Particle)
 Thermal correction to Energy=                    0.243910
 Thermal correction to Enthalpy=                  0.244854
 Thermal correction to Gibbs Free Energy=         0.181111
 Sum of electronic and zero-point Energies=           -723.421434
 Sum of electronic and thermal Energies=              -723.405215
 Sum of electronic and thermal Enthalpies=            -723.404270
 Sum of electronic and thermal Free Energies=         -723.468013

                     E (Thermal)             CV                S
                      KCal/Mol        Cal/Mol-Kelvin    Cal/Mol-Kelvin
 Total                  153.056             56.265            134.158
 Electronic               0.000              0.000              0.000
 Translational            0.889              2.981             41.815
 Rotational               0.889              2.981             32.451
 Vibrational            151.278             50.304             59.891
 Vibration     1          0.593              1.987              7.685
 Vibration     2          0.594              1.982              5.520
 Vibration     3          0.595              1.979              4.964
 Vibration     4          0.596              1.976              4.637
 Vibration     5          0.597              1.973              4.449
 Vibration     6          0.601              1.960              3.780
 Vibration     7          0.607              1.940              3.245
 Vibration     8          0.631              1.862              2.294
 Vibration     9          0.635              1.848              2.189
 Vibration    10          0.645              1.817              1.994
 Vibration    11          0.648              1.807              1.940
 Vibration    12          0.652              1.794              1.875
 Vibration    13          0.657              1.779              1.803
 Vibration    14          0.662              1.763              1.733
 Vibration    15          0.671              1.737              1.627
 Vibration    16          0.700              1.652              1.356
 Vibration    17          0.732              1.561              1.136
 Vibration    18          0.770              1.458              0.943
 Vibration    19          0.778              1.439              0.911
 Vibration    20          0.791              1.405              0.859
 Vibration    21          0.823              1.327              0.751
 Vibration    22          0.844              1.275              0.687
 Vibration    23          0.937              1.075              0.486
 Vibration    24          0.974              1.002              0.426

 Optimization completed.
    -- Stationary point found.
 Normal termination of Gaussian 16 at Sat Aug 22 13:55:28 2020.
 Gaussian 16:  ES64L-G16RevA.03 25-Dec-2016

 ----------------------------------------------------------------------
 # TD(NStates=10, Root=1) B3LYP/6-31G* scf=qc volume pop=NPA density=cu
 rrent Geom=AllCheck Guess=Read
 ----------------------------------------------------------------------

 Structure from the checkpoint file:  "azadicarboxylate_2_conf193.chk"
 -------------------
 Title Card Required
 -------------------
 Charge =  0 Multiplicity = 1

                         Standard orientation:
 ---------------------------------------------------------------------
 Center     Atomic      Atomic             Coordinates (Angstroms)
 Number     Number       Type             X           Y           Z
 ---------------------------------------------------------------------
      1          6           0        4.124890   -1.812935    0.560310
      2          6           0        3.746899   -0.405441    0.125949
      3          6           0        4.184494   -0.054591   -1.290603
      4          8           0        2.280185   -0.347038    0.201000
      5          6           0        1.739350    0.848870    0.418338
      6          8           0        2.298900    1.906686    0.565650
      7          7           0        0.303537    0.730909    0.590413
      8          7           0       -0.297015    0.536229   -0.483004
      9          6           0       -1.741803    0.528308   -0.328592
     10          8           0       -2.403072    1.480968   -0.659203
     11          8           0       -2.134782   -0.665768    0.099037
     12          6           0       -3.573692   -0.967909    0.214030
     13          6           0       -4.232693   -0.093924    1.275803
     14          6           0       -4.254109   -0.932620   -1.150386
     15          1           0        5.214624   -1.922529    0.554757
     16          1           0        3.699542   -2.557373   -0.121181
     17          1           0        3.761815   -2.020634    1.571485
     18          1           0        4.130216    0.337705    0.831124
     19          1           0        3.750335   -0.754339   -2.012831
     20          1           0        5.276059   -0.110820   -1.367062
     21          1           0        3.875693    0.961583   -1.550567
     22          1           0       -3.534765   -2.000963    0.570669
     23          1           0       -4.298276    0.946332    0.949912
     24          1           0       -3.669366   -0.138220    2.213413
     25          1           0       -5.245267   -0.465700    1.469076
     26          1           0       -4.317091    0.086318   -1.538207
     27          1           0       -5.269255   -1.334045   -1.054974
     28          1           0       -3.709789   -1.554619   -1.868444
 ---------------------------------------------------------------------

 SCF Done:  E(RB3LYP) =  -723.649124133     a.u. after    1 cycles

 Excitation energies and oscillator strengths:

 Excited State   1:      Singlet-A      2.9270 eV  423.58 nm  f=0.0041  <S**2>=0.000
      54 -> 55         0.69873
 This state for optimization and/or second-order correction.
 Total Energy, E(TD-HF/TD-DFT) =  -723.541558068
 Copying the excited state density for this state as the 1-particle RhoCI density.

 Excited State   2:      Singlet-A      4.9548 eV  250.23 nm  f=0.0531  <S**2>=0.000
      52 -> 55        -0.18774
      53 -> 55         0.66154

 Excited State   3:      Singlet-A      5.1034 eV  242.95 nm  f=0.0014  <S**2>=0.000
      52 -> 55         0.66782
      53 -> 55         0.19153

 Excited State   4:      Singlet-A      5.3999 eV  229.60 nm  f=0.0030  <S**2>=0.000
      50 -> 55         0.37873
      51 -> 55         0.59229

 Excited State   5:      Singlet-A      5.4304 eV  228.31 nm  f=0.0036  <S**2>=0.000
      50 -> 55         0.58745
      51 -> 55        -0.37485

 Excited State   6:      Singlet-A      5.6270 eV  220.34 nm  f=0.0055  <S**2>=0.000
      53 -> 56         0.14238
      54 -> 56         0.66178
      54 -> 57         0.11631

 Excited State   7:      Singlet-A      5.7723 eV  214.79 nm  f=0.0114  <S**2>=0.000
      52 -> 56         0.10412
      52 -> 57        -0.13731
      54 -> 56        -0.11796
      54 -> 57         0.66658

 Excited State   8:      Singlet-A      6.5019 eV  190.69 nm  f=0.0016  <S**2>=0.000
      44 -> 55        -0.12671
      48 -> 55        -0.13610
      49 -> 55         0.66776

 Excited State   9:      Singlet-A      6.5597 eV  189.01 nm  f=0.0078  <S**2>=0.000
      45 -> 55         0.12109
      48 -> 55         0.65606
      49 -> 55         0.13779

 Excited State  10:      Singlet-A      6.7766 eV  182.96 nm  f=0.0120  <S**2>=0.000
      52 -> 56         0.22223
      53 -> 56         0.57082
      53 -> 57         0.25153
      54 -> 56        -0.15945

 The electronic state is 1-A.
 Alpha  occ. eigenvalues --  -19.20829 -19.20797 -19.15317 -19.15313 -14.41941
 Alpha  occ. eigenvalues --  -14.41884 -10.35038 -10.34896 -10.26568 -10.26146
 Alpha  occ. eigenvalues --  -10.19202 -10.18890 -10.18849 -10.18786  -1.13400
 Alpha  occ. eigenvalues --   -1.12122  -1.05286  -1.03656  -1.03309  -0.82246
 Alpha  occ. eigenvalues --   -0.80568  -0.76407  -0.70542  -0.70444  -0.66552
 Alpha  occ. eigenvalues --   -0.63178  -0.58178  -0.56138  -0.52355  -0.50888
 Alpha  occ. eigenvalues --   -0.49803  -0.48897  -0.47596  -0.46685  -0.45513
 Alpha  occ. eigenvalues --   -0.44872  -0.43361  -0.42562  -0.41461  -0.40639
 Alpha  occ. eigenvalues --   -0.40482  -0.40097  -0.39000  -0.38151  -0.37447
 Alpha  occ. eigenvalues --   -0.36739  -0.36464  -0.35406  -0.34941  -0.31507
 Alpha  occ. eigenvalues --   -0.31441  -0.30591  -0.30145  -0.24670
 Alpha virt. eigenvalues --   -0.07981   0.00713   0.01343   0.08597   0.08751
 Alpha virt. eigenvalues --    0.10502   0.10636   0.13238   0.13722   0.14462
 Alpha virt. eigenvalues --    0.14764   0.15615   0.16476   0.16870   0.17204

 Mulliken charges:
               1
     1  C   -0.454435
     2  C    0.117685
     3  C   -0.459232
     4  O   -0.426021
     5  C    0.736700
     6  O   -0.420401
     7  N   -0.245853
     8  N   -0.240209
     9  C    0.738219
    10  O   -0.413279
    11  O   -0.432186
    12  C    0.129178
    13  C   -0.470367
    14  C   -0.471820
    15  H    0.155193
    16  H    0.162970
    17  H    0.164889
    18  H    0.168129
    19  H    0.159859
    20  H    0.153073
    21  H    0.178428
    22  H    0.157621
    23  H    0.188178
    24  H    0.164637
    25  H    0.152944
    26  H    0.187852
    27  H    0.155195
    28  H    0.163052
 Sum of Mulliken charges =   0.00000

 Dipole moment (field-independent basis, Debye):
    X=             -0.1593    Y=             -4.0163    Z=              0.1686  Tot=              4.0230
 Quadrupole moment (field-independent basis, Debye-Ang):
   XX=            -58.4609   YY=            -89.0702   ZZ=            -81.0149
   XY=              0.7026   XZ=             -3.0473   YZ=             -0.0660

 Summary of Natural Population Analysis:

                                       Natural Population
                Natural  -----------------------------------------------
    Atom  No    Charge         Core      Valence    Rydberg      Total
 -----------------------------------------------------------------------
      C    1   -0.69622      1.99939     4.68781    0.00902     6.69622
      C    2    0.08319      1.99912     3.90017    0.01752     5.91681
      C    3   -0.70376      1.99939     4.69583    0.00854     6.70376
      O    4   -0.53948      1.99972     6.52710    0.01266     8.53948
      C    5    0.91805      1.99950     3.03168    0.05077     5.08195
      O    6   -0.54813      1.99977     6.52765    0.02070     8.54813
      N    7   -0.22120      1.99939     5.19528    0.02653     7.22120
      N    8   -0.22013      1.99939     5.19422    0.02652     7.22013
      C    9    0.92012      1.99951     3.02817    0.05220     5.07988
      O   10   -0.54278      1.99977     6.52251    0.02050     8.54278
      O   11   -0.53254      1.99972     6.52082    0.01199     8.53254
      C   12    0.08488      1.99912     3.89776    0.01823     5.91512
      C   13   -0.70946      1.99939     4.70208    0.00799     6.70946
      C   14   -0.71051      1.99939     4.70302    0.00810     6.71051
      H   15    0.24141      0.00000     0.75793    0.00066     0.75859
      H   16    0.23896      0.00000     0.75976    0.00128     0.76104
      H   17    0.24529      0.00000     0.75374    0.00098     0.75471
      H   18    0.24328      0.00000     0.75399    0.00274     0.75672
      H   19    0.23654      0.00000     0.76210    0.00136     0.76346
      H   20    0.24015      0.00000     0.75908    0.00076     0.75985
      H   21    0.25137      0.00000     0.74761    0.00102     0.74863
      H   22    0.24565      0.00000     0.75267    0.00168     0.75435
      H   23    0.25257      0.00000     0.74610    0.00134     0.74743
      H   24    0.24399      0.00000     0.75495    0.00106     0.75601
      H   25    0.24090      0.00000     0.75836    0.00074     0.75910
      H   26    0.25208      0.00000     0.74647    0.00145     0.74792
      H   27    0.24278      0.00000     0.75650    0.00072     0.75722
      H   28    0.24300      0.00000     0.75595    0.00105     0.75700
 =======================================================================
   * Total *   -0.00000     27.99258    79.69930    0.30811   108.00000

 Normal termination of Gaussian 16 at Sat Aug 22 14:00:41 2020.
