 Gaussian 16, Revision A.03,

 ---------------------------------
 # opt=CalcAll B3LYP/6-31G* scf=qc
 ---------------------------------

 -------------------
 Title Card Required
 -------------------
 Symbolic Z-matrix:
 Charge =  0 Multiplicity = 1

 SCF Done:  E(RB3LYP) =  -723.593194935     a.u. after    9 cycles
 SCF Done:  E(RB3LYP) =  -723.606300234     a.u. after   15 cycles
 SCF Done:  E(RB3LYP) =  -723.640725164     a.u. after   20 cycles
 SCF Done:  E(RB3LYP) =  -723.647383014     a.u. after   19 cycles
 SCF Done:  E(RB3LYP) =  -723.649351336     a.u. after   15 cycles
 SCF Done:  E(RB3LYP) =  -723.649572230     a.u. after   13 cycles
 SCF Done:  E(RB3LYP) =  -723.649584997     a.u. after    5 cycles
 SCF Done:  E(RB3LYP) =  -723.649585231     a.u. after    3 cycles
 Optimization completed.
    -- Stationary point found.
 Normal termination of Gaussian 16 at Sat Aug 22 13:52:01 2020.

 ----------------------------------------------------------------------
 # freq B3LYP/6-31G* scf=qc volume NMR pop=NPA density=current Geom=All
 Check Guess=Read
 ----------------------------------------------------------------------

 Structure from the checkpoint file:  "azadicarboxylate_2_conf32.chk"
 -------------------
 Title Card Required
 -------------------
 Charge =  0 Multiplicity = 1

 SCF Done:  E(RB3LYP) =  -723.649585231     a.u. after    1 cycles

      1  C    Isotropic =   170.6055   Anisotropy =    27.5106

      2  C    Isotropic =   113.3607   Anisotropy =    72.2881

      3  C    Isotropic =   169.6204   Anisotropy =    27.8140

      4  O    Isotropic =   138.2409   Anisotropy =   143.8008

      5  C    Isotropic =    35.2010   Anisotropy =    78.4405

      6  O    Isotropic =   -27.5339   Anisotropy =   483.6046

      7  N    Isotropic =  -322.4491   Anisotropy =   672.2774

      8  N    Isotropic =  -317.8618   Anisotropy =   667.8403

      9  C    Isotropic =    34.9588   Anisotropy =    84.8146

     10  O    Isotropic =   -21.0293   Anisotropy =   498.4004

     11  O    Isotropic =   133.5444   Anisotropy =   114.8413

     12  C    Isotropic =   118.3937   Anisotropy =    64.3504

     13  C    Isotropic =   168.3347   Anisotropy =    30.1182

     14  C    Isotropic =   168.3277   Anisotropy =    31.2287

     15  H    Isotropic =    31.1547   Anisotropy =     8.3736

     16  H    Isotropic =    29.6186   Anisotropy =     5.5559

     17  H    Isotropic =    30.6327   Anisotropy =     8.1421

     18  H    Isotropic =    27.6247   Anisotropy =     4.5073

     19  H    Isotropic =    29.7703   Anisotropy =     5.2542

     20  H    Isotropic =    31.1966   Anisotropy =     8.5331

     21  H    Isotropic =    30.6799   Anisotropy =     8.1601

     22  H    Isotropic =    26.9994   Anisotropy =     2.6198

     23  H    Isotropic =    30.7718   Anisotropy =     6.6145

     24  H    Isotropic =    30.7100   Anisotropy =     8.4852

     25  H    Isotropic =    31.1187   Anisotropy =     8.4481

     26  H    Isotropic =    31.0317   Anisotropy =     6.7168

     27  H    Isotropic =    31.1765   Anisotropy =     8.6913

     28  H    Isotropic =    30.3950   Anisotropy =     7.0250

  Exact polarizability: 153.142  -2.697  97.513   2.291  -1.297  87.417
 Approx polarizability: 168.917 -11.519 166.279   5.700  -5.553 124.117

                      1                      2                      3
                      A                      A                      A
 Frequencies --     12.6355                37.2422                50.6567
 Red. masses --      4.2186                 3.1915                 4.8013
 Frc consts  --      0.0004                 0.0026                 0.0073
 IR Inten    --      2.6472                 0.8395                 2.7569

                      4                      5                      6
                      A                      A                      A
 Frequencies --     56.9346                62.2108                84.6375
 Red. masses --      4.2511                 6.4527                 5.2538
 Frc consts  --      0.0081                 0.0147                 0.0222
 IR Inten    --      0.1739                 0.0335                 0.5901

                      7                      8                      9
                      A                      A                      A
 Frequencies --    110.6065               188.5774               197.2421
 Red. masses --      3.5303                 4.6592                 4.9469
 Frc consts  --      0.0254                 0.0976                 0.1134
 IR Inten    --      0.2929                 1.4255                 5.6333

                     10                     11                     12
                      A                      A                      A
 Frequencies --    207.3380               220.7941               230.9047
 Red. masses --      5.0607                 1.0671                 1.1303
 Frc consts  --      0.1282                 0.0306                 0.0355
 IR Inten    --      2.7801                 0.3141                 0.8790

                     13                     14                     15
                      A                      A                      A
 Frequencies --    232.2134               249.7265               266.3891
 Red. masses --      2.5270                 1.0564                 1.5009
 Frc consts  --      0.0803                 0.0388                 0.0628
 IR Inten    --     10.6401                 0.0202                 4.8096

                     16                     17                     18
                      A                      A                      A
 Frequencies --    332.1362               348.3862               403.3588
 Red. masses --      2.6123                 2.9832                 3.7405
 Frc consts  --      0.1698                 0.2133                 0.3586
 IR Inten    --      0.5047                 0.6535                 4.3805

                     19                     20                     21
                      A                      A                      A
 Frequencies --    422.7476               429.8710               460.8360
 Red. masses --      3.5634                 4.6363                 2.9381
 Frc consts  --      0.3752                 0.5048                 0.3676
 IR Inten    --      9.1660                 4.7655                 0.3668

                     22                     23                     24
                      A                      A                      A
 Frequencies --    479.5054               573.6087               611.7217
 Red. masses --      3.0859                 4.3060                 8.6349
 Frc consts  --      0.4180                 0.8348                 1.9038
 IR Inten    --      6.1045                 8.9969                 2.3879

                     25                     26                     27
                      A                      A                      A
 Frequencies --    663.2450               794.6704               814.8186
 Red. masses --      7.4909                 4.6097                11.8680
 Frc consts  --      1.9415                 1.7151                 4.6425
 IR Inten    --     11.1518                10.0066                33.1025

                     28                     29                     30
                      A                      A                      A
 Frequencies --    834.4440               860.9293               909.8840
 Red. masses --      3.7471                 6.0893                 3.4874
 Frc consts  --      1.5372                 2.6592                 1.7011
 IR Inten    --     19.5741                 2.7454                56.6244

                     31                     32                     33
                      A                      A                      A
 Frequencies --    917.4681               950.2103               951.2614
 Red. masses --      3.0011                 1.2812                 1.2541
 Frc consts  --      1.4884                 0.6816                 0.6686
 IR Inten    --      1.8977                 1.3569                 0.7519

                     34                     35                     36
                      A                      A                      A
 Frequencies --    957.4292               962.2805               974.6545
 Red. masses --      1.3118                 1.3799                 4.7325
 Frc consts  --      0.7085                 0.7529                 2.6488
 IR Inten    --      0.4976                 4.1050                16.0143

                     37                     38                     39
                      A                      A                      A
 Frequencies --    999.4125              1143.7760              1168.2020
 Red. masses --      8.5007                 1.8277                 1.9220
 Frc consts  --      5.0026                 1.4088                 1.5454
 IR Inten    --      9.5869               242.1437               113.4252

                     40                     41                     42
                      A                      A                      A
 Frequencies --   1171.8115              1175.2732              1218.8218
 Red. masses --      2.1492                 2.0330                 1.9561
 Frc consts  --      1.7388                 1.6545                 1.7121
 IR Inten    --     13.6135                 9.6489                37.7038

                     43                     44                     45
                      A                      A                      A
 Frequencies --   1219.0563              1261.9547              1279.7701
 Red. masses --      1.9304                 5.3274                 6.7047
 Frc consts  --      1.6902                 4.9986                 6.4698
 IR Inten    --      4.3389              1089.9367               155.6213

                     46                     47                     48
                      A                      A                      A
 Frequencies --   1383.4845              1391.5740              1399.0001
 Red. masses --      1.4075                 1.3203                 1.2545
 Frc consts  --      1.5872                 1.5063                 1.4466
 IR Inten    --      9.0027                 3.3118                 6.2116

                     49                     50                     51
                      A                      A                      A
 Frequencies --   1420.6579              1430.5738              1433.9791
 Red. masses --      1.3037                 1.3282                 1.3398
 Frc consts  --      1.5503                 1.6016                 1.6232
 IR Inten    --     22.4378                18.6156                17.0768

                     52                     53                     54
                      A                      A                      A
 Frequencies --   1444.8142              1448.9591              1511.2202
 Red. masses --      1.2417                 1.2565                 1.0483
 Frc consts  --      1.5272                 1.5542                 1.4106
 IR Inten    --     17.8640                 6.9392                 0.1464

                     55                     56                     57
                      A                      A                      A
 Frequencies --   1511.8103              1516.3803              1522.2203
 Red. masses --      1.0537                 1.0441                 1.0469
 Frc consts  --      1.4190                 1.4146                 1.4293
 IR Inten    --      1.6922                 1.1521                17.2123

                     58                     59                     60
                      A                      A                      A
 Frequencies --   1525.4917              1526.6716              1539.5312
 Red. masses --      1.0507                 1.0484                 1.0497
 Frc consts  --      1.4406                 1.4397                 1.4659
 IR Inten    --      4.3179                 0.0604                 9.5376

                     61                     62                     63
                      A                      A                      A
 Frequencies --   1546.6708              1648.2244              1832.8602
 Red. masses --      1.0539                13.9726                12.3406
 Frc consts  --      1.4855                22.3645                24.4257
 IR Inten    --      7.3682                 0.0817                 2.5508

                     64                     65                     66
                      A                      A                      A
 Frequencies --   1846.4007              3058.7637              3062.5211
 Red. masses --     12.3166                 1.0353                 1.0373
 Frc consts  --     24.7397                 5.7072                 5.7322
 IR Inten    --    539.0201                10.8579                15.7182

                     67                     68                     69
                      A                      A                      A
 Frequencies --   3063.2019              3066.6687              3097.2151
 Red. masses --      1.0359                 1.0381                 1.0868
 Frc consts  --      5.7269                 5.7520                 6.1422
 IR Inten    --     14.8806                11.0899                18.6267

                     70                     71                     72
                      A                      A                      A
 Frequencies --   3097.5663              3127.3225              3127.5300
 Red. masses --      1.0873                 1.1029                 1.1016
 Frc consts  --      6.1467                 6.3551                 6.3486
 IR Inten    --      2.1519                 1.8455                12.2197

                     73                     74                     75
                      A                      A                      A
 Frequencies --   3130.4238              3136.1592              3140.0940
 Red. masses --      1.1019                 1.1018                 1.1028
 Frc consts  --      6.3622                 6.3848                 6.4066
 IR Inten    --     31.7112                38.1749                23.1852

                     76                     77                     78
                      A                      A                      A
 Frequencies --   3147.9758              3161.6108              3166.3416
 Red. masses --      1.1029                 1.1022                 1.1011
 Frc consts  --      6.4392                 6.4915                 6.5041
 IR Inten    --     15.9519                 1.9476                20.6428

 - Thermochemistry -
 -------------------
 Temperature   298.150 Kelvin.  Pressure   1.00000 Atm.
 Atom     1 has atomic number  6 and mass  12.00000

 Molecular mass:   202.09536 amu.
 Principal axes and moments of inertia in atomic units:
                           1         2         3
     Eigenvalues --   970.350067363.561247556.40762
           X            0.99996   0.00815  -0.00386
           Y           -0.00795   0.99869   0.05056
           Z            0.00427  -0.05052   0.99871
 This molecule is an asymmetric top.
 Rotational symmetry number  1.
 Warning -- assumption of classical behavior for rotation
           may cause significant error
 Rotational temperatures (Kelvin)      0.08926     0.01176     0.01146
 Rotational constants (GHZ):           1.85989     0.24509     0.23884
 Zero-point vibrational energy     597914.9 (Joules/Mol)
                                  142.90510 (Kcal/Mol)
 Warning -- explicit consideration of  24 degrees of freedom as
           vibrations may cause significant error
 Vibrational temperatures:     18.18    53.58    72.88    81.92    89.51
          (Kelvin)            121.77   159.14   271.32   283.79   298.31
                              317.67   332.22   334.10   359.30   383.27
                              477.87   501.25   580.34   608.24   618.49
                              663.04   689.90   825.29   880.13   954.26
                             1143.35  1172.34  1200.58  1238.69  1309.12
                             1320.03  1367.14  1368.65  1377.53  1384.51
                             1402.31  1437.93  1645.64  1680.78  1685.98
                             1690.96  1753.61  1753.95  1815.67  1841.30
                             1990.53  2002.16  2012.85  2044.01  2058.28
                             2063.18  2078.77  2084.73  2174.31  2175.16
                             2181.73  2190.14  2194.84  2196.54  2215.04
                             2225.31  2371.43  2637.08  2656.56  4400.88
                             4406.28  4407.26  4412.25  4456.20  4456.71
                             4499.52  4499.82  4503.98  4512.23  4517.89
                             4529.24  4548.85  4555.66

 Zero-point correction=                           0.227734 (Hartree/Particle)
 Thermal correction to Energy=                    0.243927
 Thermal correction to Enthalpy=                  0.244871
 Thermal correction to Gibbs Free Energy=         0.181444
 Sum of electronic and zero-point Energies=           -723.421851
 Sum of electronic and thermal Energies=              -723.405659
 Sum of electronic and thermal Enthalpies=            -723.404715
 Sum of electronic and thermal Free Energies=         -723.468141

                     E (Thermal)             CV                S
                      KCal/Mol        Cal/Mol-Kelvin    Cal/Mol-Kelvin
 Total                  153.066             56.247            133.492
 Electronic               0.000              0.000              0.000
 Translational            0.889              2.981             41.815
 Rotational               0.889              2.981             32.357
 Vibrational            151.289             50.285             59.320
 Vibration     1          0.593              1.987              7.546
 Vibration     2          0.594              1.982              5.401
 Vibration     3          0.595              1.977              4.792
 Vibration     4          0.596              1.975              4.561
 Vibration     5          0.597              1.972              4.386
 Vibration     6          0.601              1.960              3.780
 Vibration     7          0.606              1.941              3.258
 Vibration     8          0.633              1.856              2.242
 Vibration     9          0.637              1.844              2.159
 Vibration    10          0.641              1.829              2.067
 Vibration    11          0.648              1.809              1.953
 Vibration    12          0.653              1.794              1.872
 Vibration    13          0.653              1.792              1.862
 Vibration    14          0.663              1.763              1.733
 Vibration    15          0.672              1.735              1.620
 Vibration    16          0.714              1.611              1.250
 Vibration    17          0.726              1.579              1.173
 Vibration    18          0.769              1.463              0.950
 Vibration    19          0.785              1.421              0.883
 Vibration    20          0.791              1.405              0.859
 Vibration    21          0.819              1.337              0.764
 Vibration    22          0.836              1.296              0.711
 Vibration    23          0.930              1.088              0.497
 Vibration    24          0.971              1.007              0.430

 Optimization completed.
    -- Stationary point found.
 Normal termination of Gaussian 16 at Sat Aug 22 13:56:20 2020.
 Gaussian 16:  ES64L-G16RevA.03 25-Dec-2016

 ----------------------------------------------------------------------
 # TD(NStates=10, Root=1) B3LYP/6-31G* scf=qc volume pop=NPA density=cu
 rrent Geom=AllCheck Guess=Read
 ----------------------------------------------------------------------

 Structure from the checkpoint file:  "azadicarboxylate_2_conf33.chk"
 -------------------
 Title Card Required
 -------------------
 Charge =  0 Multiplicity = 1

                         Standard orientation:
 ---------------------------------------------------------------------
 Center     Atomic      Atomic             Coordinates (Angstroms)
 Number     Number       Type             X           Y           Z
 ---------------------------------------------------------------------
      1          6           0        4.466521   -0.292228    1.247347
      2          6           0        3.900559    0.497943    0.072165
      3          6           0        4.293684   -0.035614   -1.301208
      4          8           0        2.437246    0.642526    0.183807
      5          6           0        1.659832   -0.431456    0.139212
      6          8           0        1.959795   -1.593102    0.010930
      7          7           0        0.282709   -0.050309    0.398400
      8          7           0       -0.290846    0.407735   -0.608040
      9          6           0       -1.668326    0.780405   -0.349517
     10          8           0       -2.005048    1.938848   -0.347938
     11          8           0       -2.432871   -0.301213   -0.237598
     12          6           0       -3.878317   -0.079232   -0.091066
     13          6           0       -4.544203   -1.322434   -0.659942
     14          6           0       -4.193141    0.176334    1.377540
     15          1           0        5.560185   -0.226228    1.229882
     16          1           0        4.179803   -1.344729    1.195204
     17          1           0        4.116904    0.126226    2.196761
     18          1           0        4.212953    1.542470    0.156081
     19          1           0        4.006324   -1.082754   -1.418330
     20          1           0        5.379998    0.045438   -1.420419
     21          1           0        3.819765    0.554493   -2.092118
     22          1           0       -4.125419    0.804461   -0.686546
     23          1           0       -4.255903   -2.212457   -0.090624
     24          1           0       -4.260982   -1.473315   -1.706064
     25          1           0       -5.633096   -1.216469   -0.608000
     26          1           0       -3.885500   -0.676800    1.991682
     27          1           0       -5.271049    0.325027    1.506083
     28          1           0       -3.679648    1.073875    1.733107
 ---------------------------------------------------------------------

 SCF Done:  E(RB3LYP) =  -723.649585231     a.u. after    1 cycles

 Excitation energies and oscillator strengths:

 Excited State   1:      Singlet-A      2.9463 eV  420.81 nm  f=0.0000  <S**2>=0.000
      54 -> 55         0.70051
 This state for optimization and/or second-order correction.
 Total Energy, E(TD-HF/TD-DFT) =  -723.541309132
 Copying the excited state density for this state as the 1-particle RhoCI density.

 Excited State   2:      Singlet-A      4.9696 eV  249.48 nm  f=0.0885  <S**2>=0.000
      53 -> 55         0.69203

 Excited State   3:      Singlet-A      5.0793 eV  244.10 nm  f=0.0007  <S**2>=0.000
      50 -> 55         0.16501
      52 -> 55         0.66763

 Excited State   4:      Singlet-A      5.3864 eV  230.18 nm  f=0.0082  <S**2>=0.000
      50 -> 55        -0.11846
      51 -> 55         0.68923

 Excited State   5:      Singlet-A      5.4364 eV  228.06 nm  f=0.0020  <S**2>=0.000
      50 -> 55         0.66765
      52 -> 55        -0.18503

 Excited State   6:      Singlet-A      5.6479 eV  219.52 nm  f=0.0089  <S**2>=0.000
      53 -> 56        -0.18164
      54 -> 56         0.66881

 Excited State   7:      Singlet-A      5.7799 eV  214.51 nm  f=0.0061  <S**2>=0.000
      53 -> 57         0.15567
      54 -> 57         0.67338

 Excited State   8:      Singlet-A      6.4823 eV  191.27 nm  f=0.0033  <S**2>=0.000
      49 -> 55         0.67848

 Excited State   9:      Singlet-A      6.5528 eV  189.21 nm  f=0.0003  <S**2>=0.000
      45 -> 55         0.13599
      48 -> 55         0.67091

 Excited State  10:      Singlet-A      6.7059 eV  184.89 nm  f=0.0117  <S**2>=0.000
      50 -> 56         0.13137
      52 -> 56         0.25931
      53 -> 56         0.58875
      54 -> 56         0.19381

 The electronic state is 1-A.
 Alpha  occ. eigenvalues --  -19.20782 -19.20732 -19.15335 -19.15296 -14.41919
 Alpha  occ. eigenvalues --  -14.41858 -10.35038 -10.34874 -10.26502 -10.26070
 Alpha  occ. eigenvalues --  -10.19056 -10.18840 -10.18794 -10.18752  -1.13383
 Alpha  occ. eigenvalues --   -1.12103  -1.05246  -1.03671  -1.03252  -0.82207
 Alpha  occ. eigenvalues --   -0.80488  -0.76388  -0.70448  -0.70400  -0.66455
 Alpha  occ. eigenvalues --   -0.63261  -0.58103  -0.56066  -0.52269  -0.50883
 Alpha  occ. eigenvalues --   -0.50059  -0.48440  -0.47791  -0.46607  -0.45437
 Alpha  occ. eigenvalues --   -0.44832  -0.42994  -0.42562  -0.41660  -0.40527
 Alpha  occ. eigenvalues --   -0.40412  -0.39960  -0.38923  -0.37950  -0.37475
 Alpha  occ. eigenvalues --   -0.36834  -0.36554  -0.35319  -0.34852  -0.31582
 Alpha  occ. eigenvalues --   -0.31388  -0.30814  -0.29618  -0.24745
 Alpha virt. eigenvalues --   -0.07958   0.00796   0.01245   0.08670   0.08850
 Alpha virt. eigenvalues --    0.10483   0.10794   0.13343   0.13801   0.14570
 Alpha virt. eigenvalues --    0.14806   0.15690   0.16568   0.16958   0.17275

 Mulliken charges:
               1
     1  C   -0.472104
     2  C    0.129815
     3  C   -0.470796
     4  O   -0.430457
     5  C    0.735780
     6  O   -0.418124
     7  N   -0.236306
     8  N   -0.243018
     9  C    0.735140
    10  O   -0.425546
    11  O   -0.424303
    12  C    0.117917
    13  C   -0.454572
    14  C   -0.459409
    15  H    0.155176
    16  H    0.187337
    17  H    0.163701
    18  H    0.159622
    19  H    0.187062
    20  H    0.153132
    21  H    0.165490
    22  H    0.167922
    23  H    0.164881
    24  H    0.165689
    25  H    0.154750
    26  H    0.161150
    27  H    0.153070
    28  H    0.177003
 Sum of Mulliken charges =  -0.00000

 Dipole moment (field-independent basis, Debye):
    X=              0.3665    Y=             -0.3373    Z=              0.3666  Tot=              0.6185
 Quadrupole moment (field-independent basis, Debye-Ang):
   XX=            -52.2295   YY=            -91.3602   ZZ=            -80.1020
   XY=              7.4974   XZ=             -0.2815   YZ=              0.5556

 Summary of Natural Population Analysis:

                                       Natural Population
                Natural  -----------------------------------------------
    Atom  No    Charge         Core      Valence    Rydberg      Total
 -----------------------------------------------------------------------
      C    1   -0.71057      1.99939     4.70307    0.00811     6.71057
      C    2    0.08536      1.99912     3.89728    0.01825     5.91464
      C    3   -0.70953      1.99939     4.70216    0.00798     6.70953
      O    4   -0.53040      1.99972     6.51863    0.01205     8.53040
      C    5    0.91868      1.99951     3.02949    0.05232     5.08132
      O    6   -0.54961      1.99977     6.52944    0.02041     8.54961
      N    7   -0.21546      1.99939     5.18974    0.02633     7.21546
      N    8   -0.21674      1.99939     5.19098    0.02638     7.21674
      C    9    0.91654      1.99950     3.03310    0.05086     5.08346
      O   10   -0.55461      1.99977     6.53422    0.02062     8.55461
      O   11   -0.53775      1.99971     6.52531    0.01272     8.53775
      C   12    0.08372      1.99912     3.89963    0.01753     5.91628
      C   13   -0.69641      1.99939     4.68798    0.00904     6.69641
      C   14   -0.70373      1.99939     4.69581    0.00853     6.70373
      H   15    0.24278      0.00000     0.75650    0.00072     0.75722
      H   16    0.25185      0.00000     0.74668    0.00147     0.74815
      H   17    0.24333      0.00000     0.75561    0.00105     0.75667
      H   18    0.24683      0.00000     0.75150    0.00167     0.75317
      H   19    0.25197      0.00000     0.74667    0.00136     0.74803
      H   20    0.24105      0.00000     0.75821    0.00074     0.75895
      H   21    0.24440      0.00000     0.75454    0.00106     0.75560
      H   22    0.24330      0.00000     0.75395    0.00275     0.75670
      H   23    0.24003      0.00000     0.75870    0.00127     0.75997
      H   24    0.24579      0.00000     0.75324    0.00097     0.75421
      H   25    0.24119      0.00000     0.75815    0.00066     0.75881
      H   26    0.23722      0.00000     0.76143    0.00135     0.76278
      H   27    0.24019      0.00000     0.75905    0.00076     0.75981
      H   28    0.25060      0.00000     0.74837    0.00103     0.74940
 =======================================================================
   * Total *   -0.00000     27.99257    79.69945    0.30798   108.00000

 Normal termination of Gaussian 16 at Sat Aug 22 14:01:38 2020.
