 Gaussian 16, Revision A.03,

 ---------------------------------
 # opt=CalcAll B3LYP/6-31G* scf=qc
 ---------------------------------

 -------------------
 Title Card Required
 -------------------
 Symbolic Z-matrix:
 Charge =  0 Multiplicity = 1

 SCF Done:  E(RB3LYP) =  -723.633141521     a.u. after    9 cycles
 SCF Done:  E(RB3LYP) =  -723.649040230     a.u. after   17 cycles
 SCF Done:  E(RB3LYP) =  -723.651544496     a.u. after   17 cycles
 SCF Done:  E(RB3LYP) =  -723.652120137     a.u. after   15 cycles
 SCF Done:  E(RB3LYP) =  -723.652158286     a.u. after   13 cycles
 SCF Done:  E(RB3LYP) =  -723.652162623     a.u. after    7 cycles
 SCF Done:  E(RB3LYP) =  -723.652163251     a.u. after    5 cycles
 SCF Done:  E(RB3LYP) =  -723.652163290     a.u. after    2 cycles
 SCF Done:  E(RB3LYP) =  -723.652163403     a.u. after    5 cycles
 Optimization completed on the basis of negligible forces.
    -- Stationary point found.
 Normal termination of Gaussian 16 at Sat Aug 22 13:45:15 2020.

 ----------------------------------------------------------------------
 # freq B3LYP/6-31G* scf=qc volume NMR pop=NPA density=current Geom=All
 Check Guess=Read
 ----------------------------------------------------------------------

 Structure from the checkpoint file:  "azadicarboxylate_2_conf152.chk"
 -------------------
 Title Card Required
 -------------------
 Charge =  0 Multiplicity = 1

 SCF Done:  E(RB3LYP) =  -723.652163403     a.u. after    1 cycles

      1  C    Isotropic =   168.6475   Anisotropy =    31.1532

      2  C    Isotropic =   118.4406   Anisotropy =    63.5139

      3  C    Isotropic =   168.2758   Anisotropy =    30.1688

      4  O    Isotropic =   128.1443   Anisotropy =   137.7154

      5  C    Isotropic =    35.2954   Anisotropy =    80.7279

      6  O    Isotropic =   -18.9719   Anisotropy =   472.1294

      7  N    Isotropic =  -342.0256   Anisotropy =   701.2617

      8  N    Isotropic =  -348.2158   Anisotropy =   706.7143

      9  C    Isotropic =    34.5693   Anisotropy =    76.0805

     10  O    Isotropic =   -19.9251   Anisotropy =   475.2763

     11  O    Isotropic =   131.5965   Anisotropy =   132.1726

     12  C    Isotropic =   118.5075   Anisotropy =    63.9265

     13  C    Isotropic =   168.6848   Anisotropy =    31.1072

     14  C    Isotropic =   168.2721   Anisotropy =    30.2059

     15  H    Isotropic =    31.0924   Anisotropy =     8.5470

     16  H    Isotropic =    30.8892   Anisotropy =     6.7216

     17  H    Isotropic =    30.1191   Anisotropy =     7.4033

     18  H    Isotropic =    26.9921   Anisotropy =     2.6807

     19  H    Isotropic =    30.7367   Anisotropy =     6.4538

     20  H    Isotropic =    31.0991   Anisotropy =     8.3462

     21  H    Isotropic =    30.7725   Anisotropy =     8.7369

     22  H    Isotropic =    26.9518   Anisotropy =     2.6403

     23  H    Isotropic =    30.8987   Anisotropy =     6.7051

     24  H    Isotropic =    30.1182   Anisotropy =     7.4171

     25  H    Isotropic =    31.0977   Anisotropy =     8.5620

     26  H    Isotropic =    30.7559   Anisotropy =     6.4348

     27  H    Isotropic =    31.1004   Anisotropy =     8.3655

     28  H    Isotropic =    30.7681   Anisotropy =     8.7428

  Exact polarizability: 154.570   0.629 101.635  -0.484  -0.234  84.076
 Approx polarizability: 174.077   1.797 152.334   1.420  -0.969 129.700

                      1                      2                      3
                      A                      A                      A
 Frequencies --      6.1768                14.0184                42.2757
 Red. masses --      4.6664                 6.4047                 3.2436
 Frc consts  --      0.0001                 0.0007                 0.0034
 IR Inten    --      0.4474                 0.4175                 1.2384

                      4                      5                      6
                      A                      A                      A
 Frequencies --     43.0679                67.6292                74.4671
 Red. masses --      3.5236                 5.5489                 5.0439
 Frc consts  --      0.0039                 0.0150                 0.0165
 IR Inten    --      0.6523                 0.0415                 0.6148

                      7                      8                      9
                      A                      A                      A
 Frequencies --     92.4426               161.0776               196.1690
 Red. masses --      4.3536                 5.4944                 3.5911
 Frc consts  --      0.0219                 0.0840                 0.0814
 IR Inten    --      0.0302                 0.3439                 1.8076

                     10                     11                     12
                      A                      A                      A
 Frequencies --    216.8681               222.4242               223.8807
 Red. masses --      2.2165                 1.0575                 1.1506
 Frc consts  --      0.0614                 0.0308                 0.0340
 IR Inten    --      7.4117                 0.0432                 1.5892

                     13                     14                     15
                      A                      A                      A
 Frequencies --    234.5551               266.1586               267.1997
 Red. masses --      3.0344                 1.3689                 1.4185
 Frc consts  --      0.0984                 0.0571                 0.0597
 IR Inten    --      0.6942                 2.0214                 4.2780

                     16                     17                     18
                      A                      A                      A
 Frequencies --    312.4115               339.7598               403.5376
 Red. masses --      2.9343                 2.9562                 3.8880
 Frc consts  --      0.1687                 0.2011                 0.3730
 IR Inten    --      5.9138                 1.0444                 2.1397

                     19                     20                     21
                      A                      A                      A
 Frequencies --    420.3678               427.5732               466.6423
 Red. masses --      3.1603                 3.2405                 2.9873
 Frc consts  --      0.3290                 0.3490                 0.3833
 IR Inten    --      7.4485                24.3907                 0.2299

                     22                     23                     24
                      A                      A                      A
 Frequencies --    497.3310               512.6022               622.3353
 Red. masses --      3.0851                 5.1605                 8.4770
 Frc consts  --      0.4496                 0.7989                 1.9344
 IR Inten    --      1.4246                 0.0894                 5.5990

                     25                     26                     27
                      A                      A                      A
 Frequencies --    680.5331               801.5808               836.7665
 Red. masses --      9.4314                 8.5622                 3.6067
 Frc consts  --      2.5735                 3.2414                 1.4879
 IR Inten    --      1.9504                32.1689                 3.3551

                     28                     29                     30
                      A                      A                      A
 Frequencies --    841.0893               859.9497               903.3338
 Red. masses --      3.5782                 6.8205                 3.3198
 Frc consts  --      1.4914                 2.9718                 1.5961
 IR Inten    --     24.9325                 6.2348                56.5515

                     31                     32                     33
                      A                      A                      A
 Frequencies --    931.2736               950.5866               950.7213
 Red. masses --      3.1694                 1.2521                 1.2528
 Frc consts  --      1.6195                 0.6666                 0.6672
 IR Inten    --      3.2451                 0.5855                 0.6040

                     34                     35                     36
                      A                      A                      A
 Frequencies --    962.1445               962.4203               988.2353
 Red. masses --      1.3682                 1.3623                 6.3208
 Frc consts  --      0.7463                 0.7435                 3.6370
 IR Inten    --      5.2969                 0.0983                 9.7074

                     37                     38                     39
                      A                      A                      A
 Frequencies --    999.5601              1141.7934              1148.8891
 Red. masses --      9.4516                 1.8481                 1.8075
 Frc consts  --      5.5638                 1.4195                 1.4057
 IR Inten    --      2.6627               362.0921                22.4754

                     40                     41                     42
                      A                      A                      A
 Frequencies --   1175.2001              1175.4520              1218.0293
 Red. masses --      2.0294                 2.0309                 1.9866
 Frc consts  --      1.6514                 1.6533                 1.7365
 IR Inten    --      9.6422                 8.1535                70.1988

                     43                     44                     45
                      A                      A                      A
 Frequencies --   1219.1260              1264.1749              1297.6260
 Red. masses --      1.9266                 5.7964                 6.9674
 Frc consts  --      1.6871                 5.4579                 6.9123
 IR Inten    --      9.7585              1100.0939               255.0611

                     46                     47                     48
                      A                      A                      A
 Frequencies --   1383.9444              1384.5362              1399.1183
 Red. masses --      1.4053                 1.4094                 1.2591
 Frc consts  --      1.5858                 1.5918                 1.4522
 IR Inten    --      7.7841                 7.4960                 3.1749

                     49                     50                     51
                      A                      A                      A
 Frequencies --   1399.7335              1433.4032              1433.7329
 Red. masses --      1.2541                 1.3401                 1.3421
 Frc consts  --      1.4477                 1.6222                 1.6255
 IR Inten    --      6.1877                17.5587                17.3202

                     52                     53                     54
                      A                      A                      A
 Frequencies --   1448.6082              1448.7646              1511.7902
 Red. masses --      1.2583                 1.2584                 1.0543
 Frc consts  --      1.5557                 1.5562                 1.4197
 IR Inten    --      8.8058                 5.5003                 1.8156

                     55                     56                     57
                      A                      A                      A
 Frequencies --   1511.8305              1516.5974              1516.7425
 Red. masses --      1.0543                 1.0440                 1.0440
 Frc consts  --      1.4198                 1.4148                 1.4151
 IR Inten    --      1.8613                 2.1742                 0.1876

                     58                     59                     60
                      A                      A                      A
 Frequencies --   1525.6340              1525.6880              1539.9309
 Red. masses --      1.0509                 1.0506                 1.0495
 Frc consts  --      1.4412                 1.4409                 1.4663
 IR Inten    --      4.3018                 3.1123                13.0829

                     61                     62                     63
                      A                      A                      A
 Frequencies --   1540.0252              1664.3697              1828.9133
 Red. masses --      1.0495                13.9945                12.6497
 Frc consts  --      1.4665                22.8407                24.9298
 IR Inten    --      6.4655                 0.0607                83.3359

                     64                     65                     66
                      A                      A                      A
 Frequencies --   1846.1565              3058.4603              3058.4874
 Red. masses --     12.5933                 1.0354                 1.0354
 Frc consts  --     25.2887                 5.7065                 5.7067
 IR Inten    --    458.7817                10.8311                10.9691

                     67                     68                     69
                      A                      A                      A
 Frequencies --   3062.8931              3062.9865              3099.0398
 Red. masses --      1.0360                 1.0360                 1.0875
 Frc consts  --      5.7263                 5.7265                 6.1539
 IR Inten    --     19.1464                11.5596                 1.6372

                     70                     71                     72
                      A                      A                      A
 Frequencies --   3100.5308              3126.6088              3126.6208
 Red. masses --      1.0877                 1.1029                 1.1029
 Frc consts  --      6.1609                 6.3523                 6.3523
 IR Inten    --      1.3195                 3.8525                 0.5824

                     73                     74                     75
                      A                      A                      A
 Frequencies --   3136.3558              3136.4759              3139.5778
 Red. masses --      1.1017                 1.1015                 1.1027
 Frc consts  --      6.3848                 6.3846                 6.4041
 IR Inten    --     69.8376                11.0027                21.3319

                     76                     77                     78
                      A                      A                      A
 Frequencies --   3139.9539              3148.3048              3148.5031
 Red. masses --      1.1027                 1.1027                 1.1027
 Frc consts  --      6.4056                 6.4394                 6.4403
 IR Inten    --     24.9873                14.8646                16.1305

 - Thermochemistry -
 -------------------
 Temperature   298.150 Kelvin.  Pressure   1.00000 Atm.
 Atom     1 has atomic number  6 and mass  12.00000

 Molecular mass:   202.09536 amu.
 Principal axes and moments of inertia in atomic units:
                           1         2         3
     Eigenvalues --  1146.471417326.636878051.44432
           X            0.99999  -0.00045  -0.00415
           Y            0.00045   1.00000   0.00023
           Z            0.00415  -0.00023   0.99999
 This molecule is an asymmetric top.
 Rotational symmetry number  1.
 Warning -- assumption of classical behavior for rotation
           may cause significant error
 Rotational temperatures (Kelvin)      0.07555     0.01182     0.01076
 Rotational constants (GHZ):           1.57417     0.24633     0.22415
 Zero-point vibrational energy     597198.4 (Joules/Mol)
                                  142.73384 (Kcal/Mol)
 Warning -- explicit consideration of  23 degrees of freedom as
           vibrations may cause significant error
 Vibrational temperatures:      8.89    20.17    60.83    61.97    97.30
          (Kelvin)            107.14   133.00   231.75   282.24   312.02
                              320.02   322.11   337.47   382.94   384.44
                              449.49   488.84   580.60   604.82   615.18
                              671.39   715.55   737.52   895.40   979.14
                             1153.30  1203.92  1210.14  1237.28  1299.70
                             1339.90  1367.68  1367.88  1384.31  1384.71
                             1421.85  1438.14  1642.79  1653.00  1690.85
                             1691.21  1752.47  1754.05  1818.87  1866.99
                             1991.19  1992.04  2013.02  2013.90  2062.35
                             2062.82  2084.22  2084.45  2175.13  2175.19
                             2182.05  2182.25  2195.05  2195.12  2215.62
                             2215.75  2394.66  2631.40  2656.21  4400.44
                             4400.48  4406.82  4406.95  4458.83  4460.97
                             4498.49  4498.51  4512.52  4512.69  4517.15
                             4517.69  4529.71  4529.99

 Zero-point correction=                           0.227461 (Hartree/Particle)
 Thermal correction to Energy=                    0.243856
 Thermal correction to Enthalpy=                  0.244800
 Thermal correction to Gibbs Free Energy=         0.178898
 Sum of electronic and zero-point Energies=           -723.424703
 Sum of electronic and thermal Energies=              -723.408307
 Sum of electronic and thermal Enthalpies=            -723.407363
 Sum of electronic and thermal Free Energies=         -723.473265

                     E (Thermal)             CV                S
                      KCal/Mol        Cal/Mol-Kelvin    Cal/Mol-Kelvin
 Total                  153.022             56.292            138.702
 Electronic               0.000              0.000              0.000
 Translational            0.889              2.981             41.815
 Rotational               0.889              2.981             32.581
 Vibrational            151.245             50.330             64.307
 Vibration     1          0.593              1.987              8.968
 Vibration     2          0.593              1.986              7.340
 Vibration     3          0.595              1.980              5.149
 Vibration     4          0.595              1.980              5.113
 Vibration     5          0.598              1.970              4.221
 Vibration     6          0.599              1.966              4.032
 Vibration     7          0.602              1.955              3.608
 Vibration     8          0.622              1.890              2.537
 Vibration     9          0.636              1.845              2.169
 Vibration    10          0.646              1.815              1.985
 Vibration    11          0.648              1.807              1.939
 Vibration    12          0.649              1.805              1.927
 Vibration    13          0.654              1.788              1.844
 Vibration    14          0.672              1.735              1.621
 Vibration    15          0.672              1.733              1.614
 Vibration    16          0.701              1.650              1.350
 Vibration    17          0.720              1.596              1.213
 Vibration    18          0.769              1.462              0.950
 Vibration    19          0.783              1.426              0.891
 Vibration    20          0.789              1.410              0.867
 Vibration    21          0.824              1.324              0.747
 Vibration    22          0.853              1.256              0.665
 Vibration    23          0.868              1.222              0.627

 Optimization completed on the basis of negligible forces.
    -- Stationary point found.
 Normal termination of Gaussian 16 at Sat Aug 22 13:49:29 2020.
 Gaussian 16:  ES64L-G16RevA.03 25-Dec-2016

 ----------------------------------------------------------------------
 # TD(NStates=10, Root=1) B3LYP/6-31G* scf=qc volume pop=NPA density=cu
 rrent Geom=AllCheck Guess=Read
 ----------------------------------------------------------------------

 Structure from the checkpoint file:  "azadicarboxylate_2_conf153.chk"
 -------------------
 Title Card Required
 -------------------
 Charge =  0 Multiplicity = 1

                         Standard orientation:
 ---------------------------------------------------------------------
 Center     Atomic      Atomic             Coordinates (Angstroms)
 Number     Number       Type             X           Y           Z
 ---------------------------------------------------------------------
      1          6           0        4.693250   -0.195266   -0.787917
      2          6           0        3.825420    0.482348    0.265441
      3          6           0        4.118549    1.963317    0.448622
      4          8           0        2.419133    0.405883   -0.151065
      5          6           0        1.768796   -0.719404    0.135202
      6          8           0        2.192635   -1.708050    0.679450
      7          7           0        0.433066   -0.626845   -0.435382
      8          7           0       -0.456058   -0.721131    0.429673
      9          6           0       -1.789863   -0.757958   -0.141350
     10          8           0       -2.241602   -1.738056   -0.678831
     11          8           0       -2.405213    0.387543    0.138796
     12          6           0       -3.815091    0.498482   -0.261258
     13          6           0       -4.687575   -0.145073    0.809226
     14          6           0       -4.069145    1.985148   -0.455546
     15          1           0        5.747876   -0.130368   -0.497889
     16          1           0        4.571488    0.293309   -1.760718
     17          1           0        4.430827   -1.252308   -0.884412
     18          1           0        3.906883   -0.051326    1.216587
     19          1           0        3.992813    2.504123   -0.495459
     20          1           0        5.150860    2.097665    0.788796
     21          1           0        3.448964    2.404657    1.193124
     22          1           0       -3.922178   -0.041446   -1.206161
     23          1           0       -4.540363    0.349022    1.775700
     24          1           0       -4.453065   -1.208020    0.912908
     25          1           0       -5.743622   -0.054041    0.531681
     26          1           0       -3.917597    2.531252    0.481680
     27          1           0       -5.101281    2.144749   -0.785219
     28          1           0       -3.396314    2.400449   -1.211961
 ---------------------------------------------------------------------

 SCF Done:  E(RB3LYP) =  -723.652163403     a.u. after    1 cycles

 Excitation energies and oscillator strengths:

 Excited State   1:      Singlet-A      2.7419 eV  452.18 nm  f=0.0001  <S**2>=0.000
      54 -> 55         0.70214
 This state for optimization and/or second-order correction.
 Total Energy, E(TD-HF/TD-DFT) =  -723.551399530
 Copying the excited state density for this state as the 1-particle RhoCI density.

 Excited State   2:      Singlet-A      4.6999 eV  263.80 nm  f=0.0005  <S**2>=0.000
      53 -> 55         0.68601
      54 -> 56        -0.10261

 Excited State   3:      Singlet-A      4.9884 eV  248.55 nm  f=0.0544  <S**2>=0.000
      50 -> 55         0.12693
      52 -> 55         0.67257

 Excited State   4:      Singlet-A      5.3103 eV  233.48 nm  f=0.0090  <S**2>=0.000
      50 -> 55        -0.25623
      51 -> 55         0.63578
      54 -> 56         0.13070

 Excited State   5:      Singlet-A      5.3433 eV  232.04 nm  f=0.0091  <S**2>=0.000
      50 -> 55         0.62002
      51 -> 55         0.25094
      52 -> 55        -0.15880

 Excited State   6:      Singlet-A      5.7334 eV  216.25 nm  f=0.0115  <S**2>=0.000
      51 -> 55        -0.14022
      54 -> 56         0.65953

 Excited State   7:      Singlet-A      5.8972 eV  210.24 nm  f=0.0534  <S**2>=0.000
      50 -> 55         0.11664
      54 -> 57         0.66930

 Excited State   8:      Singlet-A      6.3408 eV  195.53 nm  f=0.0004  <S**2>=0.000
      49 -> 55         0.68959

 Excited State   9:      Singlet-A      6.4237 eV  193.01 nm  f=0.0001  <S**2>=0.000
      48 -> 55         0.69028

 Excited State  10:      Singlet-A      6.8589 eV  180.76 nm  f=0.0034  <S**2>=0.000
      44 -> 55        -0.12666
      45 -> 55        -0.22750
      47 -> 55         0.61558

 The electronic state is 1-A.
 Alpha  occ. eigenvalues --  -19.20763 -19.20716 -19.15401 -19.15378 -14.42044
 Alpha  occ. eigenvalues --  -14.41940 -10.34946 -10.34859 -10.26199 -10.26165
 Alpha  occ. eigenvalues --  -10.19217 -10.19197 -10.18919 -10.18888  -1.13388
 Alpha  occ. eigenvalues --   -1.12194  -1.05747  -1.03612  -1.02940  -0.82434
 Alpha  occ. eigenvalues --   -0.80773  -0.76437  -0.70593  -0.70563  -0.66425
 Alpha  occ. eigenvalues --   -0.61892  -0.57282  -0.56427  -0.55390  -0.50844
 Alpha  occ. eigenvalues --   -0.48928  -0.48456  -0.47554  -0.46882  -0.46130
 Alpha  occ. eigenvalues --   -0.44110  -0.43039  -0.42239  -0.40864  -0.40713
 Alpha  occ. eigenvalues --   -0.40305  -0.40111  -0.39994  -0.38292  -0.38119
 Alpha  occ. eigenvalues --   -0.37035  -0.36774  -0.35009  -0.34851  -0.31640
 Alpha  occ. eigenvalues --   -0.31506  -0.30817  -0.30295  -0.24596
 Alpha virt. eigenvalues --   -0.08542   0.00969   0.01902   0.08668   0.08816
 Alpha virt. eigenvalues --    0.10398   0.10830   0.13220   0.13254   0.14426
 Alpha virt. eigenvalues --    0.14455   0.16463   0.16506   0.16620   0.17252

 Mulliken charges:
               1
     1  C   -0.460144
     2  C    0.117118
     3  C   -0.453589
     4  O   -0.430361
     5  C    0.737341
     6  O   -0.412707
     7  N   -0.243639
     8  N   -0.236938
     9  C    0.733831
    10  O   -0.410798
    11  O   -0.426619
    12  C    0.116658
    13  C   -0.460293
    14  C   -0.453923
    15  H    0.154150
    16  H    0.159519
    17  H    0.177539
    18  H    0.167695
    19  H    0.162082
    20  H    0.154387
    21  H    0.164985
    22  H    0.168341
    23  H    0.160048
    24  H    0.177590
    25  H    0.154975
    26  H    0.162365
    27  H    0.154774
    28  H    0.165613
 Sum of Mulliken charges =  -0.00000

 Dipole moment (field-independent basis, Debye):
    X=             -0.0455    Y=              3.6421    Z=              0.0124  Tot=              3.6424
 Quadrupole moment (field-independent basis, Debye-Ang):
   XX=            -55.7072   YY=            -88.7523   ZZ=            -82.2524
   XY=             -0.3133   XZ=             -0.9046   YZ=              0.0650

 Summary of Natural Population Analysis:

                                       Natural Population
                Natural  -----------------------------------------------
    Atom  No    Charge         Core      Valence    Rydberg      Total
 -----------------------------------------------------------------------
      C    1   -0.70452      1.99939     4.69657    0.00855     6.70452
      C    2    0.08153      1.99913     3.90193    0.01741     5.91847
      C    3   -0.69595      1.99939     4.68751    0.00905     6.69595
      O    4   -0.53693      1.99972     6.52461    0.01260     8.53693
      C    5    0.90814      1.99951     3.04057    0.05177     5.09186
      O    6   -0.54136      1.99977     6.52098    0.02061     8.54136
      N    7   -0.21191      1.99939     5.18631    0.02620     7.21191
      N    8   -0.21094      1.99939     5.18529    0.02626     7.21094
      C    9    0.91592      1.99951     3.03294    0.05163     5.08408
      O   10   -0.54176      1.99977     6.52138    0.02061     8.54176
      O   11   -0.53616      1.99972     6.52376    0.01269     8.53616
      C   12    0.08140      1.99912     3.90212    0.01736     5.91860
      C   13   -0.70468      1.99939     4.69673    0.00855     6.70468
      C   14   -0.69616      1.99939     4.68771    0.00906     6.69616
      H   15    0.24103      0.00000     0.75821    0.00076     0.75897
      H   16    0.23632      0.00000     0.76232    0.00136     0.76368
      H   17    0.25077      0.00000     0.74822    0.00100     0.74923
      H   18    0.24311      0.00000     0.75427    0.00263     0.75689
      H   19    0.23837      0.00000     0.76035    0.00128     0.76163
      H   20    0.24068      0.00000     0.75866    0.00066     0.75932
      H   21    0.24538      0.00000     0.75363    0.00099     0.75462
      H   22    0.24351      0.00000     0.75383    0.00266     0.75649
      H   23    0.23663      0.00000     0.76201    0.00136     0.76337
      H   24    0.25076      0.00000     0.74822    0.00102     0.74924
      H   25    0.24164      0.00000     0.75761    0.00074     0.75836
      H   26    0.23852      0.00000     0.76020    0.00128     0.76148
      H   27    0.24094      0.00000     0.75840    0.00066     0.75906
      H   28    0.24572      0.00000     0.75330    0.00098     0.75428
 =======================================================================
   * Total *   -0.00000     27.99262    79.69763    0.30975   108.00000

 Normal termination of Gaussian 16 at Sat Aug 22 13:54:57 2020.
