 Gaussian 16, Revision A.03,

 ---------------------------------
 # opt=CalcAll B3LYP/6-31G* scf=qc
 ---------------------------------

 -------------------
 Title Card Required
 -------------------
 Symbolic Z-matrix:
 Charge =  0 Multiplicity = 1

 SCF Done:  E(RB3LYP) =  -1028.44566491     a.u. after   10 cycles
 SCF Done:  E(RB3LYP) =  -1028.47150418     a.u. after   19 cycles
 SCF Done:  E(RB3LYP) =  -1028.47758876     a.u. after   21 cycles
 SCF Done:  E(RB3LYP) =  -1028.48067655     a.u. after   19 cycles
 SCF Done:  E(RB3LYP) =  -1028.48188394     a.u. after   17 cycles
 SCF Done:  E(RB3LYP) =  -1028.48207631     a.u. after   17 cycles
 SCF Done:  E(RB3LYP) =  -1028.48209144     a.u. after   13 cycles
 SCF Done:  E(RB3LYP) =  -1028.48213548     a.u. after   17 cycles
 SCF Done:  E(RB3LYP) =  -1028.48153821     a.u. after   25 cycles
 SCF Done:  E(RB3LYP) =  -1028.48222647     a.u. after   11 cycles
 SCF Done:  E(RB3LYP) =  -1028.48225177     a.u. after    7 cycles
 SCF Done:  E(RB3LYP) =  -1028.48225181     a.u. after    3 cycles
 Optimization completed on the basis of negligible forces.
    -- Stationary point found.
 Normal termination of Gaussian 16 at Sat Aug 22 17:02:41 2020.

 ----------------------------------------------------------------------
 # freq B3LYP/6-31G* scf=qc volume NMR pop=NPA density=current Geom=All
 Check Guess=Read
 ----------------------------------------------------------------------

 Structure from the checkpoint file:  "azadicarboxylate_4_conf92.chk"
 -------------------
 Title Card Required
 -------------------
 Charge =  0 Multiplicity = 1

 SCF Done:  E(RB3LYP) =  -1028.48225181     a.u. after    1 cycles

      1  C    Isotropic =    62.1072   Anisotropy =   173.3019

      2  C    Isotropic =   120.6515   Anisotropy =    39.2834

      3  O    Isotropic =   141.6080   Anisotropy =   142.2256

      4  C    Isotropic =    34.7101   Anisotropy =    84.4075

      5  O    Isotropic =   -19.6631   Anisotropy =   490.7438

      6  N    Isotropic =  -320.9032   Anisotropy =   671.2088

      7  N    Isotropic =  -325.6196   Anisotropy =   677.1396

      8  C    Isotropic =    34.5958   Anisotropy =    75.4373

      9  O    Isotropic =   -18.4042   Anisotropy =   490.8372

     10  O    Isotropic =   142.7056   Anisotropy =   139.9947

     11  C    Isotropic =   120.8222   Anisotropy =    39.7470

     12  C    Isotropic =    62.0876   Anisotropy =   173.4684

     13  C    Isotropic =    63.8669   Anisotropy =   162.5074

     14  C    Isotropic =    67.5613   Anisotropy =   167.2721

     15  C    Isotropic =    66.9264   Anisotropy =   171.1523

     16  C    Isotropic =    68.3047   Anisotropy =   165.6067

     17  C    Isotropic =    65.2155   Anisotropy =   155.9057

     18  C    Isotropic =    65.2812   Anisotropy =   155.6525

     19  C    Isotropic =    68.4335   Anisotropy =   165.5607

     20  C    Isotropic =    66.9787   Anisotropy =   171.1707

     21  C    Isotropic =    67.5689   Anisotropy =   167.4014

     22  C    Isotropic =    63.9719   Anisotropy =   163.5134

     23  H    Isotropic =    27.6375   Anisotropy =     5.1972

     24  H    Isotropic =    26.3849   Anisotropy =     2.7809

     25  H    Isotropic =    27.6921   Anisotropy =     5.4342

     26  H    Isotropic =    26.3571   Anisotropy =     2.7651

     27  H    Isotropic =    24.2995   Anisotropy =     7.5082

     28  H    Isotropic =    24.8692   Anisotropy =     4.8284

     29  H    Isotropic =    24.9078   Anisotropy =     4.2031

     30  H    Isotropic =    24.9294   Anisotropy =     4.5131

     31  H    Isotropic =    24.9096   Anisotropy =     6.5679

     32  H    Isotropic =    24.9913   Anisotropy =     6.5550

     33  H    Isotropic =    25.0027   Anisotropy =     4.5049

     34  H    Isotropic =    24.9632   Anisotropy =     4.1115

     35  H    Isotropic =    24.9248   Anisotropy =     4.8645

     36  H    Isotropic =    24.3911   Anisotropy =     7.8702

  Exact polarizability: 179.186 -14.744 192.114  -6.470   4.779 176.583
 Approx polarizability: 213.299 -29.999 309.851 -12.787  17.536 319.315

                      1                      2                      3
                      A                      A                      A
 Frequencies --      5.2075                13.7912                23.5710
 Red. masses --      4.8580                 6.1693                 4.3557
 Frc consts  --      0.0001                 0.0007                 0.0014
 IR Inten    --      0.0967                 0.2791                 0.1877

                      4                      5                      6
                      A                      A                      A
 Frequencies --     24.6494                35.6334                46.4841
 Red. masses --      4.3050                 7.9404                 8.2991
 Frc consts  --      0.0015                 0.0059                 0.0106
 IR Inten    --      0.0544                 0.4987                 0.6603

                      7                      8                      9
                      A                      A                      A
 Frequencies --     56.4969                70.2820                76.6617
 Red. masses --      9.5349                 6.6698                 5.3830
 Frc consts  --      0.0179                 0.0194                 0.0186
 IR Inten    --      1.2993                 1.3030                 0.9513

                     10                     11                     12
                      A                      A                      A
 Frequencies --    133.1298               155.9255               199.7827
 Red. masses --      7.6949                 6.4718                 6.3234
 Frc consts  --      0.0804                 0.0927                 0.1487
 IR Inten    --      0.6987                 0.3353                 0.4861

                     13                     14                     15
                      A                      A                      A
 Frequencies --    223.6230               248.3029               250.4967
 Red. masses --      7.1470                 8.1704                 8.7902
 Frc consts  --      0.2106                 0.2968                 0.3250
 IR Inten    --      6.4640                 3.8235                 3.3060

                     16                     17                     18
                      A                      A                      A
 Frequencies --    299.6331               348.4459               357.0416
 Red. masses --      7.1153                 4.2925                 2.2491
 Frc consts  --      0.3764                 0.3071                 0.1689
 IR Inten    --      1.9822                 4.3087                 0.8685

                     19                     20                     21
                      A                      A                      A
 Frequencies --    381.2467               416.9418               417.0472
 Red. masses --      2.4395                 2.9669                 2.9676
 Frc consts  --      0.2089                 0.3039                 0.3041
 IR Inten    --      6.1476                 0.0537                 0.0856

                     22                     23                     24
                      A                      A                      A
 Frequencies --    434.0308               491.1534               503.4753
 Red. masses --      4.9963                 4.1648                 4.6491
 Frc consts  --      0.5545                 0.5919                 0.6943
 IR Inten    --     23.7112                 0.4341                39.4245

                     25                     26                     27
                      A                      A                      A
 Frequencies --    577.3446               583.7226               606.2324
 Red. masses --      9.1803                 6.2729                 6.8316
 Frc consts  --      1.8029                 1.2593                 1.4793
 IR Inten    --      5.3208                14.7512                 4.0730

                     28                     29                     30
                      A                      A                      A
 Frequencies --    635.1101               635.5154               640.7931
 Red. masses --      6.3205                 6.3427                 5.6432
 Frc consts  --      1.5021                 1.5093                 1.3653
 IR Inten    --      1.9642                 0.3474                 9.9246

                     31                     32                     33
                      A                      A                      A
 Frequencies --    648.8237               713.6566               713.8437
 Red. masses --      5.6502                 1.8063                 1.7953
 Frc consts  --      1.4014                 0.5420                 0.5390
 IR Inten    --      1.8697                52.3496                 9.2914

                     34                     35                     36
                      A                      A                      A
 Frequencies --    771.9710               774.1118               808.7927
 Red. masses --      2.0886                 2.0858                10.3261
 Frc consts  --      0.7333                 0.7364                 3.9798
 IR Inten    --     75.4493                 3.0856                25.5363

                     37                     38                     39
                      A                      A                      A
 Frequencies --    827.9737               839.4528               839.6292
 Red. masses --      5.1013                 3.8822                 3.8422
 Frc consts  --      2.0605                 1.6118                 1.5959
 IR Inten    --      1.7658                11.8911                11.9097

                     40                     41                     42
                      A                      A                      A
 Frequencies --    863.7845               864.1067               870.1301
 Red. masses --      1.2475                 1.2478                 4.8475
 Frc consts  --      0.5484                 0.5490                 2.1624
 IR Inten    --      0.1207                 0.3264                73.0887

                     43                     44                     45
                      A                      A                      A
 Frequencies --    918.9441               939.3263               943.7187
 Red. masses --      4.6546                 1.4905                 1.6736
 Frc consts  --      2.3158                 0.7749                 0.8782
 IR Inten    --      6.5994                17.4967                 0.1454

                     46                     47                     48
                      A                      A                      A
 Frequencies --    973.1376               974.2225               974.2826
 Red. masses --      3.8397                 1.3665                 1.3821
 Frc consts  --      2.1424                 0.7641                 0.7730
 IR Inten    --    104.3213                 2.6392                 7.6368

                     49                     50                     51
                      A                      A                      A
 Frequencies --    989.5310              1002.6534              1002.7434
 Red. masses --      3.7350                 1.2811                 1.2801
 Frc consts  --      2.1548                 0.7588                 0.7583
 IR Inten    --     13.0360                 0.1173                 0.2051

                     52                     53                     54
                      A                      A                      A
 Frequencies --   1018.5078              1018.9830              1021.5604
 Red. masses --      3.5246                 4.4225                 3.5945
 Frc consts  --      2.1542                 2.7055                 2.2101
 IR Inten    --      7.7365                 7.9688                 4.9186

                     55                     56                     57
                      A                      A                      A
 Frequencies --   1022.4545              1058.9696              1058.9985
 Red. masses --      3.3158                 2.2311                 2.2323
 Frc consts  --      2.0423                 1.4741                 1.4750
 IR Inten    --      9.8373                 0.7291                 1.3949

                     58                     59                     60
                      A                      A                      A
 Frequencies --   1123.5218              1123.6510              1194.8639
 Red. masses --      1.5185                 1.5187                 1.1025
 Frc consts  --      1.1293                 1.1297                 0.9274
 IR Inten    --      3.5652                 0.7833                 0.0249

                     61                     62                     63
                      A                      A                      A
 Frequencies --   1194.8896              1215.0049              1216.3128
 Red. masses --      1.1025                 1.2153                 1.1405
 Frc consts  --      0.9275                 1.0570                 0.9941
 IR Inten    --      0.0251               126.9435                 1.0669

                     64                     65                     66
                      A                      A                      A
 Frequencies --   1229.6218              1240.1833              1240.2781
 Red. masses --      4.2150                 2.9730                 2.9265
 Frc consts  --      3.7549                 2.6941                 2.6524
 IR Inten    --   1073.3708                17.7505                 6.4814

                     67                     68                     69
                      A                      A                      A
 Frequencies --   1269.6705              1296.6354              1302.5977
 Red. masses --      2.6859                 1.3980                 1.7992
 Frc consts  --      2.5511                 1.3848                 1.7986
 IR Inten    --    161.1406                57.7698               117.7197

                     70                     71                     72
                      A                      A                      A
 Frequencies --   1364.9344              1365.1326              1375.2221
 Red. masses --      4.1873                 4.1475                 1.2657
 Frc consts  --      4.5963                 4.5540                 1.4104
 IR Inten    --      2.3966                 3.0481                 3.8056

                     73                     74                     75
                      A                      A                      A
 Frequencies --   1375.3814              1416.2384              1417.4663
 Red. masses --      1.2675                 1.3464                 1.3679
 Frc consts  --      1.4127                 1.5911                 1.6193
 IR Inten    --      2.1467                16.9603                21.1862

                     76                     77                     78
                      A                      A                      A
 Frequencies --   1504.7412              1504.8815              1516.7822
 Red. masses --      2.1978                 2.2015                 1.1169
 Frc consts  --      2.9320                 2.9374                 1.5139
 IR Inten    --      6.3933                 7.6942                13.2911

                     79                     80                     81
                      A                      A                      A
 Frequencies --   1518.5132              1547.9357              1547.9821
 Red. masses --      1.1185                 2.2125                 2.2100
 Frc consts  --      1.5196                 3.1234                 3.1201
 IR Inten    --     10.8550                 4.2520                 4.9933

                     82                     83                     84
                      A                      A                      A
 Frequencies --   1646.1582              1646.3588              1656.3801
 Red. masses --      5.4956                 5.4999                13.9628
 Frc consts  --      8.7742                 8.7832                22.5706
 IR Inten    --      0.7306                 0.8523                 0.6703

                     85                     86                     87
                      A                      A                      A
 Frequencies --   1666.1266              1666.1651              1832.8818
 Red. masses --      5.5123                 5.5108                12.1840
 Frc consts  --      9.0157                 9.0136                24.1163
 IR Inten    --      0.0967                 0.9731                60.7517

                     88                     89                     90
                      A                      A                      A
 Frequencies --   1849.3586              3107.2345              3110.8580
 Red. masses --     12.1339                 1.0575                 1.0577
 Frc consts  --     24.4508                 6.0157                 6.0309
 IR Inten    --    448.0731                22.6220                22.1506

                     91                     92                     93
                      A                      A                      A
 Frequencies --   3165.0223              3168.2487              3179.1929
 Red. masses --      1.1107                 1.1106                 1.0867
 Frc consts  --      6.5557                 6.5683                 6.4710
 IR Inten    --      4.2390                 3.8169                 3.7062

                     94                     95                     96
                      A                      A                      A
 Frequencies --   3179.2417              3187.6231              3187.6560
 Red. masses --      1.0867                 1.0877                 1.0877
 Frc consts  --      6.4716                 6.5116                 6.5116
 IR Inten    --      6.6480                 1.9179                 3.6882

                     97                     98                     99
                      A                      A                      A
 Frequencies --   3198.2008              3198.2348              3207.7923
 Red. masses --      1.0914                 1.0914                 1.0949
 Frc consts  --      6.5772                 6.5773                 6.6379
 IR Inten    --      7.5889                37.3661                 5.1403

                    100                    101                    102
                      A                      A                      A
 Frequencies --   3207.8427              3215.6942              3215.7254
 Red. masses --      1.0949                 1.0963                 1.0963
 Frc consts  --      6.6380                 6.6793                 6.6793
 IR Inten    --     40.7442                 5.8486                 9.0187

 - Thermochemistry -
 -------------------
 Temperature   298.150 Kelvin.  Pressure   1.00000 Atm.
 Atom     1 has atomic number  6 and mass  12.00000

 Molecular mass:   298.09536 amu.
 Principal axes and moments of inertia in atomic units:
                           1         2         3
     Eigenvalues --  3976.09356********************
           X            1.00000   0.00093  -0.00090
           Y           -0.00094   0.99996  -0.00859
           Z            0.00090   0.00859   0.99996
 This molecule is an asymmetric top.
 Rotational symmetry number  1.
 Warning -- assumption of classical behavior for rotation
           may cause significant error
 Rotational temperatures (Kelvin)      0.02178     0.00527     0.00470
 Rotational constants (GHZ):           0.45390     0.10982     0.09791
 Zero-point vibrational energy     729366.3 (Joules/Mol)
                                  174.32272 (Kcal/Mol)
 Warning -- explicit consideration of  27 degrees of freedom as
           vibrations may cause significant error
 Vibrational temperatures:      7.49    19.84    33.91    35.47    51.27
          (Kelvin)             66.88    81.29   101.12   110.30   191.54
                              224.34   287.44   321.74   357.25   360.41
                              431.11   501.34   513.70   548.53   599.89
                              600.04   624.47   706.66   724.39   830.67
                              839.85   872.23   913.78   914.36   921.96
                              933.51  1026.79  1027.06  1110.69  1113.77
                             1163.67  1191.27  1207.79  1208.04  1242.79
                             1243.26  1251.92  1322.16  1351.48  1357.80
                             1400.13  1401.69  1401.78  1423.71  1442.59
                             1442.72  1465.41  1466.09  1469.80  1471.08
                             1523.62  1523.66  1616.50  1616.68  1719.14
                             1719.18  1748.12  1750.00  1769.15  1784.35
                             1784.48  1826.77  1865.57  1874.15  1963.84
                             1964.12  1978.64  1978.87  2037.65  2039.42
                             2164.99  2165.19  2182.31  2184.80  2227.13
                             2227.20  2368.45  2368.74  2383.16  2397.18
                             2397.24  2637.11  2660.81  4470.62  4475.83
                             4553.76  4558.40  4574.15  4574.22  4586.28
                             4586.33  4601.50  4601.55  4615.30  4615.37
                             4626.67  4626.71

 Zero-point correction=                           0.277801 (Hartree/Particle)
 Thermal correction to Energy=                    0.297269
 Thermal correction to Enthalpy=                  0.298213
 Thermal correction to Gibbs Free Energy=         0.222244
 Sum of electronic and zero-point Energies=          -1028.204451
 Sum of electronic and thermal Energies=             -1028.184983
 Sum of electronic and thermal Enthalpies=           -1028.184038
 Sum of electronic and thermal Free Energies=        -1028.260008

                     E (Thermal)             CV                S
                      KCal/Mol        Cal/Mol-Kelvin    Cal/Mol-Kelvin
 Total                  186.539             71.336            159.891
 Electronic               0.000              0.000              0.000
 Translational            0.889              2.981             42.974
 Rotational               0.889              2.981             35.442
 Vibrational            184.762             65.374             81.475
 Vibration     1          0.593              1.987              9.308
 Vibration     2          0.593              1.986              7.372
 Vibration     3          0.593              1.985              6.308
 Vibration     4          0.593              1.985              6.219
 Vibration     5          0.594              1.982              5.488
 Vibration     6          0.595              1.979              4.962
 Vibration     7          0.596              1.975              4.576
 Vibration     8          0.598              1.968              4.145
 Vibration     9          0.599              1.965              3.975
 Vibration    10          0.613              1.920              2.900
 Vibration    11          0.620              1.896              2.599
 Vibration    12          0.638              1.840              2.135
 Vibration    13          0.649              1.805              1.930
 Vibration    14          0.662              1.766              1.743
 Vibration    15          0.663              1.762              1.727
 Vibration    16          0.692              1.674              1.419
 Vibration    17          0.726              1.578              1.173
 Vibration    18          0.732              1.561              1.135
 Vibration    19          0.751              1.510              1.034
 Vibration    20          0.780              1.433              0.902
 Vibration    21          0.780              1.433              0.902
 Vibration    22          0.795              1.396              0.846
 Vibration    23          0.847              1.270              0.681
 Vibration    24          0.859              1.242              0.649
 Vibration    25          0.934              1.080              0.490
 Vibration    26          0.941              1.067              0.479
 Vibration    27          0.965              1.019              0.439

 Optimization completed on the basis of negligible forces.
    -- Stationary point found.
 Normal termination of Gaussian 16 at Sat Aug 22 17:12:26 2020.
 Gaussian 16:  ES64L-G16RevA.03 25-Dec-2016

 ----------------------------------------------------------------------
 # TD(NStates=10, Root=1) B3LYP/6-31G* scf=qc volume pop=NPA density=cu
 rrent Geom=AllCheck Guess=Read
 ----------------------------------------------------------------------

 Structure from the checkpoint file:  "azadicarboxylate_4_conf93.chk"
 -------------------
 Title Card Required
 -------------------
 Charge =  0 Multiplicity = 1

                         Standard orientation:
 ---------------------------------------------------------------------
 Center     Atomic      Atomic             Coordinates (Angstroms)
 Number     Number       Type             X           Y           Z
 ---------------------------------------------------------------------
      1          6           0        4.181955    0.353506    0.528757
      2          6           0        3.704698   -0.852262    1.292914
      3          8           0        2.268761   -1.086554    1.096512
      4          6           0        1.935369   -1.892959    0.092163
      5          8           0        2.661841   -2.462639   -0.683655
      6          7           0        0.507089   -2.141069    0.103582
      7          7           0       -0.153137   -1.199243   -0.372344
      8          6           0       -1.570382   -1.487924   -0.460578
      9          8           0       -2.079316   -1.849009   -1.492183
     10          8           0       -2.161087   -1.191919    0.694372
     11          6           0       -3.625974   -1.291263    0.720754
     12          6           0       -4.278180    0.009533    0.335926
     13          6           0       -4.606858    0.275062   -1.000564
     14          6           0       -5.202759    1.486490   -1.351182
     15          6           0       -5.475858    2.443160   -0.371241
     16          6           0       -5.151027    2.186177    0.962278
     17          6           0       -4.555342    0.974744    1.312321
     18          6           0        4.150430    1.621234    1.122969
     19          6           0        4.583809    2.744654    0.419244
     20          6           0        5.053889    2.608842   -0.888436
     21          6           0        5.088420    1.348304   -1.488584
     22          6           0        4.654939    0.225173   -0.784393
     23          1           0        3.791370   -0.705144    2.370714
     24          1           0        4.235850   -1.759069    0.997793
     25          1           0       -3.839955   -1.558242    1.756847
     26          1           0       -3.920813   -2.107977    0.059976
     27          1           0       -4.384039   -0.467079   -1.761540
     28          1           0       -5.455380    1.682660   -2.389620
     29          1           0       -5.942587    3.385489   -0.645479
     30          1           0       -5.364035    2.926559    1.728572
     31          1           0       -4.304254    0.774171    2.351472
     32          1           0        3.785495    1.727269    2.142124
     33          1           0        4.556901    3.723127    0.891034
     34          1           0        5.394044    3.482719   -1.437664
     35          1           0        5.454481    1.238966   -2.505776
     36          1           0        4.670895   -0.755117   -1.251601
 ---------------------------------------------------------------------

 SCF Done:  E(RB3LYP) =  -1028.48225181     a.u. after    1 cycles

 Excitation energies and oscillator strengths:

 Excited State   1:      Singlet-A      2.9402 eV  421.68 nm  f=0.0020  <S**2>=0.000
      74 -> 79        -0.27225
      78 -> 79         0.64206
 This state for optimization and/or second-order correction.
 Total Energy, E(TD-HF/TD-DFT) =  -1028.37420005
 Copying the excited state density for this state as the 1-particle RhoCI density.

 Excited State   2:      Singlet-A      4.1996 eV  295.23 nm  f=0.0096  <S**2>=0.000
      74 -> 79        -0.18696
      75 -> 79        -0.15762
      76 -> 79        -0.32421
      77 -> 79         0.56054
      78 -> 79        -0.13537

 Excited State   3:      Singlet-A      4.2387 eV  292.51 nm  f=0.0042  <S**2>=0.000
      75 -> 79         0.15677
      76 -> 79         0.56689
      77 -> 79         0.38889

 Excited State   4:      Singlet-A      4.2618 eV  290.92 nm  f=0.0115  <S**2>=0.000
      74 -> 79         0.57919
      75 -> 79         0.16576
      76 -> 79        -0.20896
      77 -> 79         0.17827
      78 -> 79         0.24263

 Excited State   5:      Singlet-A      4.2893 eV  289.05 nm  f=0.0025  <S**2>=0.000
      74 -> 79        -0.21709
      75 -> 79         0.64855
      76 -> 79        -0.16498

 Excited State   6:      Singlet-A      5.0745 eV  244.33 nm  f=0.0733  <S**2>=0.000
      73 -> 79         0.68427

 Excited State   7:      Singlet-A      5.1996 eV  238.45 nm  f=0.0009  <S**2>=0.000
      72 -> 79         0.67855

 Excited State   8:      Singlet-A      5.3885 eV  230.09 nm  f=0.0020  <S**2>=0.000
      74 -> 82        -0.28752
      75 -> 80         0.46889
      75 -> 82         0.11873
      76 -> 80        -0.22751
      76 -> 82         0.20569
      78 -> 82        -0.25229

 Excited State   9:      Singlet-A      5.4037 eV  229.44 nm  f=0.0017  <S**2>=0.000
      74 -> 83         0.17568
      75 -> 83         0.14333
      76 -> 81         0.21653
      76 -> 83         0.29074
      77 -> 81         0.47148
      77 -> 83        -0.16361
      78 -> 83         0.22632

 Excited State  10:      Singlet-A      5.4334 eV  228.19 nm  f=0.0034  <S**2>=0.000
      70 -> 79        -0.28170
      71 -> 79         0.60378
      78 -> 80        -0.12478
      78 -> 84         0.11807

 The electronic state is 1-A.
 Alpha  occ. eigenvalues --  -19.21259 -19.21205 -19.15667 -19.15608 -14.42234
 Alpha  occ. eigenvalues --  -14.42183 -10.35219 -10.35189 -10.25925 -10.25916
 Alpha  occ. eigenvalues --  -10.20545 -10.20464 -10.19962 -10.19872 -10.19854
 Alpha  occ. eigenvalues --  -10.19756 -10.19753 -10.19655 -10.19645 -10.19583
 Alpha  occ. eigenvalues --  -10.19544 -10.19481  -1.13704  -1.12454  -1.05631
 Alpha  occ. eigenvalues --   -1.03877  -1.03525  -0.86362  -0.86245  -0.81013
 Alpha  occ. eigenvalues --   -0.78611  -0.76564  -0.75131  -0.75034  -0.71575
 Alpha  occ. eigenvalues --   -0.69553  -0.62319  -0.61432  -0.61329  -0.60173
 Alpha  occ. eigenvalues --   -0.58579  -0.56382  -0.55527  -0.52547  -0.52251
 Alpha  occ. eigenvalues --   -0.50773  -0.49682  -0.49015  -0.48015  -0.47401
 Alpha  occ. eigenvalues --   -0.46848  -0.46718  -0.45292  -0.44133  -0.43068
 Alpha  occ. eigenvalues --   -0.43042  -0.42434  -0.42367  -0.41867  -0.39867
 Alpha  occ. eigenvalues --   -0.39802  -0.38037  -0.37821  -0.36624  -0.36493
 Alpha  occ. eigenvalues --   -0.36098  -0.35953  -0.34636  -0.34558  -0.31827
 Alpha  occ. eigenvalues --   -0.31705  -0.31031  -0.30717  -0.26046  -0.25709
 Alpha  occ. eigenvalues --   -0.25653  -0.25574  -0.24650
 Alpha virt. eigenvalues --   -0.08139  -0.01968  -0.01733  -0.00759  -0.00657
 Alpha virt. eigenvalues --    0.00650   0.01018   0.08920   0.08976   0.11168
 Alpha virt. eigenvalues --    0.11242   0.12119   0.12346   0.13157   0.13210

 Mulliken charges:
               1
     1  C    0.151795
     2  C   -0.157472
     3  O   -0.409501
     4  C    0.737701
     5  O   -0.418853
     6  N   -0.245069
     7  N   -0.238646
     8  C    0.738167
     9  O   -0.411584
    10  O   -0.407880
    11  C   -0.157608
    12  C    0.151151
    13  C   -0.176146
    14  C   -0.129495
    15  C   -0.123378
    16  C   -0.128534
    17  C   -0.167565
    18  C   -0.168060
    19  C   -0.128486
    20  C   -0.123744
    21  C   -0.129464
    22  C   -0.175606
    23  H    0.168815
    24  H    0.184023
    25  H    0.169316
    26  H    0.184965
    27  H    0.161475
    28  H    0.139083
    29  H    0.136617
    30  H    0.136114
    31  H    0.134586
    32  H    0.132966
    33  H    0.134942
    34  H    0.135468
    35  H    0.138252
    36  H    0.161653
 Sum of Mulliken charges =  -0.00000

 Dipole moment (field-independent basis, Debye):
    X=             -0.7156    Y=              3.0071    Z=              2.6122  Tot=              4.0470
 Quadrupole moment (field-independent basis, Debye-Ang):
   XX=           -102.5525   YY=           -121.2993   ZZ=           -118.6899
   XY=              1.9161   XZ=             -0.4097   YZ=             -6.3415

 Summary of Natural Population Analysis:

                                       Natural Population
                Natural  -----------------------------------------------
    Atom  No    Charge         Core      Valence    Rydberg      Total
 -----------------------------------------------------------------------
      C    1   -0.09146      1.99901     4.07794    0.01452     6.09146
      C    2   -0.12393      1.99912     4.10574    0.01907     6.12393
      O    3   -0.52356      1.99973     6.51156    0.01227     8.52356
      C    4    0.92163      1.99950     3.02857    0.05029     5.07837
      O    5   -0.55223      1.99977     6.53174    0.02072     8.55223
      N    6   -0.22286      1.99938     5.19695    0.02652     7.22286
      N    7   -0.21800      1.99938     5.19229    0.02633     7.21800
      C    8    0.92497      1.99951     3.02505    0.05047     5.07503
      O    9   -0.54507      1.99977     6.52460    0.02070     8.54507
      O   10   -0.52171      1.99973     6.50966    0.01232     8.52171
      C   11   -0.12589      1.99912     4.10778    0.01899     6.12589
      C   12   -0.09164      1.99901     4.07809    0.01454     6.09164
      C   13   -0.21155      1.99903     4.19914    0.01338     6.21155
      C   14   -0.22884      1.99910     4.21587    0.01386     6.22884
      C   15   -0.22170      1.99910     4.20912    0.01347     6.22170
      C   16   -0.23046      1.99910     4.21753    0.01383     6.23046
      C   17   -0.21170      1.99903     4.19951    0.01316     6.21170
      C   18   -0.21268      1.99903     4.20051    0.01314     6.21268
      C   19   -0.23070      1.99910     4.21778    0.01383     6.23070
      C   20   -0.22312      1.99910     4.21054    0.01347     6.22312
      C   21   -0.22845      1.99910     4.21551    0.01384     6.22845
      C   22   -0.21195      1.99903     4.19956    0.01335     6.21195
      H   23    0.24037      0.00000     0.75848    0.00115     0.75963
      H   24    0.24208      0.00000     0.75571    0.00221     0.75792
      H   25    0.24077      0.00000     0.75805    0.00118     0.75923
      H   26    0.24293      0.00000     0.75494    0.00214     0.75707
      H   27    0.25175      0.00000     0.74685    0.00140     0.74825
      H   28    0.24107      0.00000     0.75810    0.00083     0.75893
      H   29    0.23908      0.00000     0.76010    0.00082     0.76092
      H   30    0.23962      0.00000     0.75954    0.00085     0.76038
      H   31    0.23688      0.00000     0.76206    0.00106     0.76312
      H   32    0.23599      0.00000     0.76295    0.00106     0.76401
      H   33    0.23904      0.00000     0.76011    0.00085     0.76096
      H   34    0.23857      0.00000     0.76060    0.00082     0.76143
      H   35    0.24062      0.00000     0.75855    0.00083     0.75938
      H   36    0.25212      0.00000     0.74652    0.00136     0.74788
 =======================================================================
   * Total *    0.00000     43.98375   111.57760    0.43865   156.00000

 Normal termination of Gaussian 16 at Sat Aug 22 17:22:27 2020.
