 Gaussian 16, Revision A.03,

 ---------------------------------
 # opt=CalcAll B3LYP/6-31G* scf=qc
 ---------------------------------

 -------------------
 Title Card Required
 -------------------
 Symbolic Z-matrix:
 Charge =  0 Multiplicity = 1

 SCF Done:  E(RB3LYP) =  -1028.45048840     a.u. after   10 cycles
 SCF Done:  E(RB3LYP) =  -1028.47292851     a.u. after   25 cycles
 SCF Done:  E(RB3LYP) =  -1028.47741202     a.u. after   29 cycles
 SCF Done:  E(RB3LYP) =  -1028.02156043     a.u. after   34 cycles
 SCF Done:  E(RB3LYP) =  -1028.36221269     a.u. after   16 cycles
 SCF Done:  E(RB3LYP) =  -1028.38549837     a.u. after   10 cycles
 SCF Done:  E(RB3LYP) =  -1028.40280455     a.u. after   10 cycles
 SCF Done:  E(RB3LYP) =  -1028.41605357     a.u. after   10 cycles
 SCF Done:  E(RB3LYP) =  -1028.42666894     a.u. after   10 cycles
 SCF Done:  E(RB3LYP) =  -1028.43554785     a.u. after   10 cycles
 SCF Done:  E(RB3LYP) =  -1028.48166762     a.u. after   17 cycles
 SCF Done:  E(RB3LYP) =  -1028.48157594     a.u. after   15 cycles
 SCF Done:  E(RB3LYP) =  -1028.48167825     a.u. after   15 cycles
 SCF Done:  E(RB3LYP) =  -1028.48168116     a.u. after   11 cycles
 SCF Done:  E(RB3LYP) =  -1028.48168214     a.u. after    5 cycles
 SCF Done:  E(RB3LYP) =  -1028.48168319     a.u. after    4 cycles
 SCF Done:  E(RB3LYP) =  -1028.48168486     a.u. after    7 cycles
 SCF Done:  E(RB3LYP) =  -1028.48168496     a.u. after    3 cycles
 Optimization completed on the basis of negligible forces.
    -- Stationary point found.
 Normal termination of Gaussian 16 at Sat Aug 22 21:25:07 2020.

 ----------------------------------------------------------------------
 # freq B3LYP/6-31G* scf=qc volume NMR pop=NPA density=current Geom=All
 Check Guess=Read
 ----------------------------------------------------------------------

 Structure from the checkpoint file:  "azadicarboxylate_4_conf152.chk"
 -------------------
 Title Card Required
 -------------------
 Charge =  0 Multiplicity = 1

 SCF Done:  E(RB3LYP) =  -1028.48168496     a.u. after    1 cycles

      1  C    Isotropic =    63.2186   Anisotropy =   174.2882

      2  C    Isotropic =   118.8231   Anisotropy =    33.1682

      3  O    Isotropic =   146.7515   Anisotropy =   130.5547

      4  C    Isotropic =    35.4854   Anisotropy =    82.2245

      5  O    Isotropic =   -26.8755   Anisotropy =   500.9461

      6  N    Isotropic =  -322.6669   Anisotropy =   674.7797

      7  N    Isotropic =  -325.5505   Anisotropy =   677.9830

      8  C    Isotropic =    34.4903   Anisotropy =    75.6065

      9  O    Isotropic =   -19.0434   Anisotropy =   493.8082

     10  O    Isotropic =   141.5204   Anisotropy =   139.9091

     11  C    Isotropic =   120.7588   Anisotropy =    39.5366

     12  C    Isotropic =    62.1189   Anisotropy =   173.2743

     13  C    Isotropic =    65.0696   Anisotropy =   156.3330

     14  C    Isotropic =    68.1727   Anisotropy =   165.6492

     15  C    Isotropic =    66.9024   Anisotropy =   170.9636

     16  C    Isotropic =    67.6325   Anisotropy =   166.8864

     17  C    Isotropic =    63.8670   Anisotropy =   161.8147

     18  C    Isotropic =    64.7963   Anisotropy =   159.4357

     19  C    Isotropic =    67.8448   Anisotropy =   166.7426

     20  C    Isotropic =    66.9792   Anisotropy =   171.2458

     21  C    Isotropic =    67.9737   Anisotropy =   166.2782

     22  C    Isotropic =    65.0299   Anisotropy =   156.3253

     23  H    Isotropic =    27.2606   Anisotropy =     4.2374

     24  H    Isotropic =    27.1585   Anisotropy =     4.4322

     25  H    Isotropic =    27.6433   Anisotropy =     5.5963

     26  H    Isotropic =    26.3798   Anisotropy =     2.4959

     27  H    Isotropic =    24.8561   Anisotropy =     6.7154

     28  H    Isotropic =    24.8898   Anisotropy =     4.5748

     29  H    Isotropic =    24.8745   Anisotropy =     4.2931

     30  H    Isotropic =    24.8432   Anisotropy =     4.9278

     31  H    Isotropic =    24.2997   Anisotropy =     7.4580

     32  H    Isotropic =    24.8742   Anisotropy =     7.0760

     33  H    Isotropic =    24.8885   Anisotropy =     4.7258

     34  H    Isotropic =    24.8735   Anisotropy =     4.2223

     35  H    Isotropic =    24.8853   Anisotropy =     4.6943

     36  H    Isotropic =    24.8747   Anisotropy =     6.9986

  Exact polarizability: 224.070  -3.783 192.600  40.355   0.841 141.304
 Approx polarizability: 267.103  -6.495 334.577  75.824  -6.101 240.495

                      1                      2                      3
                      A                      A                      A
 Frequencies --      5.3575                 8.9692                23.4671
 Red. masses --      5.9842                 3.7600                 4.4955
 Frc consts  --      0.0001                 0.0002                 0.0015
 IR Inten    --      0.5804                 0.0387                 0.2177

                      4                      5                      6
                      A                      A                      A
 Frequencies --     24.7697                27.7522                32.4027
 Red. masses --      4.8687                 8.2712                 7.7903
 Frc consts  --      0.0018                 0.0038                 0.0048
 IR Inten    --      0.7500                 0.7576                 0.4056

                      7                      8                      9
                      A                      A                      A
 Frequencies --     52.2157                74.8688                99.5257
 Red. masses --      8.3554                 6.2740                 6.5429
 Frc consts  --      0.0134                 0.0207                 0.0382
 IR Inten    --      1.2374                 1.3274                 0.7513

                     10                     11                     12
                      A                      A                      A
 Frequencies --    102.7954               152.7839               198.2074
 Red. masses --      6.3060                 6.8308                 6.9779
 Frc consts  --      0.0393                 0.0939                 0.1615
 IR Inten    --      0.2194                 0.2333                 0.0415

                     13                     14                     15
                      A                      A                      A
 Frequencies --    211.9287               233.5808               244.8164
 Red. masses --      8.1642                 8.3359                 8.2125
 Frc consts  --      0.2160                 0.2680                 0.2900
 IR Inten    --      4.3431                13.1458                13.0670

                     16                     17                     18
                      A                      A                      A
 Frequencies --    291.0663               335.3532               347.1370
 Red. masses --      5.7906                 2.1781                 5.2344
 Frc consts  --      0.2890                 0.1443                 0.3716
 IR Inten    --      1.0600                 0.7642                 1.8935

                     19                     20                     21
                      A                      A                      A
 Frequencies --    365.6873               416.3084               416.9748
 Red. masses --      2.4320                 2.9556                 2.9679
 Frc consts  --      0.1916                 0.3018                 0.3040
 IR Inten    --      8.4133                 0.0145                 0.0416

                     22                     23                     24
                      A                      A                      A
 Frequencies --    430.2482               482.0503               511.5851
 Red. masses --      6.4257                 4.1896                 4.5015
 Frc consts  --      0.7008                 0.5736                 0.6941
 IR Inten    --      2.9260                 6.7283                 0.6565

                     25                     26                     27
                      A                      A                      A
 Frequencies --    574.6262               585.0216               607.6401
 Red. masses --      6.8553                 5.3272                 8.1328
 Frc consts  --      1.3337                 1.0742                 1.7692
 IR Inten    --     38.2472                 4.3865                 2.4354

                     28                     29                     30
                      A                      A                      A
 Frequencies --    627.0666               635.8599               635.9754
 Red. masses --      5.2197                 6.2390                 6.3140
 Frc consts  --      1.2093                 1.4862                 1.5047
 IR Inten    --     18.0072                 0.9744                 0.0980

                     31                     32                     33
                      A                      A                      A
 Frequencies --    651.6619               712.3375               713.5843
 Red. masses --      8.8652                 1.8450                 1.8188
 Frc consts  --      2.2181                 0.5516                 0.5457
 IR Inten    --     12.3029                27.5859                31.6804

                     34                     35                     36
                      A                      A                      A
 Frequencies --    770.9597               773.7447               811.5181
 Red. masses --      1.9476                 2.0096                10.1303
 Frc consts  --      0.6821                 0.7088                 3.9307
 IR Inten    --      1.5927                70.4995                26.2297

                     37                     38                     39
                      A                      A                      A
 Frequencies --    819.1845               838.8775               858.0723
 Red. masses --      5.7472                 3.7976                 4.7795
 Frc consts  --      2.2723                 1.5745                 2.0734
 IR Inten    --      6.2318                10.0216                35.1028

                     40                     41                     42
                      A                      A                      A
 Frequencies --    860.3182               863.9804               902.7311
 Red. masses --      1.2490                 1.2565                 5.8166
 Frc consts  --      0.5447                 0.5526                 2.7928
 IR Inten    --      0.0198                 0.1219                27.3655

                     43                     44                     45
                      A                      A                      A
 Frequencies --    922.3028               941.1769               966.3603
 Red. masses --      1.6995                 1.5231                 4.1728
 Frc consts  --      0.8517                 0.7949                 2.2959
 IR Inten    --     32.4647                 6.2640                48.4686

                     46                     47                     48
                      A                      A                      A
 Frequencies --    968.6280               973.9891               979.3627
 Red. masses --      1.3581                 1.3595                 3.3626
 Frc consts  --      0.7507                 0.7599                 1.9002
 IR Inten    --      0.1291                 0.2604               106.1506

                     49                     50                     51
                      A                      A                      A
 Frequencies --    984.8258              1000.6516              1001.8792
 Red. masses --      1.8560                 1.6443                 2.9767
 Frc consts  --      1.0606                 0.9700                 1.7604
 IR Inten    --      8.4224                10.1151                33.0736

                     52                     53                     54
                      A                      A                      A
 Frequencies --   1002.4704              1019.2189              1020.0972
 Red. masses --      1.3100                 4.7035                 6.2724
 Frc consts  --      0.7756                 2.8788                 3.8456
 IR Inten    --      0.7516                 4.2209                 1.0524

                     55                     56                     57
                      A                      A                      A
 Frequencies --   1022.7132              1058.6738              1058.9001
 Red. masses --      3.2310                 2.1970                 2.2322
 Frc consts  --      1.9911                 1.4508                 1.4746
 IR Inten    --      6.6489                 0.3528                 1.1326

                     58                     59                     60
                      A                      A                      A
 Frequencies --   1121.0785              1123.5153              1194.8315
 Red. masses --      1.5104                 1.5184                 1.1030
 Frc consts  --      1.1185                 1.1292                 0.9277
 IR Inten    --      1.9709                 1.8378                 0.0035

                     61                     62                     63
                      A                      A                      A
 Frequencies --   1194.8499              1214.4864              1215.9547
 Red. masses --      1.1025                 1.1428                 1.1445
 Frc consts  --      0.9274                 0.9931                 0.9970
 IR Inten    --      0.0049                18.8446                13.1806

                     64                     65                     66
                      A                      A                      A
 Frequencies --   1239.9308              1244.6454              1251.6930
 Red. masses --      3.0403                 3.2095                 3.2617
 Frc consts  --      2.7540                 2.9294                 3.0109
 IR Inten    --     41.9085               423.2865               914.9921

                     67                     68                     69
                      A                      A                      A
 Frequencies --   1260.3197              1266.7820              1297.9403
 Red. masses --      1.2885                 3.7930                 1.5125
 Frc consts  --      1.2059                 3.5862                 1.5013
 IR Inten    --     14.3613               206.2277                83.1833

                     70                     71                     72
                      A                      A                      A
 Frequencies --   1363.2764              1364.8928              1369.9962
 Red. masses --      5.0966                 4.2134                 1.2927
 Frc consts  --      5.5808                 4.6247                 1.4295
 IR Inten    --      0.5701                 2.7824                 0.6479

                     73                     74                     75
                      A                      A                      A
 Frequencies --   1375.1353              1415.9085              1420.6580
 Red. masses --      1.2664                 1.3580                 1.4876
 Frc consts  --      1.4110                 1.6040                 1.7690
 IR Inten    --      3.3198                20.4978                24.0374

                     76                     77                     78
                      A                      A                      A
 Frequencies --   1503.7367              1504.7172              1518.5207
 Red. masses --      2.2170                 2.1971                 1.1185
 Frc consts  --      2.9536                 2.9310                 1.5196
 IR Inten    --      7.1149                 6.9230                12.0265

                     79                     80                     81
                      A                      A                      A
 Frequencies --   1528.7139              1547.9495              1550.1848
 Red. masses --      1.0968                 2.2102                 2.2778
 Frc consts  --      1.5101                 3.1203                 3.2251
 IR Inten    --      4.8726                 4.9089                 2.7647

                     82                     83                     84
                      A                      A                      A
 Frequencies --   1646.2119              1647.7633              1650.7340
 Red. masses --      5.4961                 5.5417                13.9702
 Frc consts  --      8.7756                 8.8652                22.4289
 IR Inten    --      0.7853                 0.3930                 0.4037

                     85                     86                     87
                      A                      A                      A
 Frequencies --   1666.1255              1668.4759              1834.7837
 Red. masses --      5.5113                 5.5877                12.3346
 Frc consts  --      9.0140                 9.1647                24.4649
 IR Inten    --      0.4444                 0.3959                 8.4787

                     88                     89                     90
                      A                      A                      A
 Frequencies --   1849.7909              3088.5051              3111.0713
 Red. masses --     12.4367                 1.0577                 1.0577
 Frc consts  --     25.0727                 5.9444                 6.0316
 IR Inten    --    576.1528                14.0428                21.1131

                     91                     92                     93
                      A                      A                      A
 Frequencies --   3139.3309              3168.4844              3179.8293
 Red. masses --      1.1101                 1.1107                 1.0866
 Frc consts  --      6.4457                 6.5697                 6.4730
 IR Inten    --      9.8347                 3.9285                 4.4969

                     94                     95                     96
                      A                      A                      A
 Frequencies --   3180.9337              3183.7746              3187.6004
 Red. masses --      1.0858                 1.0879                 1.0878
 Frc consts  --      6.4733                 6.4974                 6.5119
 IR Inten    --      4.4024                 2.8696                 2.5195

                     97                     98                     99
                      A                      A                      A
 Frequencies --   3192.6610              3198.1013              3202.7852
 Red. masses --      1.0906                 1.0914                 1.0942
 Frc consts  --      6.5496                 6.5767                 6.6130
 IR Inten    --     10.6367                22.1048                32.8381

                    100                    101                    102
                      A                      A                      A
 Frequencies --   3207.6670              3212.4410              3215.1757
 Red. masses --      1.0948                 1.0980                 1.0965
 Frc consts  --      6.6367                 6.6762                 6.6783
 IR Inten    --     24.8483                16.8213                 7.9422

 - Thermochemistry -
 -------------------
 Temperature   298.150 Kelvin.  Pressure   1.00000 Atm.
 Atom     1 has atomic number  6 and mass  12.00000

 Molecular mass:   298.09536 amu.
 Principal axes and moments of inertia in atomic units:
                           1         2         3
     Eigenvalues --  2842.70199********************
           X            1.00000  -0.00160   0.00216
           Y            0.00156   0.99989   0.01500
           Z           -0.00219  -0.01500   0.99989
 This molecule is an asymmetric top.
 Rotational symmetry number  1.
 Warning -- assumption of classical behavior for rotation
           may cause significant error
 Rotational temperatures (Kelvin)      0.03047     0.00421     0.00397
 Rotational constants (GHZ):           0.63487     0.08765     0.08272
 Zero-point vibrational energy     728383.6 (Joules/Mol)
                                  174.08785 (Kcal/Mol)
 Warning -- explicit consideration of  27 degrees of freedom as
           vibrations may cause significant error
 Vibrational temperatures:      7.71    12.90    33.76    35.64    39.93
          (Kelvin)             46.62    75.13   107.72   143.20   147.90
                              219.82   285.18   304.92   336.07   352.24
                              418.78   482.50   499.45   526.14   598.97
                              599.93   619.03   693.56   736.06   826.76
                              841.72   874.26   902.21   914.86   915.03
                              937.60  1024.89  1026.69  1109.24  1113.25
                             1167.59  1178.62  1206.96  1234.57  1237.81
                             1243.08  1298.83  1326.99  1354.14  1390.38
                             1393.64  1401.35  1409.08  1416.94  1439.71
                             1441.48  1442.33  1466.43  1467.69  1471.46
                             1523.20  1523.52  1612.98  1616.49  1719.10
                             1719.12  1747.38  1749.49  1783.98  1790.77
                             1800.91  1813.32  1822.62  1867.45  1961.45
                             1963.78  1971.12  1978.51  2037.18  2044.01
                             2163.54  2164.95  2184.81  2199.48  2227.15
                             2230.37  2368.53  2370.76  2375.04  2397.18
                             2400.56  2639.84  2661.44  4443.67  4476.14
                             4516.80  4558.74  4575.07  4576.65  4580.74
                             4586.25  4593.53  4601.35  4608.09  4615.12
                             4621.99  4625.92

 Zero-point correction=                           0.277427 (Hartree/Particle)
 Thermal correction to Energy=                    0.297073
 Thermal correction to Enthalpy=                  0.298017
 Thermal correction to Gibbs Free Energy=         0.220805
 Sum of electronic and zero-point Energies=          -1028.204258
 Sum of electronic and thermal Energies=             -1028.184612
 Sum of electronic and thermal Enthalpies=           -1028.183668
 Sum of electronic and thermal Free Energies=        -1028.260880

                     E (Thermal)             CV                S
                      KCal/Mol        Cal/Mol-Kelvin    Cal/Mol-Kelvin
 Total                  186.416             71.487            162.506
 Electronic               0.000              0.000              0.000
 Translational            0.889              2.981             42.974
 Rotational               0.889              2.981             35.500
 Vibrational            184.638             65.525             84.033
 Vibration     1          0.593              1.987              9.251
 Vibration     2          0.593              1.987              8.227
 Vibration     3          0.593              1.985              6.317
 Vibration     4          0.593              1.985              6.210
 Vibration     5          0.593              1.984              5.984
 Vibration     6          0.594              1.983              5.677
 Vibration     7          0.596              1.977              4.732
 Vibration     8          0.599              1.966              4.021
 Vibration     9          0.604              1.949              3.464
 Vibration    10          0.605              1.947              3.401
 Vibration    11          0.619              1.900              2.637
 Vibration    12          0.637              1.842              2.150
 Vibration    13          0.643              1.823              2.027
 Vibration    14          0.654              1.790              1.851
 Vibration    15          0.660              1.771              1.768
 Vibration    16          0.687              1.690              1.468
 Vibration    17          0.716              1.605              1.234
 Vibration    18          0.725              1.581              1.179
 Vibration    19          0.739              1.543              1.098
 Vibration    20          0.780              1.435              0.905
 Vibration    21          0.780              1.433              0.902
 Vibration    22          0.791              1.404              0.858
 Vibration    23          0.838              1.290              0.705
 Vibration    24          0.867              1.224              0.630
 Vibration    25          0.931              1.086              0.495
 Vibration    26          0.942              1.064              0.476
 Vibration    27          0.966              1.016              0.437

 Optimization completed on the basis of negligible forces.
    -- Stationary point found.
 Normal termination of Gaussian 16 at Sat Aug 22 21:35:27 2020.
 Gaussian 16:  ES64L-G16RevA.03 25-Dec-2016

 ----------------------------------------------------------------------
 # TD(NStates=10, Root=1) B3LYP/6-31G* scf=qc volume pop=NPA density=cu
 rrent Geom=AllCheck Guess=Read
 ----------------------------------------------------------------------

 Structure from the checkpoint file:  "azadicarboxylate_4_conf153.chk"
 -------------------
 Title Card Required
 -------------------
 Charge =  0 Multiplicity = 1

                         Standard orientation:
 ---------------------------------------------------------------------
 Center     Atomic      Atomic             Coordinates (Angstroms)
 Number     Number       Type             X           Y           Z
 ---------------------------------------------------------------------
      1          6           0        4.651532   -0.005455   -0.452271
      2          6           0        3.685083    1.061901   -0.877358
      3          8           0        2.420598    0.839489   -0.170685
      4          6           0        1.491969    1.771007   -0.369889
      5          8           0        1.571621    2.762197   -1.051444
      6          7           0        0.329679    1.521728    0.461183
      7          7           0       -0.375159    0.586588    0.037416
      8          6           0       -1.537931    0.333658    0.863962
      9          8           0       -1.567686   -0.593091    1.635339
     10          8           0       -2.512600    1.182442    0.551859
     11          6           0       -3.807546    0.957994    1.206716
     12          6           0       -4.681783    0.031896    0.404456
     13          6           0       -5.512708    0.542414   -0.600995
     14          6           0       -6.317697   -0.310386   -1.355643
     15          6           0       -6.299157   -1.684899   -1.109849
     16          6           0       -5.473581   -2.202269   -0.109507
     17          6           0       -4.667996   -1.348884    0.644531
     18          6           0        4.664711   -1.247766   -1.098520
     19          6           0        5.551314   -2.245582   -0.695532
     20          6           0        6.436498   -2.008833    0.358510
     21          6           0        6.431129   -0.772996    1.007923
     22          6           0        5.541771    0.222685    0.603652
     23          1           0        3.475176    1.027778   -1.949875
     24          1           0        4.038026    2.066105   -0.628645
     25          1           0       -4.232576    1.960943    1.269229
     26          1           0       -3.616960    0.573780    2.210041
     27          1           0       -5.528673    1.613136   -0.791546
     28          1           0       -6.960235    0.096907   -2.131502
     29          1           0       -6.928087   -2.350532   -1.695013
     30          1           0       -5.457547   -3.271172    0.085134
     31          1           0       -4.016678   -1.749037    1.416062
     32          1           0        3.975340   -1.432464   -1.918967
     33          1           0        5.553754   -3.205433   -1.204648
     34          1           0        7.130295   -2.784657    0.670909
     35          1           0        7.119670   -0.583857    1.826871
     36          1           0        5.537745    1.185079    1.110085
 ---------------------------------------------------------------------

 SCF Done:  E(RB3LYP) =  -1028.48168496     a.u. after    1 cycles

 Excitation energies and oscillator strengths:

 Excited State   1:      Singlet-A      2.9307 eV  423.05 nm  f=0.0001  <S**2>=0.000
      74 -> 79         0.27479
      78 -> 79         0.64255
 This state for optimization and/or second-order correction.
 Total Energy, E(TD-HF/TD-DFT) =  -1028.37398334
 Copying the excited state density for this state as the 1-particle RhoCI density.

 Excited State   2:      Singlet-A      4.2213 eV  293.71 nm  f=0.0044  <S**2>=0.000
      74 -> 79         0.14653
      76 -> 79         0.59294
      77 -> 79         0.32505
      78 -> 79        -0.12950

 Excited State   3:      Singlet-A      4.2573 eV  291.23 nm  f=0.0015  <S**2>=0.000
      76 -> 79        -0.33031
      77 -> 79         0.62380

 Excited State   4:      Singlet-A      4.3119 eV  287.54 nm  f=0.0051  <S**2>=0.000
      74 -> 79         0.57094
      75 -> 79        -0.26972
      76 -> 79        -0.17972
      78 -> 79        -0.24193

 Excited State   5:      Singlet-A      4.3278 eV  286.48 nm  f=0.0002  <S**2>=0.000
      74 -> 79         0.25505
      75 -> 79         0.65121

 Excited State   6:      Singlet-A      5.0585 eV  245.10 nm  f=0.1060  <S**2>=0.000
      72 -> 79        -0.11341
      73 -> 79         0.67795

 Excited State   7:      Singlet-A      5.1722 eV  239.71 nm  f=0.0012  <S**2>=0.000
      70 -> 79         0.12672
      71 -> 79         0.24768
      72 -> 79         0.61672
      73 -> 79         0.12428

 Excited State   8:      Singlet-A      5.3855 eV  230.22 nm  f=0.0022  <S**2>=0.000
      74 -> 83        -0.15816
      76 -> 83        -0.34397
      77 -> 80        -0.27603
      77 -> 81         0.43849
      78 -> 83         0.25059

 Excited State   9:      Singlet-A      5.3965 eV  229.75 nm  f=0.0187  <S**2>=0.000
      70 -> 79         0.12859
      71 -> 79         0.42537
      72 -> 79        -0.20805
      74 -> 82        -0.18357
      75 -> 80        -0.30606
      75 -> 81        -0.18926
      76 -> 82         0.17829
      78 -> 82         0.20108

 Excited State  10:      Singlet-A      5.4024 eV  229.50 nm  f=0.0091  <S**2>=0.000
      70 -> 79         0.10001
      71 -> 79         0.43586
      72 -> 79        -0.19731
      74 -> 82         0.19689
      75 -> 80         0.31497
      75 -> 81         0.19922
      76 -> 82        -0.18520
      78 -> 82        -0.18985

 The electronic state is 1-A.
 Alpha  occ. eigenvalues --  -19.21178 -19.21138 -19.15622 -19.15524 -14.42217
 Alpha  occ. eigenvalues --  -14.42153 -10.35188 -10.34997 -10.25926 -10.25870
 Alpha  occ. eigenvalues --  -10.20714 -10.20502 -10.20066 -10.20018 -10.19987
 Alpha  occ. eigenvalues --  -10.19900 -10.19872 -10.19855 -10.19814 -10.19704
 Alpha  occ. eigenvalues --  -10.19620 -10.19562  -1.13688  -1.12446  -1.05576
 Alpha  occ. eigenvalues --   -1.03842  -1.03447  -0.86570  -0.86301  -0.80993
 Alpha  occ. eigenvalues --   -0.78711  -0.76653  -0.75342  -0.75091  -0.71399
 Alpha  occ. eigenvalues --   -0.69498  -0.62207  -0.61555  -0.61363  -0.59939
 Alpha  occ. eigenvalues --   -0.58653  -0.56925  -0.55537  -0.52484  -0.52400
 Alpha  occ. eigenvalues --   -0.51234  -0.49771  -0.48937  -0.48312  -0.47466
 Alpha  occ. eigenvalues --   -0.46850  -0.46617  -0.45251  -0.44015  -0.43139
 Alpha  occ. eigenvalues --   -0.42941  -0.42853  -0.42311  -0.40875  -0.40811
 Alpha  occ. eigenvalues --   -0.39155  -0.38691  -0.37774  -0.36974  -0.36562
 Alpha  occ. eigenvalues --   -0.36100  -0.35175  -0.35068  -0.34593  -0.31922
 Alpha  occ. eigenvalues --   -0.31684  -0.31376  -0.30188  -0.26324  -0.25867
 Alpha  occ. eigenvalues --   -0.25735  -0.25653  -0.24612
 Alpha virt. eigenvalues --   -0.08204  -0.02007  -0.01915  -0.00952  -0.00717
 Alpha virt. eigenvalues --    0.00885   0.01124   0.08321   0.08979   0.10802
 Alpha virt. eigenvalues --    0.11257   0.12286   0.12494   0.12590   0.13139

 Mulliken charges:
               1
     1  C    0.145892
     2  C   -0.141753
     3  O   -0.410959
     4  C    0.741445
     5  O   -0.423626
     6  N   -0.245499
     7  N   -0.240068
     8  C    0.735267
     9  O   -0.417647
    10  O   -0.407298
    11  C   -0.155905
    12  C    0.149663
    13  C   -0.166956
    14  C   -0.128694
    15  C   -0.123385
    16  C   -0.129719
    17  C   -0.175345
    18  C   -0.160397
    19  C   -0.128869
    20  C   -0.122859
    21  C   -0.128875
    22  C   -0.164924
    23  H    0.173276
    24  H    0.175215
    25  H    0.170571
    26  H    0.184263
    27  H    0.136357
    28  H    0.136671
    29  H    0.136439
    30  H    0.138316
    31  H    0.160597
    32  H    0.138820
    33  H    0.138048
    34  H    0.137348
    35  H    0.137711
    36  H    0.136876
 Sum of Mulliken charges =  -0.00000

 Dipole moment (field-independent basis, Debye):
    X=             -0.0250    Y=             -1.4230    Z=             -0.3433  Tot=              1.4641
 Quadrupole moment (field-independent basis, Debye-Ang):
   XX=            -86.6237   YY=           -122.8359   ZZ=           -122.2068
   XY=             -4.2869   XZ=              4.0546   YZ=              7.0724

 Summary of Natural Population Analysis:

                                       Natural Population
                Natural  -----------------------------------------------
    Atom  No    Charge         Core      Valence    Rydberg      Total
 -----------------------------------------------------------------------
      C    1   -0.08150      1.99901     4.06720    0.01529     6.08150
      C    2   -0.12341      1.99914     4.10627    0.01800     6.12341
      O    3   -0.52397      1.99972     6.51195    0.01230     8.52397
      C    4    0.91627      1.99951     3.03404    0.05018     5.08373
      O    5   -0.54875      1.99978     6.52828    0.02069     8.54875
      N    6   -0.21876      1.99939     5.19303    0.02634     7.21876
      N    7   -0.21826      1.99938     5.19264    0.02623     7.21826
      C    8    0.92294      1.99950     3.02697    0.05058     5.07706
      O    9   -0.55283      1.99977     6.53242    0.02064     8.55283
      O   10   -0.52111      1.99973     6.50904    0.01234     8.52111
      C   11   -0.12514      1.99912     4.10701    0.01901     6.12514
      C   12   -0.09152      1.99901     4.07798    0.01454     6.09152
      C   13   -0.21110      1.99903     4.19888    0.01319     6.21110
      C   14   -0.23037      1.99910     4.21744    0.01384     6.23037
      C   15   -0.22162      1.99910     4.20905    0.01347     6.22162
      C   16   -0.22943      1.99910     4.21647    0.01385     6.22943
      C   17   -0.21144      1.99903     4.19901    0.01339     6.21144
      C   18   -0.20755      1.99903     4.19538    0.01314     6.20755
      C   19   -0.22857      1.99910     4.21565    0.01382     6.22857
      C   20   -0.22130      1.99910     4.20873    0.01347     6.22130
      C   21   -0.22904      1.99910     4.21611    0.01383     6.22904
      C   22   -0.20928      1.99903     4.19717    0.01308     6.20928
      H   23    0.23714      0.00000     0.76107    0.00179     0.76286
      H   24    0.23758      0.00000     0.76051    0.00192     0.76242
      H   25    0.24171      0.00000     0.75710    0.00119     0.75829
      H   26    0.24267      0.00000     0.75518    0.00215     0.75733
      H   27    0.23775      0.00000     0.76119    0.00106     0.76225
      H   28    0.23989      0.00000     0.75926    0.00084     0.76011
      H   29    0.23897      0.00000     0.76021    0.00082     0.76103
      H   30    0.24068      0.00000     0.75849    0.00083     0.75932
      H   31    0.25149      0.00000     0.74710    0.00141     0.74851
      H   32    0.23921      0.00000     0.75975    0.00104     0.76079
      H   33    0.24056      0.00000     0.75861    0.00084     0.75944
      H   34    0.23955      0.00000     0.75963    0.00082     0.76045
      H   35    0.24042      0.00000     0.75875    0.00084     0.75958
      H   36    0.23809      0.00000     0.76089    0.00102     0.76191
 =======================================================================
   * Total *    0.00000     43.98377   111.57844    0.43779   156.00000

 Normal termination of Gaussian 16 at Sat Aug 22 21:45:24 2020.
