 Gaussian 16, Revision A.03,

 ---------------------------------
 # opt=CalcAll B3LYP/6-31G* scf=qc
 ---------------------------------

 -------------------
 Title Card Required
 -------------------
 Symbolic Z-matrix:
 Charge =  0 Multiplicity = 1

 SCF Done:  E(RB3LYP) =  -723.616680421     a.u. after   10 cycles
 SCF Done:  E(RB3LYP) =  -723.644237410     a.u. after   25 cycles
 SCF Done:  E(RB3LYP) =  -723.646013805     a.u. after   22 cycles
 SCF Done:  E(RB3LYP) =  -723.648671551     a.u. after   13 cycles
 SCF Done:  E(RB3LYP) =  -723.649143176     a.u. after   15 cycles
 SCF Done:  E(RB3LYP) =  -723.649210391     a.u. after   15 cycles
 SCF Done:  E(RB3LYP) =  -723.649287204     a.u. after   19 cycles
 SCF Done:  E(RB3LYP) =  -723.649197224     a.u. after   17 cycles
 SCF Done:  E(RB3LYP) =  -723.649113730     a.u. after   12 cycles
 SCF Done:  E(RB3LYP) =  -723.649369697     a.u. after    9 cycles
 SCF Done:  E(RB3LYP) =  -723.649371938     a.u. after    5 cycles
 SCF Done:  E(RB3LYP) =  -723.649371955     a.u. after    2 cycles
 Optimization completed.
    -- Stationary point found.
 Normal termination of Gaussian 16 at Sat Aug 22 14:01:08 2020.

 ----------------------------------------------------------------------
 # freq B3LYP/6-31G* scf=qc volume NMR pop=NPA density=current Geom=All
 Check Guess=Read
 ----------------------------------------------------------------------

 Structure from the checkpoint file:  "azadicarboxylate_2_conf132.chk"
 -------------------
 Title Card Required
 -------------------
 Charge =  0 Multiplicity = 1

 SCF Done:  E(RB3LYP) =  -723.649371955     a.u. after    1 cycles

      1  C    Isotropic =   169.0173   Anisotropy =    30.5602

      2  C    Isotropic =   118.5380   Anisotropy =    64.7621

      3  C    Isotropic =   168.2791   Anisotropy =    30.3497

      4  O    Isotropic =   134.3801   Anisotropy =   116.3404

      5  C    Isotropic =    34.8084   Anisotropy =    78.2812

      6  O    Isotropic =   -19.5838   Anisotropy =   496.7596

      7  N    Isotropic =  -319.1321   Anisotropy =   668.8289

      8  N    Isotropic =  -321.7569   Anisotropy =   671.2493

      9  C    Isotropic =    35.3264   Anisotropy =    79.1963

     10  O    Isotropic =   -27.2005   Anisotropy =   484.0303

     11  O    Isotropic =   138.4097   Anisotropy =   143.0807

     12  C    Isotropic =   113.3734   Anisotropy =    72.2720

     13  C    Isotropic =   170.6360   Anisotropy =    27.5262

     14  C    Isotropic =   169.6166   Anisotropy =    27.7814

     15  H    Isotropic =    31.1412   Anisotropy =     8.6001

     16  H    Isotropic =    30.9769   Anisotropy =     6.6318

     17  H    Isotropic =    30.1997   Anisotropy =     7.3532

     18  H    Isotropic =    26.9538   Anisotropy =     2.5225

     19  H    Isotropic =    30.7917   Anisotropy =     6.4950

     20  H    Isotropic =    31.1356   Anisotropy =     8.4711

     21  H    Isotropic =    30.7469   Anisotropy =     8.6918

     22  H    Isotropic =    27.6279   Anisotropy =     4.5126

     23  H    Isotropic =    29.6216   Anisotropy =     5.5577

     24  H    Isotropic =    30.6333   Anisotropy =     8.1791

     25  H    Isotropic =    31.1577   Anisotropy =     8.3775

     26  H    Isotropic =    29.7712   Anisotropy =     5.2622

     27  H    Isotropic =    31.1997   Anisotropy =     8.5140

     28  H    Isotropic =    30.6864   Anisotropy =     8.1294

  Exact polarizability: 154.145  -3.459  98.029  -0.356  -2.462  86.134
 Approx polarizability: 169.475 -11.709 159.089   1.729 -15.840 129.954

                      1                      2                      3
                      A                      A                      A
 Frequencies --     10.8436                36.8567                49.7179
 Red. masses --      4.2641                 3.2223                 4.9653
 Frc consts  --      0.0003                 0.0026                 0.0072
 IR Inten    --      2.6568                 0.9572                 1.8867

                      4                      5                      6
                      A                      A                      A
 Frequencies --     55.8096                59.0298                82.0362
 Red. masses --      4.5720                 6.1220                 4.9669
 Frc consts  --      0.0084                 0.0126                 0.0197
 IR Inten    --      0.7150                 0.4082                 0.5432

                      7                      8                      9
                      A                      A                      A
 Frequencies --    111.0352               188.0684               199.2510
 Red. masses --      3.5240                 3.9708                 4.9989
 Frc consts  --      0.0256                 0.0827                 0.1169
 IR Inten    --      0.2867                 0.7189                 3.0381

                     10                     11                     12
                      A                      A                      A
 Frequencies --    203.7212               221.8830               227.1318
 Red. masses --      5.6764                 1.1713                 2.9197
 Frc consts  --      0.1388                 0.0340                 0.0887
 IR Inten    --      2.0528                 1.6637                15.6405

                     13                     14                     15
                      A                      A                      A
 Frequencies --    231.6148               250.3101               264.6529
 Red. masses --      1.0980                 1.0575                 1.2967
 Frc consts  --      0.0347                 0.0390                 0.0535
 IR Inten    --      0.2350                 0.0217                 4.0078

                     16                     17                     18
                      A                      A                      A
 Frequencies --    330.8980               344.3386               413.1805
 Red. masses --      2.6698                 2.9431                 3.2618
 Frc consts  --      0.1722                 0.2056                 0.3281
 IR Inten    --      0.0641                 2.8312                 4.0189

                     19                     20                     21
                      A                      A                      A
 Frequencies --    421.8780               432.9712               455.1311
 Red. masses --      3.7737                 5.8860                 2.8481
 Frc consts  --      0.3957                 0.6501                 0.3476
 IR Inten    --      9.4555                 0.5230                 1.4210

                     22                     23                     24
                      A                      A                      A
 Frequencies --    484.8897               569.4173               609.6489
 Red. masses --      2.8339                 4.9479                 7.6927
 Frc consts  --      0.3926                 0.9452                 1.6846
 IR Inten    --      7.4474                 7.4615                 3.1267

                     25                     26                     27
                      A                      A                      A
 Frequencies --    661.4932               795.0114               815.5443
 Red. masses --      7.6053                 4.5583                12.0825
 Frc consts  --      1.9607                 1.6975                 4.7348
 IR Inten    --     12.8452                 9.4535                32.7641

                     28                     29                     30
                      A                      A                      A
 Frequencies --    833.2250               860.6460               909.7916
 Red. masses --      3.7074                 6.2417                 3.4477
 Frc consts  --      1.5165                 2.7239                 1.6814
 IR Inten    --     20.4631                 2.6904                57.3244

                     31                     32                     33
                      A                      A                      A
 Frequencies --    916.7146               950.3713               950.9552
 Red. masses --      3.0106                 1.2825                 1.2519
 Frc consts  --      1.4906                 0.6825                 0.6670
 IR Inten    --      3.1081                 1.3634                 0.6380

                     34                     35                     36
                      A                      A                      A
 Frequencies --    957.4810               962.0929               972.9181
 Red. masses --      1.3107                 1.3852                 4.7012
 Frc consts  --      0.7080                 0.7554                 2.6219
 IR Inten    --      0.4958                 4.9306                16.5943

                     37                     38                     39
                      A                      A                      A
 Frequencies --   1000.6306              1144.0686              1168.1627
 Red. masses --      8.5186                 1.8274                 1.9220
 Frc consts  --      5.0254                 1.4093                 1.5453
 IR Inten    --      6.7684               241.2742               114.3691

                     40                     41                     42
                      A                      A                      A
 Frequencies --   1171.9654              1175.4142              1218.3591
 Red. masses --      2.1506                 2.0366                 1.9564
 Frc consts  --      1.7404                 1.6578                 1.7110
 IR Inten    --     13.3987                 9.5303                40.9727

                     43                     44                     45
                      A                      A                      A
 Frequencies --   1219.1626              1261.4136              1280.1719
 Red. masses --      1.9299                 5.3316                 6.5455
 Frc consts  --      1.6901                 4.9983                 6.3202
 IR Inten    --      4.9391              1092.2264               176.0315

                     46                     47                     48
                      A                      A                      A
 Frequencies --   1384.8231              1391.6362              1397.6760
 Red. masses --      1.4080                 1.3203                 1.2536
 Frc consts  --      1.5909                 1.5065                 1.4429
 IR Inten    --     11.4334                 3.1542                 4.8820

                     49                     50                     51
                      A                      A                      A
 Frequencies --   1420.5416              1430.6029              1433.9722
 Red. masses --      1.3031                 1.3279                 1.3432
 Frc consts  --      1.5493                 1.6012                 1.6273
 IR Inten    --     22.0164                18.5726                19.3865

                     52                     53                     54
                      A                      A                      A
 Frequencies --   1444.8482              1448.8535              1511.3322
 Red. masses --      1.2415                 1.2569                 1.0483
 Frc consts  --      1.5270                 1.5545                 1.4107
 IR Inten    --     17.7638                 6.6464                 0.1356

                     55                     56                     57
                      A                      A                      A
 Frequencies --   1511.8446              1516.5201              1522.3402
 Red. masses --      1.0540                 1.0443                 1.0469
 Frc consts  --      1.4194                 1.4150                 1.4295
 IR Inten    --      1.8331                 1.2105                17.2217

                     58                     59                     60
                      A                      A                      A
 Frequencies --   1525.6390              1526.7091              1539.7966
 Red. masses --      1.0505                 1.0484                 1.0495
 Frc consts  --      1.4406                 1.4397                 1.4661
 IR Inten    --      3.8513                 0.0618                 9.7172

                     61                     62                     63
                      A                      A                      A
 Frequencies --   1546.7083              1651.0602              1832.9851
 Red. masses --      1.0539                13.9730                12.3474
 Frc consts  --      1.4855                22.4422                24.4424
 IR Inten    --      7.3235                 0.0500                 0.2900

                     64                     65                     66
                      A                      A                      A
 Frequencies --   1847.1483              3058.5197              3062.5010
 Red. masses --     12.3392                 1.0354                 1.0373
 Frc consts  --     24.8050                 5.7066                 5.7321
 IR Inten    --    542.7632                10.6459                15.8039

                     67                     68                     69
                      A                      A                      A
 Frequencies --   3063.0891              3066.6459              3097.2424
 Red. masses --      1.0359                 1.0381                 1.0868
 Frc consts  --      5.7263                 5.7519                 6.1424
 IR Inten    --     15.5062                11.1064                18.7118

                     70                     71                     72
                      A                      A                      A
 Frequencies --   3102.1863              3126.7868              3127.5347
 Red. masses --      1.0879                 1.1029                 1.1016
 Frc consts  --      6.1685                 6.3529                 6.3485
 IR Inten    --      1.2679                 2.1431                11.9437

                     73                     74                     75
                      A                      A                      A
 Frequencies --   3130.3534              3136.5122              3141.2885
 Red. masses --      1.1019                 1.1014                 1.1028
 Frc consts  --      6.3620                 6.3840                 6.4117
 IR Inten    --     32.0084                41.0264                19.3659

                     76                     77                     78
                      A                      A                      A
 Frequencies --   3146.8177              3161.5861              3166.3282
 Red. masses --      1.1027                 1.1022                 1.1011
 Frc consts  --      6.4338                 6.4914                 6.5041
 IR Inten    --     17.9764                 1.9513                20.6289

 - Thermochemistry -
 -------------------
 Temperature   298.150 Kelvin.  Pressure   1.00000 Atm.
 Atom     1 has atomic number  6 and mass  12.00000

 Molecular mass:   202.09536 amu.
 Principal axes and moments of inertia in atomic units:
                           1         2         3
     Eigenvalues --   942.349167414.645247723.10222
           X            0.99997   0.00742  -0.00179
           Y           -0.00723   0.99574   0.09196
           Z            0.00246  -0.09194   0.99576
 This molecule is an asymmetric top.
 Rotational symmetry number  1.
 Warning -- assumption of classical behavior for rotation
           may cause significant error
 Rotational temperatures (Kelvin)      0.09191     0.01168     0.01121
 Rotational constants (GHZ):           1.91515     0.24340     0.23368
 Zero-point vibrational energy     597847.7 (Joules/Mol)
                                  142.88904 (Kcal/Mol)
 Warning -- explicit consideration of  24 degrees of freedom as
           vibrations may cause significant error
 Vibrational temperatures:     15.60    53.03    71.53    80.30    84.93
          (Kelvin)            118.03   159.75   270.59   286.68   293.11
                              319.24   326.79   333.24   360.14   380.78
                              476.09   495.43   594.47   606.99   622.95
                              654.83   697.65   819.26   877.15   951.74
                             1143.84  1173.39  1198.82  1238.28  1308.99
                             1318.95  1367.37  1368.21  1377.60  1384.24
                             1399.81  1439.68  1646.06  1680.73  1686.20
                             1691.16  1752.95  1754.10  1814.89  1841.88
                             1992.45  2002.25  2010.94  2043.84  2058.32
                             2063.17  2078.81  2084.58  2174.47  2175.21
                             2181.93  2190.31  2195.05  2196.59  2215.42
                             2225.37  2375.51  2637.26  2657.63  4400.53
                             4406.26  4407.10  4412.22  4456.24  4463.35
                             4498.75  4499.82  4503.88  4512.74  4519.61
                             4527.57  4548.82  4555.64

 Zero-point correction=                           0.227708 (Hartree/Particle)
 Thermal correction to Energy=                    0.243930
 Thermal correction to Enthalpy=                  0.244875
 Thermal correction to Gibbs Free Energy=         0.181159
 Sum of electronic and zero-point Energies=           -723.421664
 Sum of electronic and thermal Energies=              -723.405441
 Sum of electronic and thermal Enthalpies=            -723.404497
 Sum of electronic and thermal Free Energies=         -723.468213

                     E (Thermal)             CV                S
                      KCal/Mol        Cal/Mol-Kelvin    Cal/Mol-Kelvin
 Total                  153.069             56.265            134.101
 Electronic               0.000              0.000              0.000
 Translational            0.889              2.981             41.815
 Rotational               0.889              2.981             32.356
 Vibrational            151.291             50.303             59.929
 Vibration     1          0.593              1.987              7.850
 Vibration     2          0.594              1.982              5.421
 Vibration     3          0.595              1.978              4.829
 Vibration     4          0.596              1.975              4.600
 Vibration     5          0.596              1.974              4.489
 Vibration     6          0.600              1.961              3.842
 Vibration     7          0.607              1.940              3.251
 Vibration     8          0.633              1.856              2.247
 Vibration     9          0.637              1.841              2.140
 Vibration    10          0.639              1.835              2.099
 Vibration    11          0.648              1.808              1.944
 Vibration    12          0.651              1.800              1.902
 Vibration    13          0.653              1.793              1.866
 Vibration    14          0.663              1.762              1.728
 Vibration    15          0.671              1.738              1.631
 Vibration    16          0.713              1.614              1.256
 Vibration    17          0.723              1.587              1.192
 Vibration    18          0.777              1.442              0.915
 Vibration    19          0.784              1.423              0.886
 Vibration    20          0.794              1.398              0.849
 Vibration    21          0.813              1.350              0.780
 Vibration    22          0.841              1.284              0.697
 Vibration    23          0.925              1.097              0.505
 Vibration    24          0.969              1.011              0.433

 Optimization completed.
    -- Stationary point found.
 Normal termination of Gaussian 16 at Sat Aug 22 14:05:08 2020.
 Gaussian 16:  ES64L-G16RevA.03 25-Dec-2016

 ----------------------------------------------------------------------
 # TD(NStates=10, Root=1) B3LYP/6-31G* scf=qc volume pop=NPA density=cu
 rrent Geom=AllCheck Guess=Read
 ----------------------------------------------------------------------

 Structure from the checkpoint file:  "azadicarboxylate_2_conf133.chk"
 -------------------
 Title Card Required
 -------------------
 Charge =  0 Multiplicity = 1

                         Standard orientation:
 ---------------------------------------------------------------------
 Center     Atomic      Atomic             Coordinates (Angstroms)
 Number     Number       Type             X           Y           Z
 ---------------------------------------------------------------------
      1          6           0        4.543689   -0.689026   -0.890935
      2          6           0        3.871024    0.185740    0.159574
      3          6           0        4.375366    1.620066    0.186809
      4          8           0        2.434804    0.278978   -0.141754
      5          6           0        1.663920   -0.714799    0.288228
      6          8           0        1.984613   -1.698831    0.907726
      7          7           0        0.306662   -0.542791   -0.193015
      8          7           0       -0.338805    0.294749    0.464899
      9          6           0       -1.696241    0.470396   -0.021399
     10          8           0       -1.994522    1.446745   -0.664503
     11          8           0       -2.466845   -0.506040    0.439712
     12          6           0       -3.918964   -0.481674    0.184023
     13          6           0       -4.575802    0.719318    0.856290
     14          6           0       -4.213659   -0.616327   -1.306086
     15          1           0        5.618611   -0.752466   -0.688453
     16          1           0        4.405199   -0.265863   -1.891752
     17          1           0        4.133568   -1.702615   -0.872590
     18          1           0        3.959591   -0.277184    1.146167
     19          1           0        4.244871    2.096688   -0.790553
     20          1           0        5.441227    1.633253    0.438578
     21          1           0        3.835165    2.208769    0.934262
     22          1           0       -4.229014   -1.396230    0.696979
     23          1           0       -4.293674    1.653978    0.366898
     24          1           0       -4.294149    0.770701    1.913048
     25          1           0       -5.664690    0.609928    0.800428
     26          1           0       -3.925522    0.284932   -1.851516
     27          1           0       -5.287684   -0.782804   -1.446143
     28          1           0       -3.678887   -1.473783   -1.727005
 ---------------------------------------------------------------------

 SCF Done:  E(RB3LYP) =  -723.649371955     a.u. after    1 cycles

 Excitation energies and oscillator strengths:

 Excited State   1:      Singlet-A      2.9530 eV  419.85 nm  f=0.0000  <S**2>=0.000
      54 -> 55         0.70060
 This state for optimization and/or second-order correction.
 Total Energy, E(TD-HF/TD-DFT) =  -723.540850219
 Copying the excited state density for this state as the 1-particle RhoCI density.

 Excited State   2:      Singlet-A      4.9885 eV  248.54 nm  f=0.0751  <S**2>=0.000
      53 -> 55         0.68735

 Excited State   3:      Singlet-A      5.1518 eV  240.66 nm  f=0.0041  <S**2>=0.000
      50 -> 55        -0.10450
      51 -> 55        -0.20144
      52 -> 55         0.64698
      53 -> 55         0.10019

 Excited State   4:      Singlet-A      5.3849 eV  230.24 nm  f=0.0158  <S**2>=0.000
      50 -> 55         0.17273
      51 -> 55         0.64140
      52 -> 55         0.22653

 Excited State   5:      Singlet-A      5.4185 eV  228.82 nm  f=0.0038  <S**2>=0.000
      50 -> 55         0.67251
      51 -> 55        -0.19811

 Excited State   6:      Singlet-A      5.6446 eV  219.65 nm  f=0.0053  <S**2>=0.000
      53 -> 56         0.16156
      54 -> 56         0.65527
      54 -> 57         0.14484

 Excited State   7:      Singlet-A      5.7304 eV  216.36 nm  f=0.0111  <S**2>=0.000
      53 -> 57        -0.13643
      54 -> 56        -0.14350
      54 -> 57         0.65908

 Excited State   8:      Singlet-A      6.4911 eV  191.01 nm  f=0.0003  <S**2>=0.000
      48 -> 55         0.18526
      49 -> 55         0.66514

 Excited State   9:      Singlet-A      6.5961 eV  187.97 nm  f=0.0003  <S**2>=0.000
      45 -> 55         0.18475
      48 -> 55         0.63526
      49 -> 55        -0.18873

 Excited State  10:      Singlet-A      6.7025 eV  184.98 nm  f=0.0129  <S**2>=0.000
      52 -> 56        -0.22737
      52 -> 57        -0.15632
      53 -> 56         0.57612
      53 -> 57         0.13272
      54 -> 56        -0.16915
      54 -> 57        -0.10333

 The electronic state is 1-A.
 Alpha  occ. eigenvalues --  -19.20771 -19.20710 -19.15319 -19.15273 -14.41920
 Alpha  occ. eigenvalues --  -14.41866 -10.35021 -10.34879 -10.26491 -10.26078
 Alpha  occ. eigenvalues --  -10.19027 -10.18883 -10.18827 -10.18750  -1.13362
 Alpha  occ. eigenvalues --   -1.12084  -1.05259  -1.03662  -1.03222  -0.82214
 Alpha  occ. eigenvalues --   -0.80498  -0.76390  -0.70485  -0.70392  -0.66494
 Alpha  occ. eigenvalues --   -0.63256  -0.57871  -0.56251  -0.52257  -0.50830
 Alpha  occ. eigenvalues --   -0.49980  -0.48482  -0.47597  -0.46572  -0.46403
 Alpha  occ. eigenvalues --   -0.44291  -0.43058  -0.41880  -0.41436  -0.41312
 Alpha  occ. eigenvalues --   -0.40341  -0.39602  -0.39215  -0.38197  -0.37400
 Alpha  occ. eigenvalues --   -0.36909  -0.36474  -0.35354  -0.34794  -0.31456
 Alpha  occ. eigenvalues --   -0.31349  -0.30980  -0.29586  -0.24699
 Alpha virt. eigenvalues --   -0.07867   0.00789   0.01110   0.08676   0.08860
 Alpha virt. eigenvalues --    0.10471   0.10782   0.13325   0.13808   0.14536
 Alpha virt. eigenvalues --    0.14812   0.15686   0.16574   0.16989   0.17339

 Mulliken charges:
               1
     1  C   -0.460019
     2  C    0.117089
     3  C   -0.454169
     4  O   -0.423032
     5  C    0.734672
     6  O   -0.420938
     7  N   -0.244257
     8  N   -0.238100
     9  C    0.735521
    10  O   -0.419355
    11  O   -0.430650
    12  C    0.130024
    13  C   -0.472043
    14  C   -0.470695
    15  H    0.155041
    16  H    0.160763
    17  H    0.176225
    18  H    0.168307
    19  H    0.163964
    20  H    0.154028
    21  H    0.167254
    22  H    0.159368
    23  H    0.187306
    24  H    0.163785
    25  H    0.154885
    26  H    0.187080
    27  H    0.152906
    28  H    0.165041
 Sum of Mulliken charges =  -0.00000

 Dipole moment (field-independent basis, Debye):
    X=             -0.2266    Y=              0.2136    Z=             -0.1671  Tot=              0.3534
 Quadrupole moment (field-independent basis, Debye-Ang):
   XX=            -51.9339   YY=            -88.4201   ZZ=            -82.8081
   XY=              7.0604   XZ=             -2.4783   YZ=              4.9184

 Summary of Natural Population Analysis:

                                       Natural Population
                Natural  -----------------------------------------------
    Atom  No    Charge         Core      Valence    Rydberg      Total
 -----------------------------------------------------------------------
      C    1   -0.70450      1.99939     4.69658    0.00853     6.70450
      C    2    0.08284      1.99912     3.90061    0.01743     5.91716
      C    3   -0.69629      1.99939     4.68782    0.00908     6.69629
      O    4   -0.53682      1.99971     6.52434    0.01276     8.53682
      C    5    0.92003      1.99950     3.02944    0.05103     5.07997
      O    6   -0.55059      1.99977     6.53023    0.02059     8.55059
      N    7   -0.22034      1.99938     5.19469    0.02627     7.22034
      N    8   -0.21769      1.99939     5.19184    0.02646     7.21769
      C    9    0.91859      1.99951     3.02957    0.05233     5.08141
      O   10   -0.55066      1.99977     6.53048    0.02041     8.55066
      O   11   -0.53082      1.99972     6.51906    0.01205     8.53082
      C   12    0.08539      1.99912     3.89724    0.01826     5.91461
      C   13   -0.71053      1.99939     4.70303    0.00811     6.71053
      C   14   -0.70946      1.99939     4.70209    0.00797     6.70946
      H   15    0.24183      0.00000     0.75744    0.00073     0.75817
      H   16    0.23700      0.00000     0.76163    0.00136     0.76300
      H   17    0.24998      0.00000     0.74889    0.00113     0.75002
      H   18    0.24379      0.00000     0.75353    0.00268     0.75621
      H   19    0.23941      0.00000     0.75931    0.00128     0.76059
      H   20    0.24059      0.00000     0.75875    0.00067     0.75941
      H   21    0.24670      0.00000     0.75234    0.00097     0.75330
      H   22    0.24669      0.00000     0.75164    0.00167     0.75331
      H   23    0.25186      0.00000     0.74667    0.00147     0.74814
      H   24    0.24339      0.00000     0.75556    0.00105     0.75661
      H   25    0.24259      0.00000     0.75668    0.00072     0.75741
      H   26    0.25199      0.00000     0.74664    0.00136     0.74801
      H   27    0.24089      0.00000     0.75837    0.00074     0.75911
      H   28    0.24415      0.00000     0.75479    0.00106     0.75585
 =======================================================================
   * Total *    0.00000     27.99257    79.69926    0.30818   108.00000

 Normal termination of Gaussian 16 at Sat Aug 22 14:09:50 2020.
