 Gaussian 16, Revision A.03,

 ---------------------------------
 # opt=CalcAll B3LYP/6-31G* scf=qc
 ---------------------------------

 -------------------
 Title Card Required
 -------------------
 Symbolic Z-matrix:
 Charge =  0 Multiplicity = 1

 SCF Done:  E(RB3LYP) =  -723.618849985     a.u. after   10 cycles
 SCF Done:  E(RB3LYP) =  -723.643859832     a.u. after   21 cycles
 SCF Done:  E(RB3LYP) =  -723.650900006     a.u. after   23 cycles
 SCF Done:  E(RB3LYP) =  -723.651913838     a.u. after   15 cycles
 SCF Done:  E(RB3LYP) =  -723.652079656     a.u. after    9 cycles
 SCF Done:  E(RB3LYP) =  -723.651287809     a.u. after   19 cycles
 SCF Done:  E(RB3LYP) =  -723.652077140     a.u. after   19 cycles
 SCF Done:  E(RB3LYP) =  -723.652083908     a.u. after    9 cycles
 SCF Done:  E(RB3LYP) =  -723.652088058     a.u. after    7 cycles
 SCF Done:  E(RB3LYP) =  -723.652088045     a.u. after    4 cycles
 SCF Done:  E(RB3LYP) =  -723.652088145     a.u. after    4 cycles
 Optimization completed on the basis of negligible forces.
    -- Stationary point found.
 Normal termination of Gaussian 16 at Sat Aug 22 14:14:20 2020.

 ----------------------------------------------------------------------
 # freq B3LYP/6-31G* scf=qc volume NMR pop=NPA density=current Geom=All
 Check Guess=Read
 ----------------------------------------------------------------------

 Structure from the checkpoint file:  "azadicarboxylate_2_conf102.chk"
 -------------------
 Title Card Required
 -------------------
 Charge =  0 Multiplicity = 1

 SCF Done:  E(RB3LYP) =  -723.652088145     a.u. after    1 cycles

      1  C    Isotropic =   168.9803   Anisotropy =    30.6093

      2  C    Isotropic =   118.5483   Anisotropy =    64.8752

      3  C    Isotropic =   168.2443   Anisotropy =    30.2622

      4  O    Isotropic =   135.4903   Anisotropy =   116.8914

      5  C    Isotropic =    34.9874   Anisotropy =    78.0537

      6  O    Isotropic =   -19.9798   Anisotropy =   493.5301

      7  N    Isotropic =  -324.0529   Anisotropy =   675.5483

      8  N    Isotropic =  -324.0704   Anisotropy =   675.5577

      9  C    Isotropic =    34.9852   Anisotropy =    78.0200

     10  O    Isotropic =   -19.9775   Anisotropy =   493.4830

     11  O    Isotropic =   135.4890   Anisotropy =   116.9206

     12  C    Isotropic =   118.5483   Anisotropy =    64.8742

     13  C    Isotropic =   168.9797   Anisotropy =    30.6100

     14  C    Isotropic =   168.2443   Anisotropy =    30.2621

     15  H    Isotropic =    31.1271   Anisotropy =     8.6437

     16  H    Isotropic =    30.9793   Anisotropy =     6.5804

     17  H    Isotropic =    30.1784   Anisotropy =     7.3712

     18  H    Isotropic =    26.9316   Anisotropy =     2.7076

     19  H    Isotropic =    30.8081   Anisotropy =     6.3888

     20  H    Isotropic =    31.1161   Anisotropy =     8.4842

     21  H    Isotropic =    30.7580   Anisotropy =     8.6100

     22  H    Isotropic =    26.9316   Anisotropy =     2.7079

     23  H    Isotropic =    30.9792   Anisotropy =     6.5805

     24  H    Isotropic =    30.1784   Anisotropy =     7.3710

     25  H    Isotropic =    31.1271   Anisotropy =     8.6437

     26  H    Isotropic =    30.8080   Anisotropy =     6.3889

     27  H    Isotropic =    31.1161   Anisotropy =     8.4841

     28  H    Isotropic =    30.7580   Anisotropy =     8.6100

  Exact polarizability: 148.839   0.003 102.423  -3.601  -0.001  86.773
 Approx polarizability: 173.510   0.008 158.751  -7.311  -0.005 124.817

                      1                      2                      3
                      A                      A                      A
 Frequencies --      7.3787                33.7278                43.5074
 Red. masses --      4.1053                 4.9631                 4.4585
 Frc consts  --      0.0001                 0.0033                 0.0050
 IR Inten    --      0.0062                 0.8540                 0.8613

                      4                      5                      6
                      A                      A                      A
 Frequencies --     44.7423                57.3172                77.7844
 Red. masses --      3.7509                 3.9658                 5.5840
 Frc consts  --      0.0044                 0.0077                 0.0199
 IR Inten    --      0.9158                 0.0248                 1.0393

                      7                      8                      9
                      A                      A                      A
 Frequencies --     86.4640               186.5295               202.7368
 Red. masses --      4.4040                 3.6965                 3.6948
 Frc consts  --      0.0194                 0.0758                 0.0895
 IR Inten    --      0.0004                 3.1149                 1.6672

                     10                     11                     12
                      A                      A                      A
 Frequencies --    205.9645               221.4731               222.9227
 Red. masses --      6.0419                 1.2953                 1.0337
 Frc consts  --      0.1510                 0.0374                 0.0303
 IR Inten    --      2.5762                 0.3739                 0.0738

                     13                     14                     15
                      A                      A                      A
 Frequencies --    226.7425               263.7799               267.0336
 Red. masses --      1.9717                 1.2094                 1.4194
 Frc consts  --      0.0597                 0.0496                 0.0596
 IR Inten    --      2.0795                 1.4577                 1.9155

                     16                     17                     18
                      A                      A                      A
 Frequencies --    310.0206               344.7087               415.1763
 Red. masses --      3.0660                 2.6253                 3.6615
 Frc consts  --      0.1736                 0.1838                 0.3719
 IR Inten    --      9.0922                 0.5586                11.4149

                     19                     20                     21
                      A                      A                      A
 Frequencies --    421.8740               426.6556               465.6768
 Red. masses --      3.1795                 3.9819                 2.8650
 Frc consts  --      0.3334                 0.4271                 0.3660
 IR Inten    --      3.2508                24.3814                 0.2824

                     22                     23                     24
                      A                      A                      A
 Frequencies --    482.6455               591.0437               602.6849
 Red. masses --      2.7665                 6.9600                 8.9350
 Frc consts  --      0.3797                 1.4325                 1.9122
 IR Inten    --      1.1266                 1.7257                 0.2275

                     25                     26                     27
                      A                      A                      A
 Frequencies --    621.8379               814.3897               830.4884
 Red. masses --      8.6886                11.0222                 3.3141
 Frc consts  --      1.9795                 4.3071                 1.3467
 IR Inten    --     11.9515                27.5198                32.0093

                     28                     29                     30
                      A                      A                      A
 Frequencies --    835.8659               863.9771               905.0180
 Red. masses --      3.8101                 6.4263                 3.2584
 Frc consts  --      1.5684                 2.8263                 1.5724
 IR Inten    --      0.0463                 0.4900                52.9734

                     31                     32                     33
                      A                      A                      A
 Frequencies --    921.9882               950.8563               950.8628
 Red. masses --      3.1639                 1.2548                 1.2542
 Frc consts  --      1.5846                 0.6684                 0.6681
 IR Inten    --      0.3947                 0.9442                 0.2988

                     34                     35                     36
                      A                      A                      A
 Frequencies --    961.7920               962.3510               985.4429
 Red. masses --      1.3730                 1.3618                 6.3196
 Frc consts  --      0.7483                 0.7431                 3.6158
 IR Inten    --      5.5983                 0.3878                 6.6370

                     37                     38                     39
                      A                      A                      A
 Frequencies --   1003.9438              1140.5565              1147.7423
 Red. masses --      9.0632                 1.8589                 1.8047
 Frc consts  --      5.3821                 1.4248                 1.4007
 IR Inten    --     19.4047               356.5551                26.7102

                     40                     41                     42
                      A                      A                      A
 Frequencies --   1175.3040              1175.5360              1217.2972
 Red. masses --      2.0371                 2.0364                 2.0282
 Frc consts  --      1.6579                 1.6580                 1.7707
 IR Inten    --     16.6935                 1.7046                76.5545

                     43                     44                     45
                      A                      A                      A
 Frequencies --   1218.8200              1254.2683              1296.2768
 Red. masses --      1.9287                 5.3770                 6.6230
 Frc consts  --      1.6881                 4.9839                 6.5570
 IR Inten    --     17.7174               887.1905               307.0261

                     46                     47                     48
                      A                      A                      A
 Frequencies --   1384.6750              1385.1227              1397.9307
 Red. masses --      1.3989                 1.4153                 1.2477
 Frc consts  --      1.5802                 1.5999                 1.4366
 IR Inten    --     15.6603                 1.3334                 4.8997

                     49                     50                     51
                      A                      A                      A
 Frequencies --   1397.9487              1433.9063              1434.0484
 Red. masses --      1.2565                 1.3437                 1.3456
 Frc consts  --      1.4468                 1.6277                 1.6304
 IR Inten    --      2.6318                35.9964                 1.6196

                     52                     53                     54
                      A                      A                      A
 Frequencies --   1448.5776              1448.7389              1511.8338
 Red. masses --      1.2564                 1.2569                 1.0541
 Frc consts  --      1.5533                 1.5543                 1.4196
 IR Inten    --      4.3694                 9.7112                 3.1487

                     55                     56                     57
                      A                      A                      A
 Frequencies --   1511.8656              1516.4957              1516.5862
 Red. masses --      1.0541                 1.0442                 1.0442
 Frc consts  --      1.4196                 1.4148                 1.4150
 IR Inten    --      0.4991                 0.9432                 1.3958

                     58                     59                     60
                      A                      A                      A
 Frequencies --   1525.5950              1525.7456              1539.7957
 Red. masses --      1.0508                 1.0503                 1.0495
 Frc consts  --      1.4410                 1.4406                 1.4661
 IR Inten    --      1.5068                 6.0985                13.6293

                     61                     62                     63
                      A                      A                      A
 Frequencies --   1539.8483              1657.0895              1835.1378
 Red. masses --      1.0494                13.9872                12.6840
 Frc consts  --      1.4660                22.6293                25.1677
 IR Inten    --      6.2751                 0.1876                55.1149

                     64                     65                     66
                      A                      A                      A
 Frequencies --   1852.6035              3058.3743              3058.3827
 Red. masses --     12.6120                 1.0354                 1.0354
 Frc consts  --     25.5034                 5.7061                 5.7062
 IR Inten    --    540.1386                 1.4096                19.9288

                     67                     68                     69
                      A                      A                      A
 Frequencies --   3062.8016              3062.8967              3102.8443
 Red. masses --      1.0360                 1.0359                 1.0880
 Frc consts  --      5.7257                 5.7259                 6.1717
 IR Inten    --     10.9742                18.7478                 1.4983

                     70                     71                     72
                      A                      A                      A
 Frequencies --   3102.8661              3126.5123              3126.5195
 Red. masses --      1.0880                 1.1029                 1.1029
 Frc consts  --      6.1719                 6.3520                 6.3521
 IR Inten    --      0.3582                 0.0158                 3.7057

                     73                     74                     75
                      A                      A                      A
 Frequencies --   3136.4245              3136.5745              3140.6302
 Red. masses --      1.1013                 1.1013                 1.1027
 Frc consts  --      6.3831                 6.3836                 6.4084
 IR Inten    --     79.7702                 4.4640                 5.4679

                     76                     77                     78
                      A                      A                      A
 Frequencies --   3140.6772              3147.2295              3147.2713
 Red. masses --      1.1027                 1.1027                 1.1027
 Frc consts  --      6.4085                 6.4350                 6.4352
 IR Inten    --     35.5994                 0.4701                32.8884

 - Thermochemistry -
 -------------------
 Temperature   298.150 Kelvin.  Pressure   1.00000 Atm.
 Atom     1 has atomic number  6 and mass  12.00000

 Molecular mass:   202.09536 amu.
 Principal axes and moments of inertia in atomic units:
                           1         2         3
     Eigenvalues --  1335.480816836.008647448.15049
           X            1.00000  -0.00000   0.00138
           Y            0.00000   1.00000   0.00000
           Z           -0.00138  -0.00000   1.00000
 This molecule is an asymmetric top.
 Rotational symmetry number  1.
 Warning -- assumption of classical behavior for rotation
           may cause significant error
 Rotational temperatures (Kelvin)      0.06486     0.01267     0.01163
 Rotational constants (GHZ):           1.35138     0.26401     0.24231
 Zero-point vibrational energy     597276.0 (Joules/Mol)
                                  142.75240 (Kcal/Mol)
 Warning -- explicit consideration of  24 degrees of freedom as
           vibrations may cause significant error
 Vibrational temperatures:     10.62    48.53    62.60    64.37    82.47
          (Kelvin)            111.91   124.40   268.37   291.69   296.34
                              318.65   320.74   326.23   379.52   384.20
                              446.05   495.96   597.35   606.98   613.86
                              670.01   694.42   850.38   867.13   894.69
                             1171.73  1194.89  1202.62  1243.07  1302.12
                             1326.54  1368.07  1368.08  1383.80  1384.61
                             1417.83  1444.45  1641.01  1651.35  1691.00
                             1691.33  1751.42  1753.61  1804.61  1865.05
                             1992.24  1992.88  2011.31  2011.34  2063.07
                             2063.28  2084.18  2084.41  2175.19  2175.24
                             2181.90  2182.03  2194.99  2195.21  2215.42
                             2215.50  2384.18  2640.35  2665.48  4400.32
                             4400.33  4406.69  4406.83  4464.30  4464.33
                             4498.35  4498.36  4512.62  4512.83  4518.67
                             4518.73  4528.16  4528.22

 Zero-point correction=                           0.227490 (Hartree/Particle)
 Thermal correction to Energy=                    0.243828
 Thermal correction to Enthalpy=                  0.244772
 Thermal correction to Gibbs Free Energy=         0.179848
 Sum of electronic and zero-point Energies=           -723.424598
 Sum of electronic and thermal Energies=              -723.408260
 Sum of electronic and thermal Enthalpies=            -723.407316
 Sum of electronic and thermal Free Energies=         -723.472240

                     E (Thermal)             CV                S
                      KCal/Mol        Cal/Mol-Kelvin    Cal/Mol-Kelvin
 Total                  153.004             56.289            136.644
 Electronic               0.000              0.000              0.000
 Translational            0.889              2.981             41.815
 Rotational               0.889              2.981             32.586
 Vibrational            151.227             50.327             62.243
 Vibration     1          0.593              1.987              8.615
 Vibration     2          0.594              1.983              5.597
 Vibration     3          0.595              1.980              5.093
 Vibration     4          0.595              1.980              5.037
 Vibration     5          0.596              1.975              4.547
 Vibration     6          0.599              1.964              3.946
 Vibration     7          0.601              1.959              3.739
 Vibration     8          0.632              1.858              2.262
 Vibration     9          0.639              1.836              2.108
 Vibration    10          0.640              1.831              2.079
 Vibration    11          0.648              1.808              1.947
 Vibration    12          0.649              1.806              1.935
 Vibration    13          0.650              1.800              1.905
 Vibration    14          0.670              1.739              1.637
 Vibration    15          0.672              1.734              1.615
 Vibration    16          0.699              1.655              1.362
 Vibration    17          0.723              1.586              1.190
 Vibration    18          0.779              1.437              0.909
 Vibration    19          0.784              1.423              0.886
 Vibration    20          0.788              1.412              0.870
 Vibration    21          0.823              1.326              0.750
 Vibration    22          0.839              1.289              0.703
 Vibration    23          0.948              1.051              0.465
 Vibration    24          0.961              1.026              0.445

 Optimization completed on the basis of negligible forces.
    -- Stationary point found.
 Normal termination of Gaussian 16 at Sat Aug 22 14:19:20 2020.
 Gaussian 16:  ES64L-G16RevA.03 25-Dec-2016

 ----------------------------------------------------------------------
 # TD(NStates=10, Root=1) B3LYP/6-31G* scf=qc volume pop=NPA density=cu
 rrent Geom=AllCheck Guess=Read
 ----------------------------------------------------------------------

 Structure from the checkpoint file:  "azadicarboxylate_2_conf103.chk"
 -------------------
 Title Card Required
 -------------------
 Charge =  0 Multiplicity = 1

                         Standard orientation:
 ---------------------------------------------------------------------
 Center     Atomic      Atomic             Coordinates (Angstroms)
 Number     Number       Type             X           Y           Z
 ---------------------------------------------------------------------
      1          6           0       -4.368786    0.593371    1.057808
      2          6           0       -3.675438    0.470553   -0.293201
      3          6           0       -3.837904    1.690558   -1.186266
      4          8           0       -2.227369    0.328965   -0.078757
      5          6           0       -1.776939   -0.893318    0.190462
      6          8           0       -2.402167   -1.920175    0.277849
      7          7           0       -0.362001   -0.838703    0.506437
      8          7           0        0.361836   -0.838147   -0.506388
      9          6           0        1.776778   -0.893111   -0.190485
     10          8           0        2.401833   -1.920062   -0.278000
     11          8           0        2.227429    0.329074    0.078811
     12          6           0        3.675530    0.470395    0.293208
     13          6           0        4.368848    0.593171   -1.057820
     14          6           0        3.838246    1.690318    1.186340
     15          1           0       -5.447634    0.716731    0.911740
     16          1           0       -3.993004    1.463416    1.607141
     17          1           0       -4.207619   -0.305194    1.659836
     18          1           0       -4.010815   -0.434827   -0.806230
     19          1           0       -3.460529    2.590191   -0.688408
     20          1           0       -4.897774    1.842212   -1.416965
     21          1           0       -3.294009    1.560257   -2.126678
     22          1           0        4.010770   -0.435074    0.806169
     23          1           0        3.993199    1.463317   -1.607086
     24          1           0        4.207496   -0.305329   -1.659894
     25          1           0        5.447724    0.716330   -0.911786
     26          1           0        3.461001    2.590046    0.688554
     27          1           0        4.898152    1.841777    1.416999
     28          1           0        3.294373    1.560053    2.126770
 ---------------------------------------------------------------------

 SCF Done:  E(RB3LYP) =  -723.652088145     a.u. after    1 cycles

 Excitation energies and oscillator strengths:

 Excited State   1:      Singlet-A      2.9475 eV  420.64 nm  f=0.0031  <S**2>=0.000
      53 -> 55        -0.10598
      54 -> 55         0.69958
 This state for optimization and/or second-order correction.
 Total Energy, E(TD-HF/TD-DFT) =  -723.543768392
 Copying the excited state density for this state as the 1-particle RhoCI density.

 Excited State   2:      Singlet-A      5.0943 eV  243.38 nm  f=0.0517  <S**2>=0.000
      53 -> 55         0.68373
      54 -> 55         0.10064

 Excited State   3:      Singlet-A      5.1671 eV  239.95 nm  f=0.0016  <S**2>=0.000
      52 -> 55         0.68898
      54 -> 56        -0.10093

 Excited State   4:      Singlet-A      5.3785 eV  230.52 nm  f=0.0096  <S**2>=0.000
      51 -> 55         0.69803

 Excited State   5:      Singlet-A      5.4267 eV  228.47 nm  f=0.0012  <S**2>=0.000
      50 -> 55         0.68844
      54 -> 56         0.11054

 Excited State   6:      Singlet-A      5.6712 eV  218.62 nm  f=0.0000  <S**2>=0.000
      50 -> 55        -0.11047
      52 -> 57        -0.14367
      53 -> 56         0.10565
      54 -> 56         0.66090

 Excited State   7:      Singlet-A      5.7286 eV  216.43 nm  f=0.0216  <S**2>=0.000
      52 -> 56        -0.14681
      54 -> 57         0.67691

 Excited State   8:      Singlet-A      6.4988 eV  190.78 nm  f=0.0061  <S**2>=0.000
      49 -> 55         0.69272

 Excited State   9:      Singlet-A      6.5870 eV  188.22 nm  f=0.0000  <S**2>=0.000
      45 -> 55         0.10096
      48 -> 55         0.69254

 Excited State  10:      Singlet-A      6.8500 eV  181.00 nm  f=0.0026  <S**2>=0.000
      45 -> 55        -0.19941
      47 -> 55         0.28682
      50 -> 57         0.12318
      52 -> 56        -0.10720
      52 -> 57        -0.33831
      53 -> 56         0.42715
      53 -> 57         0.10885
      54 -> 56        -0.15531

 The electronic state is 1-A.
 Alpha  occ. eigenvalues --  -19.20846 -19.20846 -19.15370 -19.15370 -14.42095
 Alpha  occ. eigenvalues --  -14.42044 -10.34985 -10.34985 -10.26219 -10.26219
 Alpha  occ. eigenvalues --  -10.19230 -10.19230 -10.19009 -10.19009  -1.13495
 Alpha  occ. eigenvalues --   -1.12239  -1.05483  -1.03675  -1.03314  -0.82397
 Alpha  occ. eigenvalues --   -0.80730  -0.76602  -0.70649  -0.70640  -0.66038
 Alpha  occ. eigenvalues --   -0.62247  -0.57623  -0.56570  -0.56057  -0.50824
 Alpha  occ. eigenvalues --   -0.48817  -0.48145  -0.47985  -0.47073  -0.46175
 Alpha  occ. eigenvalues --   -0.44229  -0.42478  -0.41978  -0.41584  -0.40898
 Alpha  occ. eigenvalues --   -0.40507  -0.40245  -0.39478  -0.38592  -0.37996
 Alpha  occ. eigenvalues --   -0.36925  -0.36829  -0.35055  -0.34890  -0.31606
 Alpha  occ. eigenvalues --   -0.31404  -0.30745  -0.30615  -0.24772
 Alpha virt. eigenvalues --   -0.07945   0.00646   0.01133   0.08651   0.08759
 Alpha virt. eigenvalues --    0.10419   0.10592   0.13153   0.13190   0.14361
 Alpha virt. eigenvalues --    0.14362   0.16383   0.16434   0.16788   0.17039

 Mulliken charges:
               1
     1  C   -0.459959
     2  C    0.116288
     3  C   -0.454164
     4  O   -0.424022
     5  C    0.736435
     6  O   -0.412675
     7  N   -0.247045
     8  N   -0.247043
     9  C    0.736441
    10  O   -0.412630
    11  O   -0.424007
    12  C    0.116282
    13  C   -0.459961
    14  C   -0.454165
    15  H    0.155667
    16  H    0.159864
    17  H    0.176841
    18  H    0.169177
    19  H    0.162231
    20  H    0.154793
    21  H    0.166535
    22  H    0.169177
    23  H    0.159867
    24  H    0.176841
    25  H    0.155671
    26  H    0.162233
    27  H    0.154796
    28  H    0.166535
 Sum of Mulliken charges =  -0.00000

 Dipole moment (field-independent basis, Debye):
    X=              0.0012    Y=              4.2607    Z=             -0.0000  Tot=              4.2607
 Quadrupole moment (field-independent basis, Debye-Ang):
   XX=            -59.3788   YY=            -90.9797   ZZ=            -80.0483
   XY=             -0.0026   XZ=              2.9461   YZ=              0.0001

 Summary of Natural Population Analysis:

                                       Natural Population
                Natural  -----------------------------------------------
    Atom  No    Charge         Core      Valence    Rydberg      Total
 -----------------------------------------------------------------------
      C    1   -0.70460      1.99939     4.69667    0.00854     6.70460
      C    2    0.08193      1.99912     3.90155    0.01739     5.91807
      C    3   -0.69624      1.99939     4.68777    0.00907     6.69624
      O    4   -0.53757      1.99972     6.52512    0.01273     8.53757
      C    5    0.92261      1.99951     3.02694    0.05094     5.07739
      O    6   -0.54107      1.99977     6.52063    0.02067     8.54107
      N    7   -0.22386      1.99938     5.19813    0.02634     7.22386
      N    8   -0.22387      1.99938     5.19814    0.02634     7.22387
      C    9    0.92264      1.99951     3.02692    0.05094     5.07736
      O   10   -0.54103      1.99977     6.52059    0.02067     8.54103
      O   11   -0.53755      1.99972     6.52511    0.01273     8.53755
      C   12    0.08193      1.99912     3.90156    0.01739     5.91807
      C   13   -0.70460      1.99939     4.69667    0.00854     6.70460
      C   14   -0.69624      1.99939     4.68778    0.00907     6.69624
      H   15    0.24220      0.00000     0.75707    0.00073     0.75780
      H   16    0.23653      0.00000     0.76211    0.00137     0.76347
      H   17    0.25027      0.00000     0.74863    0.00110     0.74973
      H   18    0.24411      0.00000     0.75323    0.00266     0.75589
      H   19    0.23841      0.00000     0.76030    0.00129     0.76159
      H   20    0.24098      0.00000     0.75836    0.00066     0.75902
      H   21    0.24625      0.00000     0.75278    0.00097     0.75375
      H   22    0.24411      0.00000     0.75323    0.00266     0.75589
      H   23    0.23653      0.00000     0.76210    0.00137     0.76347
      H   24    0.25027      0.00000     0.74863    0.00110     0.74973
      H   25    0.24220      0.00000     0.75707    0.00073     0.75780
      H   26    0.23841      0.00000     0.76030    0.00129     0.76159
      H   27    0.24098      0.00000     0.75835    0.00066     0.75902
      H   28    0.24625      0.00000     0.75278    0.00097     0.75375
 =======================================================================
   * Total *    0.00000     27.99258    79.69852    0.30890   108.00000

 Normal termination of Gaussian 16 at Sat Aug 22 14:26:08 2020.
