 Gaussian 16, Revision A.03,

 ---------------------------------
 # opt=CalcAll B3LYP/6-31G* scf=qc
 ---------------------------------

 -------------------
 Title Card Required
 -------------------
 Symbolic Z-matrix:
 Charge =  0 Multiplicity = 1

 SCF Done:  E(RB3LYP) =  -838.711003298     a.u. after   10 cycles
 SCF Done:  E(RB3LYP) =  -838.722647427     a.u. after   21 cycles
 SCF Done:  E(RB3LYP) =  -838.730085049     a.u. after   17 cycles
 SCF Done:  E(RB3LYP) =  -838.753239699     a.u. after   19 cycles
 SCF Done:  E(RB3LYP) =  -838.724356450     a.u. after   23 cycles
 SCF Done:  E(RB3LYP) =  -838.758546833     a.u. after   18 cycles
 SCF Done:  E(RB3LYP) =  -838.760790072     a.u. after   21 cycles
 SCF Done:  E(RB3LYP) =  -838.763007654     a.u. after   17 cycles
 SCF Done:  E(RB3LYP) =  -838.763320931     a.u. after   11 cycles
 SCF Done:  E(RB3LYP) =  -838.763355695     a.u. after    9 cycles
 SCF Done:  E(RB3LYP) =  -838.763356570     a.u. after    3 cycles
 Optimization completed.
    -- Stationary point found.
 Normal termination of Gaussian 16 at Sat Aug 22 17:10:35 2020.

 ----------------------------------------------------------------------
 # freq B3LYP/6-31G* scf=qc volume NMR pop=NPA density=current Geom=All
 Check Guess=Read
 ----------------------------------------------------------------------

 Structure from the checkpoint file:  "azadicarboxylate_5_conf242.chk"
 -------------------
 Title Card Required
 -------------------
 Charge =  0 Multiplicity = 1

 SCF Done:  E(RB3LYP) =  -838.763356570     a.u. after    1 cycles

      1  C    Isotropic =    35.9331   Anisotropy =    76.3409

      2  O    Isotropic =     1.9043   Anisotropy =   441.3910

      3  N    Isotropic =  -348.7815   Anisotropy =   720.0157

      4  N    Isotropic =  -348.7774   Anisotropy =   720.0119

      5  C    Isotropic =    35.9337   Anisotropy =    76.3422

      6  O    Isotropic =     1.9064   Anisotropy =   441.3655

      7  N    Isotropic =   148.1932   Anisotropy =    64.2675

      8  C    Isotropic =   145.5256   Anisotropy =    25.3976

      9  C    Isotropic =   163.2840   Anisotropy =     5.5674

     10  C    Isotropic =   164.1214   Anisotropy =     3.8410

     11  C    Isotropic =   162.9814   Anisotropy =     7.0035

     12  C    Isotropic =   146.6497   Anisotropy =    26.1030

     13  N    Isotropic =   148.1866   Anisotropy =    64.2680

     14  C    Isotropic =   146.6478   Anisotropy =    26.1054

     15  C    Isotropic =   162.9805   Anisotropy =     7.0026

     16  C    Isotropic =   164.1201   Anisotropy =     3.8412

     17  C    Isotropic =   163.2833   Anisotropy =     5.5665

     18  C    Isotropic =   145.5237   Anisotropy =    25.3993

     19  H    Isotropic =    28.9982   Anisotropy =     8.1188

     20  H    Isotropic =    29.3698   Anisotropy =     7.2257

     21  H    Isotropic =    30.7345   Anisotropy =     7.2993

     22  H    Isotropic =    30.8577   Anisotropy =     9.2399

     23  H    Isotropic =    30.4386   Anisotropy =     9.5520

     24  H    Isotropic =    30.6786   Anisotropy =     7.8724

     25  H    Isotropic =    30.5960   Anisotropy =     7.0945

     26  H    Isotropic =    30.7209   Anisotropy =     9.4681

     27  H    Isotropic =    27.8331   Anisotropy =     6.0937

     28  H    Isotropic =    29.5331   Anisotropy =     7.9739

     29  H    Isotropic =    27.8333   Anisotropy =     6.0936

     30  H    Isotropic =    29.5331   Anisotropy =     7.9735

     31  H    Isotropic =    30.5960   Anisotropy =     7.0944

     32  H    Isotropic =    30.7209   Anisotropy =     9.4681

     33  H    Isotropic =    30.4386   Anisotropy =     9.5518

     34  H    Isotropic =    30.6786   Anisotropy =     7.8723

     35  H    Isotropic =    30.7345   Anisotropy =     7.2992

     36  H    Isotropic =    30.8578   Anisotropy =     9.2398

     37  H    Isotropic =    28.9980   Anisotropy =     8.1192

     38  H    Isotropic =    29.3699   Anisotropy =     7.2252

  Exact polarizability: 207.009   1.031 150.812  -7.112  -4.153 116.378
 Approx polarizability: 236.797   6.077 236.509 -20.866 -11.382 187.183

                      1                      2                      3
                      A                      A                      A
 Frequencies --     14.7159                30.1375                34.5802
 Red. masses --      4.7157                 4.4098                 4.4483
 Frc consts  --      0.0006                 0.0024                 0.0031
 IR Inten    --      3.1053                 0.0000                 2.4634

                      4                      5                      6
                      A                      A                      A
 Frequencies --     45.7272                60.8205                63.0421
 Red. masses --      3.8465                 4.3170                 5.9148
 Frc consts  --      0.0047                 0.0094                 0.0139
 IR Inten    --      3.6965                 2.7548                 0.0001

                      7                      8                      9
                      A                      A                      A
 Frequencies --     83.4191               173.5913               188.3165
 Red. masses --      4.5737                 3.1724                 2.7597
 Frc consts  --      0.0188                 0.0563                 0.0577
 IR Inten    --      0.0000                 0.0000                 9.5167

                     10                     11                     12
                      A                      A                      A
 Frequencies --    201.6080               219.7674               264.6257
 Red. masses --      8.3585                 4.1938                 2.2090
 Frc consts  --      0.2002                 0.1193                 0.0911
 IR Inten    --      2.9011                 0.0000                 3.5916

                     13                     14                     15
                      A                      A                      A
 Frequencies --    270.0571               304.5759               330.6052
 Red. masses --      2.5934                 2.6028                 2.8008
 Frc consts  --      0.1114                 0.1423                 0.1804
 IR Inten    --      0.0000                 0.0000                22.5811

                     16                     17                     18
                      A                      A                      A
 Frequencies --    361.6375               386.9933               406.7170
 Red. masses --      5.8084                 4.6902                 1.7767
 Frc consts  --      0.4476                 0.4139                 0.1732
 IR Inten    --      0.0000                 2.6165                 0.0067

                     19                     20                     21
                      A                      A                      A
 Frequencies --    406.9184               444.4203               450.8494
 Red. masses --      1.8105                 3.0919                 2.9347
 Frc consts  --      0.1766                 0.3598                 0.3515
 IR Inten    --      4.6616                 0.0000                 1.0597

                     22                     23                     24
                      A                      A                      A
 Frequencies --    476.2689               530.6757               553.6340
 Red. masses --      3.8158                 2.0350                 1.9051
 Frc consts  --      0.5100                 0.3377                 0.3440
 IR Inten    --      0.0000                 9.3459                 0.0000

                     25                     26                     27
                      A                      A                      A
 Frequencies --    575.5215               579.2803               623.4595
 Red. masses --      6.1378                 7.9391                 3.4575
 Frc consts  --      1.1978                 1.5696                 0.7918
 IR Inten    --     22.0743                 0.0000                13.0997

                     28                     29                     30
                      A                      A                      A
 Frequencies --    690.5822               747.8951               794.8801
 Red. masses --      3.9107                 5.6231                11.4599
 Frc consts  --      1.0988                 1.8531                 4.2661
 IR Inten    --      0.0000                 2.7042                21.4618

                     31                     32                     33
                      A                      A                      A
 Frequencies --    824.9332               825.4288               832.8479
 Red. masses --      1.5307                 1.4987                 3.1304
 Frc consts  --      0.6137                 0.6016                 1.2793
 IR Inten    --      0.0000                 0.4488                 0.0000

                     34                     35                     36
                      A                      A                      A
 Frequencies --    841.1248               869.4278               869.6303
 Red. masses --      3.0329                 1.4412                 1.4071
 Frc consts  --      1.2643                 0.6419                 0.6270
 IR Inten    --      2.7427                 0.0001                17.4975

                     37                     38                     39
                      A                      A                      A
 Frequencies --    889.7220               908.7065               920.6921
 Red. masses --      3.1955                 2.4928                 3.1574
 Frc consts  --      1.4904                 1.2128                 1.5769
 IR Inten    --      0.0000                 7.4860                 0.0000

                     40                     41                     42
                      A                      A                      A
 Frequencies --    970.9273               978.3094               979.5787
 Red. masses --      2.6626                 1.4968                 1.3652
 Frc consts  --      1.4789                 0.8441                 0.7719
 IR Inten    --      4.6775                 0.0000                 5.0799

                     43                     44                     45
                      A                      A                      A
 Frequencies --    981.7430              1037.9003              1040.7337
 Red. masses --      2.9011                 2.8132                 2.5470
 Frc consts  --      1.6474                 1.7855                 1.6254
 IR Inten    --      0.0000                 0.0000                87.4507

                     46                     47                     48
                      A                      A                      A
 Frequencies --   1046.8745              1052.5415              1083.3307
 Red. masses --      2.1588                 2.2560                 1.7199
 Frc consts  --      1.3940                 1.4725                 1.1892
 IR Inten    --      0.0000                 4.0631                 0.0025

                     49                     50                     51
                      A                      A                      A
 Frequencies --   1083.3974              1154.3351              1156.9374
 Red. masses --      1.7245                 2.1578                 2.0747
 Frc consts  --      1.1926                 1.6940                 1.6362
 IR Inten    --      0.5563                 0.0001                14.7582

                     52                     53                     54
                      A                      A                      A
 Frequencies --   1170.8006              1173.3976              1196.8893
 Red. masses --      1.8936                 2.0376                 1.2614
 Frc consts  --      1.5293                 1.6529                 1.0647
 IR Inten    --      0.0003                93.6135                 0.0075

                     55                     56                     57
                      A                      A                      A
 Frequencies --   1196.9606              1261.1187              1261.8591
 Red. masses --      1.2638                 1.8059                 1.7935
 Frc consts  --      1.0668                 1.6923                 1.6825
 IR Inten    --      2.4982                 0.0545               264.6035

                     58                     59                     60
                      A                      A                      A
 Frequencies --   1287.0229              1291.8330              1300.3971
 Red. masses --      2.2567                 1.8781                 1.2553
 Frc consts  --      2.2024                 1.8467                 1.2507
 IR Inten    --    289.3066                 0.0007                23.6747

                     61                     62                     63
                      A                      A                      A
 Frequencies --   1302.1538              1323.3924              1323.5314
 Red. masses --      1.3280                 1.2119                 1.2256
 Frc consts  --      1.3267                 1.2505                 1.2649
 IR Inten    --      0.0001                49.9687                 0.0778

                     64                     65                     66
                      A                      A                      A
 Frequencies --   1371.0467              1371.0734              1398.0820
 Red. masses --      1.2813                 1.2812                 1.3672
 Frc consts  --      1.4191                 1.4190                 1.5745
 IR Inten    --      0.0007                 0.0798                 0.1641

                     67                     68                     69
                      A                      A                      A
 Frequencies --   1398.0938              1400.5063              1400.5204
 Red. masses --      1.3602                 1.4623                 1.4783
 Frc consts  --      1.5664                 1.6899                 1.7084
 IR Inten    --      3.9593                 0.1109                 4.1755

                     70                     71                     72
                      A                      A                      A
 Frequencies --   1403.6984              1403.7649              1421.7360
 Red. masses --      1.4442                 1.4447                 1.3295
 Frc consts  --      1.6766                 1.6773                 1.5834
 IR Inten    --      6.0643                 0.0151                 0.0008

                     73                     74                     75
                      A                      A                      A
 Frequencies --   1422.0943              1482.9711              1486.9659
 Red. masses --      1.3381                 2.9365                 3.0948
 Frc consts  --      1.5944                 3.8049                 4.0316
 IR Inten    --     20.7807               417.6984                 0.0173

                     76                     77                     78
                      A                      A                      A
 Frequencies --   1507.8117              1507.8584              1514.2237
 Red. masses --      1.0956                 1.0978                 1.0860
 Frc consts  --      1.4676                 1.4706                 1.4672
 IR Inten    --      1.8832                 0.0005                11.1176

                     79                     80                     81
                      A                      A                      A
 Frequencies --   1514.2477              1516.9934              1517.0388
 Red. masses --      1.0864                 1.0902                 1.0887
 Frc consts  --      1.4677                 1.4782                 1.4762
 IR Inten    --      0.0016                 0.0009                26.4992

                     82                     83                     84
                      A                      A                      A
 Frequencies --   1523.2876              1523.4207              1535.1253
 Red. masses --      1.0933                 1.0950                 1.1023
 Frc consts  --      1.4947                 1.4973                 1.5305
 IR Inten    --      7.8864                 0.0002                 0.0054

                     85                     86                     87
                      A                      A                      A
 Frequencies --   1535.1786              1645.1999              1775.3700
 Red. masses --      1.0968                13.7279                11.5962
 Frc consts  --      1.5230                21.8923                21.5349
 IR Inten    --      7.9479                 0.0000                 0.0000

                     88                     89                     90
                      A                      A                      A
 Frequencies --   1797.6355              3018.5710              3018.5777
 Red. masses --     11.7394                 1.0729                 1.0729
 Frc consts  --     22.3510                 5.7598                 5.7599
 IR Inten    --    864.8854                 9.8386                13.9283

                     91                     92                     93
                      A                      A                      A
 Frequencies --   3021.2958              3021.4647              3025.3855
 Red. masses --      1.0718                 1.0715                 1.0704
 Frc consts  --      5.7642                 5.7634                 5.7726
 IR Inten    --     52.6633                 0.0086               129.1633

                     94                     95                     96
                      A                      A                      A
 Frequencies --   3025.6057              3046.1635              3046.1679
 Red. masses --      1.0707                 1.0608                 1.0608
 Frc consts  --      5.7751                 5.7993                 5.7993
 IR Inten    --      0.0009                 3.3976                48.2572

                     97                     98                     99
                      A                      A                      A
 Frequencies --   3047.9639              3048.0215              3082.1814
 Red. masses --      1.0616                 1.0616                 1.0933
 Frc consts  --      5.8105                 5.8107                 6.1195
 IR Inten    --      0.0135                36.3131                99.6314

                    100                    101                    102
                      A                      A                      A
 Frequencies --   3082.3188              3089.4670              3089.4736
 Red. masses --      1.0932                 1.1039                 1.1039
 Frc consts  --      6.1196                 6.2078                 6.2077
 IR Inten    --      0.0002                 5.0991                58.0821

                    103                    104                    105
                      A                      A                      A
 Frequencies --   3094.6681              3094.6817              3153.5674
 Red. masses --      1.1050                 1.1050                 1.0925
 Frc consts  --      6.2350                 6.2349                 6.4014
 IR Inten    --    129.6579                 0.7118                11.5518

                    106                    107                    108
                      A                      A                      A
 Frequencies --   3153.9466              3157.4359              3157.4673
 Red. masses --      1.0926                 1.0920                 1.0919
 Frc consts  --      6.4035                 6.4140                 6.4138
 IR Inten    --      0.0039                 6.8224                 0.5454

 - Thermochemistry -
 -------------------
 Temperature   298.150 Kelvin.  Pressure   1.00000 Atm.
 Atom     1 has atomic number  6 and mass  12.00000

 Molecular mass:   252.15863 amu.
 Principal axes and moments of inertia in atomic units:
                           1         2         3
     Eigenvalues --  1678.225689822.02347**********
           X            0.99996   0.00896   0.00215
           Y           -0.00895   0.99994  -0.00595
           Z           -0.00220   0.00593   0.99998
 This molecule is an asymmetric top.
 Rotational symmetry number  1.
 Warning -- assumption of classical behavior for rotation
           may cause significant error
 Rotational temperatures (Kelvin)      0.05161     0.00882     0.00792
 Rotational constants (GHZ):           1.07539     0.18374     0.16495
 Zero-point vibrational energy     864913.1 (Joules/Mol)
                                  206.71918 (Kcal/Mol)
 Warning -- explicit consideration of  26 degrees of freedom as
           vibrations may cause significant error
 Vibrational temperatures:     21.17    43.36    49.75    65.79    87.51
          (Kelvin)             90.70   120.02   249.76   270.95   290.07
                              316.20   380.74   388.55   438.22   475.67
                              520.32   556.80   585.18   585.46   639.42
                              648.67   685.24   763.52   796.56   828.05
                              833.46   897.02   993.59  1076.05  1143.66
                             1186.89  1187.61  1198.28  1210.19  1250.91
                             1251.20  1280.11  1307.43  1324.67  1396.95
                             1407.57  1409.40  1412.51  1493.31  1497.38
                             1506.22  1514.37  1558.67  1558.77  1660.83
                             1664.57  1684.52  1688.26  1722.06  1722.16
                             1814.47  1815.53  1851.74  1858.66  1870.98
                             1873.51  1904.07  1904.27  1972.63  1972.67
                             2011.53  2011.55  2015.02  2015.04  2019.61
                             2019.70  2045.56  2046.08  2133.66  2139.41
                             2169.40  2169.47  2178.63  2178.66  2182.62
                             2182.68  2191.67  2191.86  2208.70  2208.78
                             2367.08  2554.36  2586.40  4343.05  4343.06
                             4346.97  4347.21  4352.86  4353.17  4382.75
                             4382.76  4385.34  4385.42  4434.57  4434.77
                             4445.05  4445.06  4452.54  4452.56  4537.28
                             4537.83  4542.85  4542.89

 Zero-point correction=                           0.329428 (Hartree/Particle)
 Thermal correction to Energy=                    0.346603
 Thermal correction to Enthalpy=                  0.347547
 Thermal correction to Gibbs Free Energy=         0.281219
 Sum of electronic and zero-point Energies=           -838.433929
 Sum of electronic and thermal Energies=              -838.416754
 Sum of electronic and thermal Enthalpies=            -838.415810
 Sum of electronic and thermal Free Energies=         -838.482137

                     E (Thermal)             CV                S
                      KCal/Mol        Cal/Mol-Kelvin    Cal/Mol-Kelvin
 Total                  217.496             64.676            139.598
 Electronic               0.000              0.000              0.000
 Translational            0.889              2.981             42.475
 Rotational               0.889              2.981             33.555
 Vibrational            215.719             58.714             63.568
 Vibration     1          0.593              1.986              7.244
 Vibration     2          0.594              1.984              5.820
 Vibration     3          0.594              1.983              5.548
 Vibration     4          0.595              1.979              4.994
 Vibration     5          0.597              1.973              4.430
 Vibration     6          0.597              1.972              4.360
 Vibration     7          0.600              1.961              3.809
 Vibration     8          0.627              1.875              2.396
 Vibration     9          0.633              1.856              2.244
 Vibration    10          0.638              1.838              2.118
 Vibration    11          0.647              1.811              1.961
 Vibration    12          0.671              1.738              1.631
 Vibration    13          0.674              1.728              1.596
 Vibration    14          0.695              1.665              1.392
 Vibration    15          0.713              1.614              1.257
 Vibration    16          0.736              1.551              1.115
 Vibration    17          0.755              1.498              1.012
 Vibration    18          0.771              1.456              0.938
 Vibration    19          0.772              1.455              0.938
 Vibration    20          0.804              1.373              0.813
 Vibration    21          0.810              1.359              0.793
 Vibration    22          0.833              1.303              0.720
 Vibration    23          0.886              1.182              0.586
 Vibration    24          0.909              1.132              0.537
 Vibration    25          0.932              1.084              0.494
 Vibration    26          0.936              1.076              0.487

 Optimization completed.
    -- Stationary point found.
 Normal termination of Gaussian 16 at Sat Aug 22 17:19:28 2020.
 Gaussian 16:  ES64L-G16RevA.03 25-Dec-2016

 ----------------------------------------------------------------------
 # TD(NStates=10, Root=1) B3LYP/6-31G* scf=qc volume pop=NPA density=cu
 rrent Geom=AllCheck Guess=Read
 ----------------------------------------------------------------------

 Structure from the checkpoint file:  "azadicarboxylate_5_conf243.chk"
 -------------------
 Title Card Required
 -------------------
 Charge =  0 Multiplicity = 1

                         Standard orientation:
 ---------------------------------------------------------------------
 Center     Atomic      Atomic             Coordinates (Angstroms)
 Number     Number       Type             X           Y           Z
 ---------------------------------------------------------------------
      1          6           0       -1.414167    1.072568    0.250483
      2          8           0       -1.213724    2.226228   -0.095830
      3          7           0       -0.261214    0.215517    0.522506
      4          7           0        0.261228   -0.215196   -0.522414
      5          6           0        1.414116   -1.072336   -0.250375
      6          8           0        1.213515   -2.225904    0.096171
      7          7           0        2.609706   -0.500602   -0.527593
      8          6           0        2.791184    0.909778   -0.890710
      9          6           0        3.685897    1.617661    0.135960
     10          6           0        5.010522    0.861932    0.327136
     11          6           0        4.758898   -0.613933    0.675124
     12          6           0        3.840613   -1.277549   -0.359748
     13          7           0       -2.609730    0.500594    0.527476
     14          6           0       -3.840745    1.277398    0.359705
     15          6           0       -4.758951    0.613712   -0.675188
     16          6           0       -5.010406   -0.862200   -0.327247
     17          6           0       -3.685681   -1.617762   -0.136074
     18          6           0       -2.791075   -0.909797    0.890633
     19          1           0        1.816703    1.393631   -0.966763
     20          1           0        3.259885    0.949310   -1.885447
     21          1           0        3.147454    1.676813    1.090936
     22          1           0        3.869869    2.646380   -0.197031
     23          1           0        5.612352    1.340689    1.108720
     24          1           0        5.597623    0.920511   -0.601568
     25          1           0        4.287410   -0.687443    1.663965
     26          1           0        5.705113   -1.166722    0.725846
     27          1           0        3.554398   -2.287819   -0.064920
     28          1           0        4.349413   -1.333718   -1.333853
     29          1           0       -3.554678    2.287724    0.064929
     30          1           0       -4.349539    1.333445    1.333821
     31          1           0       -4.287470    0.687311   -1.664026
     32          1           0       -5.705228    1.166398   -0.725895
     33          1           0       -5.612171   -1.341007   -1.108852
     34          1           0       -5.597502   -0.920881    0.601452
     35          1           0       -3.147227   -1.676812   -1.091051
     36          1           0       -3.869514   -2.646515    0.196889
     37          1           0       -1.816558   -1.393573    0.966756
     38          1           0       -3.259818   -0.949341    1.885350
 ---------------------------------------------------------------------

 SCF Done:  E(RB3LYP) =  -838.763356570     a.u. after    1 cycles

 Excitation energies and oscillator strengths:

 Excited State   1:      Singlet-A      2.6954 eV  459.98 nm  f=0.0000  <S**2>=0.000
      68 -> 69         0.69896
 This state for optimization and/or second-order correction.
 Total Energy, E(TD-HF/TD-DFT) =  -838.664301898
 Copying the excited state density for this state as the 1-particle RhoCI density.

 Excited State   2:      Singlet-A      3.8533 eV  321.76 nm  f=0.0000  <S**2>=0.000
      66 -> 69         0.70238

 Excited State   3:      Singlet-A      3.8603 eV  321.18 nm  f=0.0019  <S**2>=0.000
      67 -> 69         0.70356

 Excited State   4:      Singlet-A      4.4413 eV  279.16 nm  f=0.0494  <S**2>=0.000
      65 -> 69         0.69352

 Excited State   5:      Singlet-A      5.0351 eV  246.24 nm  f=0.0000  <S**2>=0.000
      64 -> 69         0.68249
      68 -> 70         0.12405

 Excited State   6:      Singlet-A      5.7681 eV  214.95 nm  f=0.0444  <S**2>=0.000
      65 -> 70        -0.19666
      68 -> 71         0.66695

 Excited State   7:      Singlet-A      5.7965 eV  213.90 nm  f=0.0000  <S**2>=0.000
      64 -> 69        -0.13381
      65 -> 71        -0.19204
      68 -> 70         0.65590

 Excited State   8:      Singlet-A      6.4150 eV  193.27 nm  f=0.0063  <S**2>=0.000
      61 -> 69        -0.10977
      63 -> 69         0.68715

 Excited State   9:      Singlet-A      6.4656 eV  191.76 nm  f=0.0000  <S**2>=0.000
      60 -> 69        -0.22729
      62 -> 69         0.66336

 Excited State  10:      Singlet-A      6.5445 eV  189.45 nm  f=0.0001  <S**2>=0.000
      58 -> 69         0.18441
      60 -> 69         0.63283
      62 -> 69         0.23929

 The electronic state is 1-A.
 Alpha  occ. eigenvalues --  -19.12129 -19.12129 -14.40353 -14.40302 -14.37175
 Alpha  occ. eigenvalues --  -14.37175 -10.30905 -10.30905 -10.22694 -10.22693
 Alpha  occ. eigenvalues --  -10.22214 -10.22213 -10.19132 -10.19132 -10.19122
 Alpha  occ. eigenvalues --  -10.19122 -10.19102 -10.19101  -1.08248  -1.04616
 Alpha  occ. eigenvalues --   -1.00813  -0.94929  -0.94773  -0.81161  -0.80510
 Alpha  occ. eigenvalues --   -0.77494  -0.76835  -0.75022  -0.69219  -0.66949
 Alpha  occ. eigenvalues --   -0.64232  -0.63557  -0.60100  -0.59039  -0.56144
 Alpha  occ. eigenvalues --   -0.54220  -0.52701  -0.48948  -0.48159  -0.47661
 Alpha  occ. eigenvalues --   -0.46468  -0.46457  -0.45767  -0.45663  -0.43897
 Alpha  occ. eigenvalues --   -0.43616  -0.42538  -0.42437  -0.41733  -0.41733
 Alpha  occ. eigenvalues --   -0.39968  -0.39670  -0.38274  -0.38194  -0.36644
 Alpha  occ. eigenvalues --   -0.36134  -0.35983  -0.34358  -0.34140  -0.33366
 Alpha  occ. eigenvalues --   -0.33311  -0.32998  -0.32867  -0.29729  -0.26934
 Alpha  occ. eigenvalues --   -0.24518  -0.24479  -0.22530
 Alpha virt. eigenvalues --   -0.06754   0.03270   0.03403   0.08523   0.08998
 Alpha virt. eigenvalues --    0.10826   0.10898   0.12711   0.12764   0.13979
 Alpha virt. eigenvalues --    0.14315   0.14450   0.14570   0.15621   0.15885

 Mulliken charges:
               1
     1  C    0.699257
     2  O   -0.468448
     3  N   -0.283477
     4  N   -0.283484
     5  C    0.699271
     6  O   -0.468466
     7  N   -0.398504
     8  C   -0.155211
     9  C   -0.261504
    10  C   -0.269562
    11  C   -0.262972
    12  C   -0.151260
    13  N   -0.398508
    14  C   -0.151253
    15  C   -0.262970
    16  C   -0.269562
    17  C   -0.261500
    18  C   -0.155208
    19  H    0.207983
    20  H    0.144584
    21  H    0.151984
    22  H    0.144002
    23  H    0.142864
    24  H    0.131596
    25  H    0.149956
    26  H    0.141620
    27  H    0.190583
    28  H    0.146515
    29  H    0.190579
    30  H    0.146514
    31  H    0.149953
    32  H    0.141618
    33  H    0.142862
    34  H    0.131596
    35  H    0.151983
    36  H    0.144000
    37  H    0.207985
    38  H    0.144583
 Sum of Mulliken charges =  -0.00000

 Dipole moment (field-independent basis, Debye):
    X=              0.0005    Y=             -0.0005    Z=             -0.0004  Tot=              0.0008
 Quadrupole moment (field-independent basis, Debye-Ang):
   XX=            -77.2922   YY=           -116.7983   ZZ=           -105.9947
   XY=              3.7841   XZ=             -3.0664   YZ=              0.6534

 Summary of Natural Population Analysis:

                                       Natural Population
                Natural  -----------------------------------------------
    Atom  No    Charge         Core      Valence    Rydberg      Total
 -----------------------------------------------------------------------
      C    1    0.79688      1.99934     3.15701    0.04677     5.20312
      O    2   -0.57203      1.99979     6.55372    0.01853     8.57203
      N    3   -0.25233      1.99941     5.22695    0.02596     7.25233
      N    4   -0.25233      1.99941     5.22696    0.02596     7.25233
      C    5    0.79686      1.99934     3.15703    0.04677     5.20314
      O    6   -0.57205      1.99979     6.55374    0.01853     8.57205
      N    7   -0.47012      1.99928     5.45794    0.01290     7.47012
      C    8   -0.26147      1.99930     4.24580    0.01637     6.26147
      C    9   -0.47198      1.99932     4.46119    0.01147     6.47198
      C   10   -0.46563      1.99933     4.45475    0.01155     6.46563
      C   11   -0.47189      1.99932     4.46124    0.01132     6.47189
      C   12   -0.25928      1.99932     4.24380    0.01615     6.25928
      N   13   -0.47013      1.99928     5.45795    0.01290     7.47013
      C   14   -0.25927      1.99932     4.24380    0.01615     6.25927
      C   15   -0.47189      1.99932     4.46124    0.01132     6.47189
      C   16   -0.46562      1.99933     4.45475    0.01155     6.46562
      C   17   -0.47198      1.99932     4.46119    0.01147     6.47198
      C   18   -0.26147      1.99930     4.24580    0.01637     6.26147
      H   19    0.27299      0.00000     0.72451    0.00249     0.72701
      H   20    0.22510      0.00000     0.77272    0.00217     0.77490
      H   21    0.23843      0.00000     0.75957    0.00200     0.76157
      H   22    0.24603      0.00000     0.75286    0.00112     0.75397
      H   23    0.24451      0.00000     0.75438    0.00111     0.75549
      H   24    0.22574      0.00000     0.77232    0.00194     0.77426
      H   25    0.23712      0.00000     0.76099    0.00189     0.76288
      H   26    0.24445      0.00000     0.75443    0.00113     0.75555
      H   27    0.26773      0.00000     0.73020    0.00207     0.73227
      H   28    0.22578      0.00000     0.77219    0.00204     0.77422
      H   29    0.26772      0.00000     0.73021    0.00207     0.73228
      H   30    0.22577      0.00000     0.77219    0.00204     0.77423
      H   31    0.23712      0.00000     0.76099    0.00189     0.76288
      H   32    0.24445      0.00000     0.75443    0.00113     0.75555
      H   33    0.24451      0.00000     0.75438    0.00111     0.75549
      H   34    0.22574      0.00000     0.77232    0.00194     0.77426
      H   35    0.23843      0.00000     0.75957    0.00200     0.76157
      H   36    0.24602      0.00000     0.75286    0.00112     0.75398
      H   37    0.27299      0.00000     0.72451    0.00249     0.72701
      H   38    0.22510      0.00000     0.77272    0.00217     0.77490
 =======================================================================
   * Total *   -0.00000     35.98882    99.63320    0.37798   136.00000

 Normal termination of Gaussian 16 at Sat Aug 22 17:30:12 2020.
