 Gaussian 16, Revision A.03,

 ---------------------------------
 # opt=CalcAll B3LYP/6-31G* scf=qc
 ---------------------------------

 -------------------
 Title Card Required
 -------------------
 Symbolic Z-matrix:
 Charge =  0 Multiplicity = 1

 SCF Done:  E(RB3LYP) =  -723.589215498     a.u. after   10 cycles
 SCF Done:  E(RB3LYP) =  -723.601895668     a.u. after   15 cycles
 SCF Done:  E(RB3LYP) =  -723.638843497     a.u. after   17 cycles
 SCF Done:  E(RB3LYP) =  -723.646044597     a.u. after   27 cycles
 SCF Done:  E(RB3LYP) =  -723.648540254     a.u. after   17 cycles
 SCF Done:  E(RB3LYP) =  -723.649087759     a.u. after   17 cycles
 SCF Done:  E(RB3LYP) =  -723.649122445     a.u. after    9 cycles
 SCF Done:  E(RB3LYP) =  -723.649123662     a.u. after    5 cycles
 SCF Done:  E(RB3LYP) =  -723.649124051     a.u. after    4 cycles
 SCF Done:  E(RB3LYP) =  -723.649124137     a.u. after    2 cycles
 Optimization completed.
    -- Stationary point found.
 Normal termination of Gaussian 16 at Sat Aug 22 14:23:43 2020.

 ----------------------------------------------------------------------
 # freq B3LYP/6-31G* scf=qc volume NMR pop=NPA density=current Geom=All
 Check Guess=Read
 ----------------------------------------------------------------------

 Structure from the checkpoint file:  "azadicarboxylate_2_conf62.chk"
 -------------------
 Title Card Required
 -------------------
 Charge =  0 Multiplicity = 1

 SCF Done:  E(RB3LYP) =  -723.649124137     a.u. after    1 cycles

      1  C    Isotropic =   168.3516   Anisotropy =    31.2886

      2  C    Isotropic =   118.4882   Anisotropy =    64.3546

      3  C    Isotropic =   168.2953   Anisotropy =    30.0536

      4  O    Isotropic =   134.6794   Anisotropy =   113.5316

      5  C    Isotropic =    35.1048   Anisotropy =    85.7537

      6  O    Isotropic =   -21.1834   Anisotropy =   497.4669

      7  N    Isotropic =  -318.7502   Anisotropy =   668.0781

      8  N    Isotropic =  -323.3163   Anisotropy =   672.2988

      9  C    Isotropic =    35.5311   Anisotropy =    80.4763

     10  O    Isotropic =   -27.6141   Anisotropy =   483.8620

     11  O    Isotropic =   139.6512   Anisotropy =   141.6516

     12  C    Isotropic =   113.3162   Anisotropy =    72.2052

     13  C    Isotropic =   170.6282   Anisotropy =    27.4964

     14  C    Isotropic =   169.6196   Anisotropy =    27.8947

     15  H    Isotropic =    31.1726   Anisotropy =     8.7423

     16  H    Isotropic =    31.0553   Anisotropy =     6.6815

     17  H    Isotropic =    30.3653   Anisotropy =     7.1185

     18  H    Isotropic =    26.9899   Anisotropy =     2.6770

     19  H    Isotropic =    30.8006   Anisotropy =     6.5018

     20  H    Isotropic =    31.1067   Anisotropy =     8.4464

     21  H    Isotropic =    30.7129   Anisotropy =     8.4540

     22  H    Isotropic =    27.6461   Anisotropy =     4.2834

     23  H    Isotropic =    29.6004   Anisotropy =     5.5743

     24  H    Isotropic =    30.6404   Anisotropy =     8.1418

     25  H    Isotropic =    31.1536   Anisotropy =     8.3622

     26  H    Isotropic =    29.7374   Anisotropy =     5.3902

     27  H    Isotropic =    31.1983   Anisotropy =     8.5365

     28  H    Isotropic =    30.6969   Anisotropy =     8.1161

  Exact polarizability: 149.678   1.999  98.775   3.356   0.013  88.506
 Approx polarizability: 172.214   3.053 156.559  11.502  -0.230 129.264

                      1                      2                      3
                      A                      A                      A
 Frequencies --     11.7801                35.0611                46.4409
 Red. masses --      4.0304                 3.7554                 4.0394
 Frc consts  --      0.0003                 0.0027                 0.0051
 IR Inten    --      0.1667                 1.2808                 0.9126

                      4                      5                      6
                      A                      A                      A
 Frequencies --     54.7654                60.2405                84.6416
 Red. masses --      5.5167                 4.9014                 5.0446
 Frc consts  --      0.0097                 0.0105                 0.0213
 IR Inten    --      0.6772                 0.1916                 0.5081

                      7                      8                      9
                      A                      A                      A
 Frequencies --    111.3726               183.3721               193.9749
 Red. masses --      3.5290                 5.1963                 4.4514
 Frc consts  --      0.0258                 0.1029                 0.0987
 IR Inten    --      0.2931                 4.7101                 1.3130

                     10                     11                     12
                      A                      A                      A
 Frequencies --    215.8413               222.2880               230.4494
 Red. masses --      2.3649                 1.1236                 1.0924
 Frc consts  --      0.0649                 0.0327                 0.0342
 IR Inten    --      2.3748                 0.4745                 0.0742

                     13                     14                     15
                      A                      A                      A
 Frequencies --    239.9245               249.6066               265.2458
 Red. masses --      8.1322                 1.0528                 1.3949
 Frc consts  --      0.2758                 0.0386                 0.0578
 IR Inten    --      4.2154                 0.0012                 1.8158

                     16                     17                     18
                      A                      A                      A
 Frequencies --    311.1921               356.8016               405.4033
 Red. masses --      3.1085                 2.5168                 3.9188
 Frc consts  --      0.1774                 0.1888                 0.3795
 IR Inten    --      4.6798                 0.4541                 4.5737

                     19                     20                     21
                      A                      A                      A
 Frequencies --    414.3650               429.9256               465.2491
 Red. masses --      3.5693                 3.4778                 2.8637
 Frc consts  --      0.3611                 0.3787                 0.3652
 IR Inten    --     11.7856                15.7893                 4.5750

                     22                     23                     24
                      A                      A                      A
 Frequencies --    488.5701               579.9129               614.1648
 Red. masses --      3.1615                 8.7105                 7.6351
 Frc consts  --      0.4446                 1.7259                 1.6968
 IR Inten    --     12.0552                 0.7395                 4.5786

                     25                     26                     27
                      A                      A                      A
 Frequencies --    644.2478               798.7121               813.7596
 Red. masses --      4.9714                 5.5072                10.1997
 Frc consts  --      1.2157                 2.0700                 3.9795
 IR Inten    --      3.9011                27.1289                28.7219

                     28                     29                     30
                      A                      A                      A
 Frequencies --    835.2489               860.7428               906.3377
 Red. masses --      3.4890                 6.2664                 3.2555
 Frc consts  --      1.4341                 2.7354                 1.5756
 IR Inten    --      6.5785                 2.6527                45.9400

                     31                     32                     33
                      A                      A                      A
 Frequencies --    922.9161               949.9004               951.0635
 Red. masses --      3.2471                 1.2684                 1.2553
 Frc consts  --      1.6296                 0.6743                 0.6690
 IR Inten    --      0.3276                 1.3753                 0.5959

                     34                     35                     36
                      A                      A                      A
 Frequencies --    957.2046               962.1455               972.2025
 Red. masses --      1.3272                 1.3920                 4.6215
 Frc consts  --      0.7165                 0.7592                 2.5736
 IR Inten    --      0.4544                 3.1638                 4.4055

                     37                     38                     39
                      A                      A                      A
 Frequencies --    999.2596              1143.4690              1168.2389
 Red. masses --      8.3071                 1.8455                 1.9272
 Frc consts  --      4.8871                 1.4217                 1.5497
 IR Inten    --     19.0266               238.3836               105.9504

                     40                     41                     42
                      A                      A                      A
 Frequencies --   1171.5453              1175.2392              1218.1406
 Red. masses --      2.1476                 2.0342                 1.9964
 Frc consts  --      1.7367                 1.6553                 1.7454
 IR Inten    --     14.7384                 7.2731                62.0624

                     43                     44                     45
                      A                      A                      A
 Frequencies --   1218.9444              1244.2274              1290.3571
 Red. masses --      1.9373                 5.2682                 6.1814
 Frc consts  --      1.6960                 4.8052                 6.0639
 IR Inten    --     11.0368               965.3390               247.5625

                     46                     47                     48
                      A                      A                      A
 Frequencies --   1383.4986              1391.4415              1398.9279
 Red. masses --      1.4060                 1.3199                 1.2528
 Frc consts  --      1.5856                 1.5057                 1.4446
 IR Inten    --      7.1666                 3.3304                 5.1537

                     49                     50                     51
                      A                      A                      A
 Frequencies --   1420.1719              1430.5171              1433.8559
 Red. masses --      1.3018                 1.3290                 1.3398
 Frc consts  --      1.5469                 1.6024                 1.6229
 IR Inten    --     17.6763                18.7878                16.1438

                     52                     53                     54
                      A                      A                      A
 Frequencies --   1444.7769              1448.7724              1511.0197
 Red. masses --      1.2414                 1.2568                 1.0482
 Frc consts  --      1.5267                 1.5543                 1.4100
 IR Inten    --     18.5381                 7.0735                 0.1333

                     55                     56                     57
                      A                      A                      A
 Frequencies --   1511.7860              1516.4096              1522.1399
 Red. masses --      1.0541                 1.0440                 1.0469
 Frc consts  --      1.4194                 1.4144                 1.4291
 IR Inten    --      1.6179                 1.1409                16.5058

                     58                     59                     60
                      A                      A                      A
 Frequencies --   1525.4278              1526.7039              1539.4052
 Red. masses --      1.0507                 1.0484                 1.0497
 Frc consts  --      1.4404                 1.4398                 1.4657
 IR Inten    --      4.3728                 0.0645                 9.6170

                     61                     62                     63
                      A                      A                      A
 Frequencies --   1546.6647              1652.1415              1834.1846
 Red. masses --      1.0540                13.9814                12.3529
 Frc consts  --      1.4855                22.4852                24.4854
 IR Inten    --      7.1655                 0.5013                78.9496

                     64                     65                     66
                      A                      A                      A
 Frequencies --   1850.6916              3058.5203              3062.4602
 Red. masses --     12.3307                 1.0354                 1.0374
 Frc consts  --     24.8831                 5.7064                 5.7323
 IR Inten    --    482.0710                10.8404                15.7215

                     67                     68                     69
                      A                      A                      A
 Frequencies --   3062.9353              3066.5762              3095.7773
 Red. masses --      1.0360                 1.0382                 1.0866
 Frc consts  --      5.7263                 5.7525                 6.1357
 IR Inten    --     14.8942                10.9299                19.4988

                     70                     71                     72
                      A                      A                      A
 Frequencies --   3098.0822              3126.9210              3127.3287
 Red. masses --      1.0874                 1.1029                 1.1016
 Frc consts  --      6.1491                 6.3537                 6.3479
 IR Inten    --      1.6911                 1.6859                12.2493

                     73                     74                     75
                      A                      A                      A
 Frequencies --   3130.1825              3136.0561              3139.4707
 Red. masses --      1.1019                 1.1017                 1.1027
 Frc consts  --      6.3614                 6.3841                 6.4035
 IR Inten    --     31.9345                38.8448                24.1729

                     76                     77                     78
                      A                      A                      A
 Frequencies --   3148.4199              3162.0602              3166.7402
 Red. masses --      1.1028                 1.1022                 1.1011
 Frc consts  --      6.4405                 6.4928                 6.5056
 IR Inten    --     14.9088                 1.9821                19.2688

 - Thermochemistry -
 -------------------
 Temperature   298.150 Kelvin.  Pressure   1.00000 Atm.
 Atom     1 has atomic number  6 and mass  12.00000

 Molecular mass:   202.09536 amu.
 Principal axes and moments of inertia in atomic units:
                           1         2         3
     Eigenvalues --  1162.038756967.723077333.35023
           X            0.99997  -0.00429  -0.00674
           Y            0.00426   0.99998  -0.00398
           Z            0.00675   0.00395   0.99997
 This molecule is an asymmetric top.
 Rotational symmetry number  1.
 Warning -- assumption of classical behavior for rotation
           may cause significant error
 Rotational temperatures (Kelvin)      0.07454     0.01243     0.01181
 Rotational constants (GHZ):           1.55308     0.25901     0.24610
 Zero-point vibrational energy     597801.2 (Joules/Mol)
                                  142.87792 (Kcal/Mol)
 Warning -- explicit consideration of  24 degrees of freedom as
           vibrations may cause significant error
 Vibrational temperatures:     16.95    50.45    66.82    78.80    86.67
          (Kelvin)            121.78   160.24   263.83   279.09   310.55
                              319.82   331.57   345.20   359.13   381.63
                              447.74   513.36   583.28   596.18   618.57
                              669.39   702.94   834.37   883.65   926.93
                             1149.17  1170.82  1201.74  1238.42  1304.02
                             1327.87  1366.69  1368.37  1377.20  1384.31
                             1398.78  1437.71  1645.20  1680.84  1685.59
                             1690.91  1752.63  1753.79  1790.17  1856.54
                             1990.55  2001.97  2012.75  2043.31  2058.20
                             2063.00  2078.71  2084.46  2174.02  2175.12
                             2181.78  2190.02  2194.75  2196.59  2214.86
                             2225.31  2377.06  2638.98  2662.73  4400.53
                             4406.20  4406.88  4412.12  4454.13  4457.45
                             4498.94  4499.53  4503.63  4512.09  4517.00
                             4529.87  4549.50  4556.23

 Zero-point correction=                           0.227690 (Hartree/Particle)
 Thermal correction to Energy=                    0.243910
 Thermal correction to Enthalpy=                  0.244854
 Thermal correction to Gibbs Free Energy=         0.181111
 Sum of electronic and zero-point Energies=           -723.421434
 Sum of electronic and thermal Energies=              -723.405215
 Sum of electronic and thermal Enthalpies=            -723.404270
 Sum of electronic and thermal Free Energies=         -723.468013

                     E (Thermal)             CV                S
                      KCal/Mol        Cal/Mol-Kelvin    Cal/Mol-Kelvin
 Total                  153.056             56.265            134.158
 Electronic               0.000              0.000              0.000
 Translational            0.889              2.981             41.815
 Rotational               0.889              2.981             32.451
 Vibrational            151.278             50.304             59.892
 Vibration     1          0.593              1.987              7.686
 Vibration     2          0.594              1.982              5.520
 Vibration     3          0.595              1.979              4.963
 Vibration     4          0.596              1.976              4.637
 Vibration     5          0.597              1.973              4.449
 Vibration     6          0.601              1.960              3.780
 Vibration     7          0.607              1.940              3.245
 Vibration     8          0.631              1.862              2.294
 Vibration     9          0.635              1.848              2.190
 Vibration    10          0.645              1.817              1.994
 Vibration    11          0.648              1.807              1.940
 Vibration    12          0.652              1.794              1.875
 Vibration    13          0.657              1.779              1.803
 Vibration    14          0.662              1.763              1.733
 Vibration    15          0.671              1.737              1.627
 Vibration    16          0.700              1.652              1.356
 Vibration    17          0.732              1.561              1.136
 Vibration    18          0.770              1.458              0.943
 Vibration    19          0.778              1.439              0.911
 Vibration    20          0.791              1.405              0.859
 Vibration    21          0.823              1.327              0.751
 Vibration    22          0.844              1.275              0.687
 Vibration    23          0.937              1.075              0.486
 Vibration    24          0.974              1.002              0.426

 Optimization completed.
    -- Stationary point found.
 Normal termination of Gaussian 16 at Sat Aug 22 14:28:21 2020.
 Gaussian 16:  ES64L-G16RevA.03 25-Dec-2016

 ----------------------------------------------------------------------
 # TD(NStates=10, Root=1) B3LYP/6-31G* scf=qc volume pop=NPA density=cu
 rrent Geom=AllCheck Guess=Read
 ----------------------------------------------------------------------

 Structure from the checkpoint file:  "azadicarboxylate_2_conf63.chk"
 -------------------
 Title Card Required
 -------------------
 Charge =  0 Multiplicity = 1

                         Standard orientation:
 ---------------------------------------------------------------------
 Center     Atomic      Atomic             Coordinates (Angstroms)
 Number     Number       Type             X           Y           Z
 ---------------------------------------------------------------------
      1          6           0       -4.184468    0.054673    1.290666
      2          6           0       -3.746911    0.405433   -0.125920
      3          6           0       -4.124921    1.812896   -0.560362
      4          8           0       -2.280198    0.347033   -0.201000
      5          6           0       -1.739360   -0.848877   -0.418325
      6          8           0       -2.298906   -1.906701   -0.565600
      7          7           0       -0.303554   -0.730904   -0.590437
      8          7           0        0.297031   -0.536269    0.482969
      9          6           0        1.741814   -0.528340    0.328516
     10          8           0        2.403088   -1.481053    0.658965
     11          8           0        2.134787    0.665800   -0.098942
     12          6           0        3.573694    0.967954   -0.213922
     13          6           0        4.254143    0.932457    1.150473
     14          6           0        4.232669    0.094130   -1.275843
     15          1           0       -5.276031    0.110900    1.367149
     16          1           0       -3.750294    0.754469    2.012838
     17          1           0       -3.875655   -0.961483    1.550688
     18          1           0       -4.130241   -0.337760   -0.831038
     19          1           0       -3.699559    2.557381    0.121069
     20          1           0       -5.214656    1.922486   -0.554788
     21          1           0       -3.761874    2.020532   -1.571560
     22          1           0        3.534762    2.001064   -0.570404
     23          1           0        4.317128   -0.086540    1.538138
     24          1           0        3.709842    1.554350    1.868637
     25          1           0        5.269288    1.333891    1.055098
     26          1           0        4.298258   -0.946176   -0.950111
     27          1           0        5.245240    0.465933   -1.469083
     28          1           0        3.669322    0.138569   -2.213434
 ---------------------------------------------------------------------

 SCF Done:  E(RB3LYP) =  -723.649124137     a.u. after    1 cycles

 Excitation energies and oscillator strengths:

 Excited State   1:      Singlet-A      2.9271 eV  423.58 nm  f=0.0041  <S**2>=0.000
      54 -> 55         0.69873
 This state for optimization and/or second-order correction.
 Total Energy, E(TD-HF/TD-DFT) =  -723.541557014
 Copying the excited state density for this state as the 1-particle RhoCI density.

 Excited State   2:      Singlet-A      4.9549 eV  250.23 nm  f=0.0531  <S**2>=0.000
      52 -> 55        -0.18777
      53 -> 55         0.66153

 Excited State   3:      Singlet-A      5.1034 eV  242.94 nm  f=0.0014  <S**2>=0.000
      52 -> 55         0.66781
      53 -> 55         0.19156

 Excited State   4:      Singlet-A      5.4000 eV  229.60 nm  f=0.0030  <S**2>=0.000
      50 -> 55         0.37879
      51 -> 55         0.59226

 Excited State   5:      Singlet-A      5.4304 eV  228.31 nm  f=0.0036  <S**2>=0.000
      50 -> 55         0.58741
      51 -> 55        -0.37490

 Excited State   6:      Singlet-A      5.6270 eV  220.34 nm  f=0.0055  <S**2>=0.000
      53 -> 56         0.14240
      54 -> 56         0.66177
      54 -> 57         0.11634

 Excited State   7:      Singlet-A      5.7722 eV  214.79 nm  f=0.0114  <S**2>=0.000
      52 -> 56         0.10410
      52 -> 57        -0.13733
      54 -> 56        -0.11798
      54 -> 57         0.66658

 Excited State   8:      Singlet-A      6.5019 eV  190.69 nm  f=0.0016  <S**2>=0.000
      44 -> 55        -0.12670
      48 -> 55        -0.13606
      49 -> 55         0.66777

 Excited State   9:      Singlet-A      6.5598 eV  189.01 nm  f=0.0078  <S**2>=0.000
      45 -> 55         0.12110
      48 -> 55         0.65607
      49 -> 55         0.13774

 Excited State  10:      Singlet-A      6.7766 eV  182.96 nm  f=0.0120  <S**2>=0.000
      52 -> 56         0.22220
      53 -> 56         0.57085
      53 -> 57         0.25150
      54 -> 56        -0.15946

 The electronic state is 1-A.
 Alpha  occ. eigenvalues --  -19.20829 -19.20797 -19.15317 -19.15313 -14.41941
 Alpha  occ. eigenvalues --  -14.41884 -10.35038 -10.34896 -10.26568 -10.26146
 Alpha  occ. eigenvalues --  -10.19202 -10.18890 -10.18849 -10.18786  -1.13400
 Alpha  occ. eigenvalues --   -1.12122  -1.05286  -1.03656  -1.03309  -0.82246
 Alpha  occ. eigenvalues --   -0.80568  -0.76407  -0.70542  -0.70444  -0.66552
 Alpha  occ. eigenvalues --   -0.63178  -0.58178  -0.56138  -0.52355  -0.50888
 Alpha  occ. eigenvalues --   -0.49803  -0.48896  -0.47596  -0.46685  -0.45513
 Alpha  occ. eigenvalues --   -0.44872  -0.43361  -0.42562  -0.41461  -0.40639
 Alpha  occ. eigenvalues --   -0.40482  -0.40097  -0.39000  -0.38152  -0.37447
 Alpha  occ. eigenvalues --   -0.36739  -0.36464  -0.35406  -0.34941  -0.31507
 Alpha  occ. eigenvalues --   -0.31441  -0.30591  -0.30145  -0.24670
 Alpha virt. eigenvalues --   -0.07981   0.00713   0.01342   0.08597   0.08751
 Alpha virt. eigenvalues --    0.10502   0.10636   0.13238   0.13722   0.14462
 Alpha virt. eigenvalues --    0.14764   0.15615   0.16476   0.16870   0.17204

 Mulliken charges:
               1
     1  C   -0.459230
     2  C    0.117683
     3  C   -0.454435
     4  O   -0.426020
     5  C    0.736697
     6  O   -0.420398
     7  N   -0.245855
     8  N   -0.240212
     9  C    0.738217
    10  O   -0.413274
    11  O   -0.432184
    12  C    0.129178
    13  C   -0.471820
    14  C   -0.470367
    15  H    0.153073
    16  H    0.159860
    17  H    0.178426
    18  H    0.168130
    19  H    0.162970
    20  H    0.155193
    21  H    0.164889
    22  H    0.157621
    23  H    0.187852
    24  H    0.163052
    25  H    0.155195
    26  H    0.188177
    27  H    0.152945
    28  H    0.164637
 Sum of Mulliken charges =  -0.00000

 Dipole moment (field-independent basis, Debye):
    X=              0.1593    Y=              4.0164    Z=             -0.1683  Tot=              4.0231
 Quadrupole moment (field-independent basis, Debye-Ang):
   XX=            -58.4607   YY=            -89.0707   ZZ=            -81.0143
   XY=              0.7029   XZ=             -3.0464   YZ=             -0.0664

 Summary of Natural Population Analysis:

                                       Natural Population
                Natural  -----------------------------------------------
    Atom  No    Charge         Core      Valence    Rydberg      Total
 -----------------------------------------------------------------------
      C    1   -0.70376      1.99939     4.69582    0.00854     6.70376
      C    2    0.08319      1.99912     3.90018    0.01752     5.91681
      C    3   -0.69622      1.99939     4.68781    0.00902     6.69622
      O    4   -0.53948      1.99972     6.52710    0.01266     8.53948
      C    5    0.91805      1.99950     3.03168    0.05077     5.08195
      O    6   -0.54812      1.99977     6.52765    0.02070     8.54812
      N    7   -0.22120      1.99939     5.19528    0.02653     7.22120
      N    8   -0.22014      1.99939     5.19423    0.02652     7.22014
      C    9    0.92012      1.99951     3.02817    0.05220     5.07988
      O   10   -0.54277      1.99977     6.52251    0.02050     8.54277
      O   11   -0.53253      1.99972     6.52082    0.01199     8.53253
      C   12    0.08488      1.99912     3.89776    0.01823     5.91512
      C   13   -0.71051      1.99939     4.70302    0.00810     6.71051
      C   14   -0.70946      1.99939     4.70208    0.00799     6.70946
      H   15    0.24015      0.00000     0.75908    0.00076     0.75985
      H   16    0.23654      0.00000     0.76210    0.00136     0.76346
      H   17    0.25137      0.00000     0.74761    0.00102     0.74863
      H   18    0.24328      0.00000     0.75399    0.00274     0.75672
      H   19    0.23896      0.00000     0.75976    0.00128     0.76104
      H   20    0.24141      0.00000     0.75793    0.00066     0.75859
      H   21    0.24529      0.00000     0.75374    0.00098     0.75471
      H   22    0.24565      0.00000     0.75267    0.00168     0.75435
      H   23    0.25208      0.00000     0.74647    0.00145     0.74792
      H   24    0.24300      0.00000     0.75595    0.00105     0.75700
      H   25    0.24278      0.00000     0.75650    0.00072     0.75722
      H   26    0.25257      0.00000     0.74610    0.00134     0.74743
      H   27    0.24090      0.00000     0.75836    0.00074     0.75910
      H   28    0.24399      0.00000     0.75495    0.00106     0.75601
 =======================================================================
   * Total *   -0.00000     27.99258    79.69930    0.30812   108.00000

 Normal termination of Gaussian 16 at Sat Aug 22 14:33:49 2020.
