 Gaussian 16, Revision A.03,

 ---------------------------------
 # opt=CalcAll B3LYP/6-31G* scf=qc
 ---------------------------------

 -------------------
 Title Card Required
 -------------------
 Symbolic Z-matrix:
 Charge =  0 Multiplicity = 1

 SCF Done:  E(RB3LYP) =  -838.744160441     a.u. after   10 cycles
 SCF Done:  E(RB3LYP) =  -838.759071332     a.u. after   19 cycles
 SCF Done:  E(RB3LYP) =  -838.762347495     a.u. after   25 cycles
 SCF Done:  E(RB3LYP) =  -838.763116605     a.u. after   19 cycles
 SCF Done:  E(RB3LYP) =  -838.763281490     a.u. after   11 cycles
 SCF Done:  E(RB3LYP) =  -838.763296585     a.u. after   11 cycles
 SCF Done:  E(RB3LYP) =  -838.763314585     a.u. after    5 cycles
 SCF Done:  E(RB3LYP) =  -838.763315073     a.u. after    3 cycles
 SCF Done:  E(RB3LYP) =  -838.763315170     a.u. after    2 cycles
 Optimization completed.
    -- Stationary point found.
 Normal termination of Gaussian 16 at Sat Aug 22 18:26:22 2020.

 ----------------------------------------------------------------------
 # freq B3LYP/6-31G* scf=qc volume NMR pop=NPA density=current Geom=All
 Check Guess=Read
 ----------------------------------------------------------------------

 Structure from the checkpoint file:  "azadicarboxylate_5_conf52.chk"
 -------------------
 Title Card Required
 -------------------
 Charge =  0 Multiplicity = 1

 SCF Done:  E(RB3LYP) =  -838.763315170     a.u. after    1 cycles

      1  C    Isotropic =    36.1506   Anisotropy =    77.5148

      2  O    Isotropic =     1.6597   Anisotropy =   440.0324

      3  N    Isotropic =  -352.7064   Anisotropy =   728.0000

      4  N    Isotropic =  -351.9957   Anisotropy =   725.5861

      5  C    Isotropic =    36.0151   Anisotropy =    77.6400

      6  O    Isotropic =     1.7266   Anisotropy =   440.3923

      7  N    Isotropic =   148.2515   Anisotropy =    66.7555

      8  C    Isotropic =   146.8858   Anisotropy =    26.0132

      9  C    Isotropic =   162.9428   Anisotropy =     6.7324

     10  C    Isotropic =   164.1200   Anisotropy =     3.8076

     11  C    Isotropic =   163.1385   Anisotropy =     6.6570

     12  C    Isotropic =   145.5296   Anisotropy =    24.4322

     13  N    Isotropic =   147.9160   Anisotropy =    64.7728

     14  C    Isotropic =   146.6760   Anisotropy =    25.9756

     15  C    Isotropic =   162.9845   Anisotropy =     7.1410

     16  C    Isotropic =   164.1521   Anisotropy =     3.9776

     17  C    Isotropic =   163.1979   Anisotropy =     5.5664

     18  C    Isotropic =   145.5765   Anisotropy =    25.0278

     19  H    Isotropic =    27.8411   Anisotropy =     6.2232

     20  H    Isotropic =    29.6016   Anisotropy =     8.1853

     21  H    Isotropic =    30.4022   Anisotropy =     7.1797

     22  H    Isotropic =    30.6502   Anisotropy =     9.3793

     23  H    Isotropic =    30.3797   Anisotropy =     9.3963

     24  H    Isotropic =    30.6657   Anisotropy =     7.8644

     25  H    Isotropic =    30.4597   Anisotropy =     7.1159

     26  H    Isotropic =    30.8099   Anisotropy =     9.2300

     27  H    Isotropic =    28.9785   Anisotropy =     9.5511

     28  H    Isotropic =    29.5066   Anisotropy =     7.6850

     29  H    Isotropic =    27.8399   Anisotropy =     6.0987

     30  H    Isotropic =    29.5335   Anisotropy =     8.0623

     31  H    Isotropic =    30.6131   Anisotropy =     7.0809

     32  H    Isotropic =    30.7260   Anisotropy =     9.4495

     33  H    Isotropic =    30.4415   Anisotropy =     9.5006

     34  H    Isotropic =    30.6798   Anisotropy =     7.9042

     35  H    Isotropic =    30.7590   Anisotropy =     7.3906

     36  H    Isotropic =    30.8468   Anisotropy =     9.2066

     37  H    Isotropic =    29.0009   Anisotropy =     8.0938

     38  H    Isotropic =    29.3620   Anisotropy =     7.3359

  Exact polarizability: 210.265  -2.468 150.834   1.955  -0.547 115.534
 Approx polarizability: 241.947 -10.565 238.323   7.315   0.247 179.666

                      1                      2                      3
                      A                      A                      A
 Frequencies --     15.2890                37.3400                39.0442
 Red. masses --      4.8676                 4.4677                 4.9115
 Frc consts  --      0.0007                 0.0037                 0.0044
 IR Inten    --      3.2823                 1.7824                 3.4796

                      4                      5                      6
                      A                      A                      A
 Frequencies --     47.7782                55.2690                61.6868
 Red. masses --      3.4663                 4.4061                 5.0562
 Frc consts  --      0.0047                 0.0079                 0.0113
 IR Inten    --      0.4276                 0.2461                 2.0944

                      7                      8                      9
                      A                      A                      A
 Frequencies --     83.3940               175.9218               191.3731
 Red. masses --      4.7499                 2.9768                 3.2105
 Frc consts  --      0.0195                 0.0543                 0.0693
 IR Inten    --      0.1765                 0.1670                 8.2024

                     10                     11                     12
                      A                      A                      A
 Frequencies --    200.9713               219.7546               256.1995
 Red. masses --      5.8071                 5.0971                 2.2153
 Frc consts  --      0.1382                 0.1450                 0.0857
 IR Inten    --      2.3936                 0.2962                 0.8599

                     13                     14                     15
                      A                      A                      A
 Frequencies --    270.9670               300.4644               323.9796
 Red. masses --      2.5135                 2.5586                 2.8208
 Frc consts  --      0.1087                 0.1361                 0.1744
 IR Inten    --      2.6986                 1.8696                22.2149

                     16                     17                     18
                      A                      A                      A
 Frequencies --    364.5484               381.6641               392.8727
 Red. masses --      5.5676                 4.9129                 1.8101
 Frc consts  --      0.4359                 0.4217                 0.1646
 IR Inten    --      1.3481                 1.6258                 2.4562

                     19                     20                     21
                      A                      A                      A
 Frequencies --    405.9598               445.5167               450.4915
 Red. masses --      1.7846                 3.1817                 2.9947
 Frc consts  --      0.1733                 0.3721                 0.3581
 IR Inten    --      2.4536                 0.1297                 0.8392

                     22                     23                     24
                      A                      A                      A
 Frequencies --    476.6221               525.7924               550.4825
 Red. masses --      3.4211                 2.0174                 2.1760
 Frc consts  --      0.4579                 0.3286                 0.3885
 IR Inten    --      0.1276                 8.6774                 0.8290

                     25                     26                     27
                      A                      A                      A
 Frequencies --    576.3058               583.7368               627.2926
 Red. masses --      6.2026                 5.6984                 3.5401
 Frc consts  --      1.2138                 1.1440                 0.8207
 IR Inten    --     19.6551                 3.4176                10.3235

                     28                     29                     30
                      A                      A                      A
 Frequencies --    687.8520               747.9848               795.1550
 Red. masses --      3.8347                 5.4914                11.6068
 Frc consts  --      1.0690                 1.8102                 4.3238
 IR Inten    --      0.3112                 2.8927                20.4398

                     31                     32                     33
                      A                      A                      A
 Frequencies --    823.3172               825.1691               834.4568
 Red. masses --      1.5090                 1.5043                 3.1929
 Frc consts  --      0.6027                 0.6035                 1.3099
 IR Inten    --      0.2651                 0.2584                 0.7695

                     34                     35                     36
                      A                      A                      A
 Frequencies --    843.2779               869.5297               869.9140
 Red. masses --      3.0698                 1.4006                 1.4217
 Frc consts  --      1.2862                 0.6239                 0.6339
 IR Inten    --      3.3660                 9.8203                 7.6315

                     37                     38                     39
                      A                      A                      A
 Frequencies --    891.8670               910.3581               922.0464
 Red. masses --      3.2489                 2.5246                 3.1694
 Frc consts  --      1.5226                 1.2327                 1.5876
 IR Inten    --      0.0513                 7.7208                 0.2391

                     40                     41                     42
                      A                      A                      A
 Frequencies --    971.5952               977.1670               979.4054
 Red. masses --      2.7179                 1.5614                 1.3829
 Frc consts  --      1.5117                 0.8784                 0.7816
 IR Inten    --      4.1621                 1.1890                 4.2460

                     43                     44                     45
                      A                      A                      A
 Frequencies --    981.8781              1036.0782              1041.1080
 Red. masses --      2.6697                 2.7551                 2.5566
 Frc consts  --      1.5165                 1.7425                 1.6327
 IR Inten    --      0.4176                 5.6561                78.7263

                     46                     47                     48
                      A                      A                      A
 Frequencies --   1048.1293              1054.6586              1083.5426
 Red. masses --      2.1586                 2.2451                 1.7166
 Frc consts  --      1.3972                 1.4713                 1.1874
 IR Inten    --      0.3505                 3.1219                 0.2780

                     49                     50                     51
                      A                      A                      A
 Frequencies --   1084.7324              1154.9897              1158.4337
 Red. masses --      1.7104                 2.1701                 2.1371
 Frc consts  --      1.1857                 1.7057                 1.6897
 IR Inten    --      0.2286                 2.6377                16.1731

                     52                     53                     54
                      A                      A                      A
 Frequencies --   1169.4591              1172.3930              1195.6602
 Red. masses --      1.8911                 2.0042                 1.2513
 Frc consts  --      1.5238                 1.6230                 1.0540
 IR Inten    --     16.1253                77.9074                 1.3886

                     55                     56                     57
                      A                      A                      A
 Frequencies --   1197.0130              1261.2118              1264.1970
 Red. masses --      1.2642                 1.7979                 1.7924
 Frc consts  --      1.0673                 1.6849                 1.6878
 IR Inten    --      1.3044               148.0217               135.6605

                     58                     59                     60
                      A                      A                      A
 Frequencies --   1287.5645              1293.0936              1300.8548
 Red. masses --      2.2576                 1.8227                 1.2626
 Frc consts  --      2.2052                 1.7957                 1.2589
 IR Inten    --    281.0994                10.8947                21.3987

                     61                     62                     63
                      A                      A                      A
 Frequencies --   1303.2943              1323.2865              1323.7721
 Red. masses --      1.3610                 1.2220                 1.2027
 Frc consts  --      1.3621                 1.2608                 1.2418
 IR Inten    --     10.0016                19.6814                24.5095

                     64                     65                     66
                      A                      A                      A
 Frequencies --   1371.0210              1372.7527              1398.1302
 Red. masses --      1.2808                 1.2875                 1.3698
 Frc consts  --      1.4185                 1.4295                 1.5776
 IR Inten    --      0.0337                 0.5161                 1.6608

                     67                     68                     69
                      A                      A                      A
 Frequencies --   1398.3827              1400.8348              1401.6501
 Red. masses --      1.3865                 1.4606                 1.4636
 Frc consts  --      1.5974                 1.6887                 1.6942
 IR Inten    --      2.1224                 1.5636                 3.0469

                     70                     71                     72
                      A                      A                      A
 Frequencies --   1403.5472              1405.7918              1421.6487
 Red. masses --      1.4502                 1.4412                 1.3327
 Frc consts  --      1.6832                 1.6780                 1.5869
 IR Inten    --      3.4426                 4.1496                 8.7163

                     73                     74                     75
                      A                      A                      A
 Frequencies --   1425.4074              1481.8804              1486.0113
 Red. masses --      1.3433                 2.8818                 3.0635
 Frc consts  --      1.6080                 3.7285                 3.9858
 IR Inten    --     10.2751               413.4647                 3.2592

                     76                     77                     78
                      A                      A                      A
 Frequencies --   1507.8975              1507.9236              1514.4329
 Red. masses --      1.0950                 1.0951                 1.0860
 Frc consts  --      1.4670                 1.4671                 1.4675
 IR Inten    --      0.1203                 1.7746                 5.7076

                     79                     80                     81
                      A                      A                      A
 Frequencies --   1514.7552              1516.9551              1519.0228
 Red. masses --      1.0859                 1.0894                 1.0866
 Frc consts  --      1.4680                 1.4770                 1.4772
 IR Inten    --      5.2474                12.8368                 4.0701

                     82                     83                     84
                      A                      A                      A
 Frequencies --   1519.5998              1523.1382              1534.2200
 Red. masses --      1.0998                 1.0939                 1.1006
 Frc consts  --      1.4964                 1.4953                 1.5264
 IR Inten    --     10.1282                 4.4636                 3.0772

                     85                     86                     87
                      A                      A                      A
 Frequencies --   1535.0396              1649.5182              1775.7621
 Red. masses --      1.0997                13.7876                11.6205
 Frc consts  --      1.5268                22.1032                21.5896
 IR Inten    --      4.1713                 0.0313                 1.1268

                     88                     89                     90
                      A                      A                      A
 Frequencies --   1797.8001              3015.0800              3018.1971
 Red. masses --     11.7123                 1.0732                 1.0729
 Frc consts  --     22.3036                 5.7483                 5.7582
 IR Inten    --    854.2562                12.2237                12.2303

                     91                     92                     93
                      A                      A                      A
 Frequencies --   3018.3131              3021.2128              3025.4369
 Red. masses --      1.0729                 1.0718                 1.0699
 Frc consts  --      5.7591                 5.7639                 5.7700
 IR Inten    --     38.3210                30.9701                82.5456

                     94                     95                     96
                      A                      A                      A
 Frequencies --   3025.6255              3045.4522              3045.8503
 Red. masses --      1.0697                 1.0609                 1.0608
 Frc consts  --      5.7695                 5.7973                 5.7982
 IR Inten    --     23.0825                25.4434                25.3777

                     97                     98                     99
                      A                      A                      A
 Frequencies --   3047.3372              3047.5445              3082.0718
 Red. masses --      1.0617                 1.0616                 1.0934
 Frc consts  --      5.8090                 5.8093                 6.1193
 IR Inten    --     19.3847                21.0689                59.9318

                    100                    101                    102
                      A                      A                      A
 Frequencies --   3082.2851              3088.9407              3089.1899
 Red. masses --      1.0933                 1.1036                 1.1038
 Frc consts  --      6.1199                 6.2040                 6.2061
 IR Inten    --     43.0916                31.8344                31.9490

                    103                    104                    105
                      A                      A                      A
 Frequencies --   3094.0679              3094.3385              3149.7007
 Red. masses --      1.1049                 1.1049                 1.0920
 Frc consts  --      6.2322                 6.2334                 6.3831
 IR Inten    --     60.6112                69.0251                 6.9586

                    106                    107                    108
                      A                      A                      A
 Frequencies --   3151.3728              3156.4513              3157.3178
 Red. masses --      1.0927                 1.0916                 1.0919
 Frc consts  --      6.3937                 6.4080                 6.4134
 IR Inten    --      5.2786                 3.6655                 3.5109

 - Thermochemistry -
 -------------------
 Temperature   298.150 Kelvin.  Pressure   1.00000 Atm.
 Atom     1 has atomic number  6 and mass  12.00000

 Molecular mass:   252.15863 amu.
 Principal axes and moments of inertia in atomic units:
                           1         2         3
     Eigenvalues --  1722.50394********************
           X            0.99997  -0.00821  -0.00140
           Y            0.00819   0.99993  -0.00827
           Z            0.00147   0.00825   0.99996
 This molecule is an asymmetric top.
 Rotational symmetry number  1.
 Warning -- assumption of classical behavior for rotation
           may cause significant error
 Rotational temperatures (Kelvin)      0.05028     0.00849     0.00778
 Rotational constants (GHZ):           1.04774     0.17693     0.16209
 Zero-point vibrational energy     864804.8 (Joules/Mol)
                                  206.69331 (Kcal/Mol)
 Warning -- explicit consideration of  26 degrees of freedom as
           vibrations may cause significant error
 Vibrational temperatures:     22.00    53.72    56.18    68.74    79.52
          (Kelvin)             88.75   119.99   253.11   275.34   289.15
                              316.18   368.61   389.86   432.30   466.13
                              524.50   549.13   565.26   584.09   641.00
                              648.16   685.75   756.50   792.02   829.18
                              839.87   902.53   989.67  1076.18  1144.05
                             1184.57  1187.23  1200.60  1213.29  1251.06
                             1251.61  1283.20  1309.80  1326.62  1397.91
                             1405.93  1409.15  1412.70  1490.69  1497.92
                             1508.02  1517.42  1558.98  1560.69  1661.77
                             1666.73  1682.59  1686.81  1720.29  1722.23
                             1814.60  1818.90  1852.52  1860.47  1871.64
                             1875.15  1903.91  1904.61  1972.59  1975.08
                             2011.60  2011.96  2015.49  2016.66  2019.39
                             2022.62  2045.44  2050.84  2132.10  2138.04
                             2169.53  2169.57  2178.93  2179.39  2182.56
                             2185.53  2186.37  2191.46  2207.40  2208.58
                             2373.29  2554.93  2586.63  4338.03  4342.51
                             4342.68  4346.85  4352.93  4353.20  4381.73
                             4382.30  4384.44  4384.74  4434.41  4434.72
                             4444.30  4444.66  4451.67  4452.06  4531.72
                             4534.12  4541.43  4542.68

 Zero-point correction=                           0.329387 (Hartree/Particle)
 Thermal correction to Energy=                    0.346575
 Thermal correction to Enthalpy=                  0.347520
 Thermal correction to Gibbs Free Energy=         0.281382
 Sum of electronic and zero-point Energies=           -838.433928
 Sum of electronic and thermal Energies=              -838.416740
 Sum of electronic and thermal Enthalpies=            -838.415796
 Sum of electronic and thermal Free Energies=         -838.481933

                     E (Thermal)             CV                S
                      KCal/Mol        Cal/Mol-Kelvin    Cal/Mol-Kelvin
 Total                  217.479             64.723            139.199
 Electronic               0.000              0.000              0.000
 Translational            0.889              2.981             42.475
 Rotational               0.889              2.981             33.636
 Vibrational            215.702             58.761             63.088
 Vibration     1          0.593              1.986              7.168
 Vibration     2          0.594              1.982              5.395
 Vibration     3          0.594              1.981              5.307
 Vibration     4          0.595              1.978              4.907
 Vibration     5          0.596              1.975              4.619
 Vibration     6          0.597              1.973              4.402
 Vibration     7          0.600              1.961              3.809
 Vibration     8          0.628              1.872              2.371
 Vibration     9          0.634              1.852              2.214
 Vibration    10          0.638              1.839              2.124
 Vibration    11          0.647              1.811              1.961
 Vibration    12          0.666              1.752              1.688
 Vibration    13          0.675              1.727              1.590
 Vibration    14          0.693              1.673              1.414
 Vibration    15          0.709              1.627              1.290
 Vibration    16          0.738              1.545              1.103
 Vibration    17          0.751              1.509              1.033
 Vibration    18          0.760              1.485              0.989
 Vibration    19          0.771              1.457              0.941
 Vibration    20          0.805              1.371              0.809
 Vibration    21          0.809              1.360              0.794
 Vibration    22          0.833              1.302              0.719
 Vibration    23          0.881              1.193              0.597
 Vibration    24          0.906              1.139              0.543
 Vibration    25          0.933              1.083              0.492
 Vibration    26          0.941              1.067              0.478

 Optimization completed.
    -- Stationary point found.
 Normal termination of Gaussian 16 at Sat Aug 22 18:36:16 2020.
 Gaussian 16:  ES64L-G16RevA.03 25-Dec-2016

 ----------------------------------------------------------------------
 # TD(NStates=10, Root=1) B3LYP/6-31G* scf=qc volume pop=NPA density=cu
 rrent Geom=AllCheck Guess=Read
 ----------------------------------------------------------------------

 Structure from the checkpoint file:  "azadicarboxylate_5_conf53.chk"
 -------------------
 Title Card Required
 -------------------
 Charge =  0 Multiplicity = 1

                         Standard orientation:
 ---------------------------------------------------------------------
 Center     Atomic      Atomic             Coordinates (Angstroms)
 Number     Number       Type             X           Y           Z
 ---------------------------------------------------------------------
      1          6           0       -1.554138   -1.010852   -0.592328
      2          8           0       -1.344308   -2.209011   -0.488108
      3          7           0       -0.436872   -0.122887   -0.915522
      4          7           0        0.316237    0.056027    0.058876
      5          6           0        1.432056    0.947254   -0.256231
      6          8           0        1.220476    2.147356   -0.332542
      7          7           0        2.634609    0.326849   -0.314600
      8          6           0        3.850707    1.123131   -0.501191
      9          6           0        4.881076    0.798381    0.587449
     10          6           0        5.147118   -0.712966    0.664439
     11          6           0        3.834540   -1.490112    0.846536
     12          6           0        2.818288   -1.127665   -0.244398
     13          7           0       -2.755993   -0.387662   -0.551769
     14          6           0       -3.969917   -1.169040   -0.302482
     15          6           0       -4.667400   -0.687796    0.976759
     16          6           0       -4.914047    0.828749    0.936313
     17          6           0       -3.611862    1.591956    0.646571
     18          6           0       -2.937602    1.066607   -0.628300
     19          1           0        3.558711    2.173938   -0.489072
     20          1           0        4.269177    0.896498   -1.493655
     21          1           0        4.502735    1.158237    1.553382
     22          1           0        5.808676    1.345719    0.379104
     23          1           0        5.839950   -0.938012    1.483972
     24          1           0        5.638841   -1.042900   -0.262835
     25          1           0        3.397898   -1.257968    1.826827
     26          1           0        4.015840   -2.571477    0.820229
     27          1           0        1.854459   -1.603525   -0.058528
     28          1           0        3.177162   -1.481058   -1.223182
     29          1           0       -3.678687   -2.218227   -0.240060
     30          1           0       -4.641829   -1.048635   -1.165629
     31          1           0       -4.035781   -0.938647    1.839148
     32          1           0       -5.612675   -1.230876    1.099191
     33          1           0       -5.352314    1.169244    1.881984
     34          1           0       -5.649035    1.055741    0.149632
     35          1           0       -2.915436    1.476003    1.487440
     36          1           0       -3.807314    2.665230    0.533053
     37          1           0       -1.970463    1.544187   -0.790856
     38          1           0       -3.568036    1.287587   -1.502660
 ---------------------------------------------------------------------

 SCF Done:  E(RB3LYP) =  -838.763315170     a.u. after    1 cycles

 Excitation energies and oscillator strengths:

 Excited State   1:      Singlet-A      2.6559 eV  466.83 nm  f=0.0000  <S**2>=0.000
      68 -> 69         0.69734
 This state for optimization and/or second-order correction.
 Total Energy, E(TD-HF/TD-DFT) =  -838.665714432
 Copying the excited state density for this state as the 1-particle RhoCI density.

 Excited State   2:      Singlet-A      3.8376 eV  323.08 nm  f=0.0015  <S**2>=0.000
      66 -> 69        -0.30062
      67 -> 69         0.63413

 Excited State   3:      Singlet-A      3.8613 eV  321.09 nm  f=0.0019  <S**2>=0.000
      66 -> 69         0.63317
      67 -> 69         0.30298

 Excited State   4:      Singlet-A      4.3839 eV  282.81 nm  f=0.0429  <S**2>=0.000
      65 -> 69         0.69355

 Excited State   5:      Singlet-A      5.0154 eV  247.21 nm  f=0.0000  <S**2>=0.000
      64 -> 69         0.68250
      68 -> 70        -0.10570

 Excited State   6:      Singlet-A      5.7564 eV  215.38 nm  f=0.0482  <S**2>=0.000
      65 -> 70         0.18715
      68 -> 70         0.52162
      68 -> 71         0.41482

 Excited State   7:      Singlet-A      5.8113 eV  213.35 nm  f=0.0053  <S**2>=0.000
      64 -> 69        -0.12580
      65 -> 71        -0.18781
      68 -> 70        -0.40359
      68 -> 71         0.51764

 Excited State   8:      Singlet-A      6.3935 eV  193.92 nm  f=0.0022  <S**2>=0.000
      59 -> 69        -0.15726
      61 -> 69         0.16398
      63 -> 69         0.65070

 Excited State   9:      Singlet-A      6.4686 eV  191.67 nm  f=0.0004  <S**2>=0.000
      60 -> 69         0.23642
      62 -> 69         0.65459

 Excited State  10:      Singlet-A      6.5056 eV  190.58 nm  f=0.0539  <S**2>=0.000
      59 -> 69        -0.39254
      60 -> 69         0.45245
      62 -> 69        -0.23333
      63 -> 69        -0.21353

 The electronic state is 1-A.
 Alpha  occ. eigenvalues --  -19.12112 -19.12073 -14.40321 -14.40264 -14.37158
 Alpha  occ. eigenvalues --  -14.37118 -10.30881 -10.30849 -10.22687 -10.22654
 Alpha  occ. eigenvalues --  -10.22198 -10.22182 -10.19209 -10.19190 -10.19157
 Alpha  occ. eigenvalues --  -10.19129 -10.19114 -10.19094  -1.08207  -1.04575
 Alpha  occ. eigenvalues --   -1.00770  -0.94885  -0.94735  -0.81200  -0.80552
 Alpha  occ. eigenvalues --   -0.77507  -0.76847  -0.75001  -0.69199  -0.66895
 Alpha  occ. eigenvalues --   -0.64264  -0.63572  -0.60178  -0.58898  -0.55815
 Alpha  occ. eigenvalues --   -0.54350  -0.52857  -0.49127  -0.48019  -0.47639
 Alpha  occ. eigenvalues --   -0.46599  -0.46417  -0.45847  -0.45010  -0.43867
 Alpha  occ. eigenvalues --   -0.43817  -0.43136  -0.42389  -0.41796  -0.41420
 Alpha  occ. eigenvalues --   -0.39994  -0.39659  -0.38378  -0.38082  -0.36539
 Alpha  occ. eigenvalues --   -0.36123  -0.36012  -0.34372  -0.34077  -0.33404
 Alpha  occ. eigenvalues --   -0.33304  -0.33018  -0.32874  -0.29744  -0.26872
 Alpha  occ. eigenvalues --   -0.24577  -0.24450  -0.22419
 Alpha virt. eigenvalues --   -0.06819   0.03298   0.03504   0.08740   0.08894
 Alpha virt. eigenvalues --    0.10868   0.10941   0.12675   0.12774   0.13998
 Alpha virt. eigenvalues --    0.14299   0.14441   0.14579   0.15620   0.15882

 Mulliken charges:
               1
     1  C    0.700306
     2  O   -0.468364
     3  N   -0.281348
     4  N   -0.283268
     5  C    0.699476
     6  O   -0.468624
     7  N   -0.403262
     8  C   -0.148346
     9  C   -0.264499
    10  C   -0.269360
    11  C   -0.263859
    12  C   -0.149555
    13  N   -0.399714
    14  C   -0.151036
    15  C   -0.262856
    16  C   -0.269409
    17  C   -0.261410
    18  C   -0.154963
    19  H    0.190551
    20  H    0.147458
    21  H    0.148262
    22  H    0.142840
    23  H    0.142581
    24  H    0.133103
    25  H    0.147464
    26  H    0.144594
    27  H    0.207473
    28  H    0.145783
    29  H    0.190369
    30  H    0.146449
    31  H    0.149484
    32  H    0.141518
    33  H    0.142607
    34  H    0.131670
    35  H    0.151145
    36  H    0.143832
    37  H    0.208231
    38  H    0.144676
 Sum of Mulliken charges =  -0.00000

 Dipole moment (field-independent basis, Debye):
    X=              0.1333    Y=              0.0566    Z=              0.6731  Tot=              0.6885
 Quadrupole moment (field-independent basis, Debye-Ang):
   XX=            -76.4796   YY=           -116.4210   ZZ=           -106.6171
   XY=             -4.7696   XZ=             -0.3041   YZ=             -0.5839

 Summary of Natural Population Analysis:

                                       Natural Population
                Natural  -----------------------------------------------
    Atom  No    Charge         Core      Valence    Rydberg      Total
 -----------------------------------------------------------------------
      C    1    0.79535      1.99934     3.15847    0.04684     5.20465
      O    2   -0.57138      1.99979     6.55304    0.01855     8.57138
      N    3   -0.24923      1.99941     5.22369    0.02612     7.24923
      N    4   -0.25253      1.99941     5.22708    0.02603     7.25253
      C    5    0.79713      1.99934     3.15681    0.04672     5.20287
      O    6   -0.57264      1.99979     6.55431    0.01854     8.57264
      N    7   -0.47109      1.99927     5.45892    0.01290     7.47109
      C    8   -0.25926      1.99932     4.24375    0.01620     6.25926
      C    9   -0.47146      1.99932     4.46074    0.01140     6.47146
      C   10   -0.46524      1.99933     4.45437    0.01154     6.46524
      C   11   -0.47070      1.99932     4.45990    0.01148     6.47070
      C   12   -0.26151      1.99930     4.24608    0.01613     6.26151
      N   13   -0.47011      1.99928     5.45794    0.01289     7.47011
      C   14   -0.25936      1.99932     4.24388    0.01616     6.25936
      C   15   -0.47181      1.99932     4.46117    0.01132     6.47181
      C   16   -0.46554      1.99933     4.45467    0.01155     6.46554
      C   17   -0.47197      1.99932     4.46120    0.01146     6.47197
      C   18   -0.26153      1.99930     4.24592    0.01631     6.26153
      H   19    0.26780      0.00000     0.73017    0.00203     0.73220
      H   20    0.22495      0.00000     0.77304    0.00201     0.77505
      H   21    0.23631      0.00000     0.76181    0.00188     0.76369
      H   22    0.24562      0.00000     0.75326    0.00113     0.75438
      H   23    0.24436      0.00000     0.75453    0.00111     0.75564
      H   24    0.22670      0.00000     0.77136    0.00194     0.77330
      H   25    0.23579      0.00000     0.76214    0.00207     0.76421
      H   26    0.24646      0.00000     0.75244    0.00110     0.75354
      H   27    0.27345      0.00000     0.72412    0.00243     0.72655
      H   28    0.22422      0.00000     0.77350    0.00227     0.77578
      H   29    0.26759      0.00000     0.73035    0.00205     0.73241
      H   30    0.22575      0.00000     0.77220    0.00205     0.77425
      H   31    0.23686      0.00000     0.76125    0.00189     0.76314
      H   32    0.24438      0.00000     0.75449    0.00113     0.75562
      H   33    0.24435      0.00000     0.75454    0.00111     0.75565
      H   34    0.22579      0.00000     0.77227    0.00194     0.77421
      H   35    0.23794      0.00000     0.76007    0.00199     0.76206
      H   36    0.24593      0.00000     0.75294    0.00112     0.75407
      H   37    0.27342      0.00000     0.72415    0.00243     0.72658
      H   38    0.22524      0.00000     0.77258    0.00217     0.77476
 =======================================================================
   * Total *    0.00000     35.98882    99.63317    0.37801   136.00000

 Normal termination of Gaussian 16 at Sat Aug 22 18:47:07 2020.
