 Gaussian 16, Revision A.03,

 ---------------------------------
 # opt=CalcAll B3LYP/6-31G* scf=qc
 ---------------------------------

 -------------------
 Title Card Required
 -------------------
 Symbolic Z-matrix:
 Charge =  0 Multiplicity = 1

 SCF Done:  E(RB3LYP) =  -838.713886191     a.u. after   10 cycles
 SCF Done:  E(RB3LYP) =  -838.725338317     a.u. after   21 cycles
 SCF Done:  E(RB3LYP) =  -838.732602255     a.u. after   17 cycles
 SCF Done:  E(RB3LYP) =  -838.754892719     a.u. after   21 cycles
 SCF Done:  E(RB3LYP) =  -838.760563631     a.u. after   21 cycles
 SCF Done:  E(RB3LYP) =  -838.762924581     a.u. after   13 cycles
 SCF Done:  E(RB3LYP) =  -838.763272454     a.u. after   11 cycles
 SCF Done:  E(RB3LYP) =  -838.763314370     a.u. after    9 cycles
 SCF Done:  E(RB3LYP) =  -838.763315173     a.u. after    2 cycles
 Optimization completed.
    -- Stationary point found.
 Normal termination of Gaussian 16 at Sat Aug 22 17:20:16 2020.

 ----------------------------------------------------------------------
 # freq B3LYP/6-31G* scf=qc volume NMR pop=NPA density=current Geom=All
 Check Guess=Read
 ----------------------------------------------------------------------

 Structure from the checkpoint file:  "azadicarboxylate_5_conf262.chk"
 -------------------
 Title Card Required
 -------------------
 Charge =  0 Multiplicity = 1

 SCF Done:  E(RB3LYP) =  -838.763315173     a.u. after    1 cycles

      1  C    Isotropic =    36.1514   Anisotropy =    77.5235

      2  O    Isotropic =     1.6571   Anisotropy =   440.0119

      3  N    Isotropic =  -352.7581   Anisotropy =   728.0931

      4  N    Isotropic =  -352.0335   Anisotropy =   725.6661

      5  C    Isotropic =    36.0166   Anisotropy =    77.6521

      6  O    Isotropic =     1.7258   Anisotropy =   440.3645

      7  N    Isotropic =   148.2432   Anisotropy =    66.7652

      8  C    Isotropic =   146.8852   Anisotropy =    26.0127

      9  C    Isotropic =   162.9424   Anisotropy =     6.7321

     10  C    Isotropic =   164.1198   Anisotropy =     3.8077

     11  C    Isotropic =   163.1385   Anisotropy =     6.6568

     12  C    Isotropic =   145.5298   Anisotropy =    24.4336

     13  N    Isotropic =   147.9095   Anisotropy =    64.7747

     14  C    Isotropic =   146.6742   Anisotropy =    25.9778

     15  C    Isotropic =   162.9842   Anisotropy =     7.1415

     16  C    Isotropic =   164.1520   Anisotropy =     3.9774

     17  C    Isotropic =   163.1970   Anisotropy =     5.5663

     18  C    Isotropic =   145.5758   Anisotropy =    25.0260

     19  H    Isotropic =    27.8411   Anisotropy =     6.2236

     20  H    Isotropic =    29.6016   Anisotropy =     8.1853

     21  H    Isotropic =    30.4021   Anisotropy =     7.1797

     22  H    Isotropic =    30.6501   Anisotropy =     9.3793

     23  H    Isotropic =    30.3796   Anisotropy =     9.3961

     24  H    Isotropic =    30.6657   Anisotropy =     7.8643

     25  H    Isotropic =    30.4593   Anisotropy =     7.1164

     26  H    Isotropic =    30.8098   Anisotropy =     9.2301

     27  H    Isotropic =    28.9782   Anisotropy =     9.5507

     28  H    Isotropic =    29.5066   Anisotropy =     7.6851

     29  H    Isotropic =    27.8399   Anisotropy =     6.0986

     30  H    Isotropic =    29.5335   Anisotropy =     8.0621

     31  H    Isotropic =    30.6131   Anisotropy =     7.0807

     32  H    Isotropic =    30.7261   Anisotropy =     9.4495

     33  H    Isotropic =    30.4416   Anisotropy =     9.5005

     34  H    Isotropic =    30.6798   Anisotropy =     7.9043

     35  H    Isotropic =    30.7592   Anisotropy =     7.3905

     36  H    Isotropic =    30.8468   Anisotropy =     9.2064

     37  H    Isotropic =    29.0005   Anisotropy =     8.0932

     38  H    Isotropic =    29.3618   Anisotropy =     7.3358

  Exact polarizability: 210.271   2.473 150.830   1.957   0.549 115.536
 Approx polarizability: 241.960  10.578 238.311   7.321  -0.237 179.661

                      1                      2                      3
                      A                      A                      A
 Frequencies --     15.2893                37.3326                39.0513
 Red. masses --      4.8675                 4.4690                 4.9139
 Frc consts  --      0.0007                 0.0037                 0.0044
 IR Inten    --      3.2823                 1.7624                 3.4955

                      4                      5                      6
                      A                      A                      A
 Frequencies --     47.7810                55.2474                61.6778
 Red. masses --      3.4664                 4.4051                 5.0527
 Frc consts  --      0.0047                 0.0079                 0.0113
 IR Inten    --      0.4274                 0.2431                 2.0987

                      7                      8                      9
                      A                      A                      A
 Frequencies --     83.3976               175.9303               191.3711
 Red. masses --      4.7501                 2.9765                 3.2112
 Frc consts  --      0.0195                 0.0543                 0.0693
 IR Inten    --      0.1762                 0.1678                 8.1985

                     10                     11                     12
                      A                      A                      A
 Frequencies --    200.9744               219.7793               256.1994
 Red. masses --      5.8031                 5.0988                 2.2154
 Frc consts  --      0.1381                 0.1451                 0.0857
 IR Inten    --      2.3935                 0.2956                 0.8610

                     13                     14                     15
                      A                      A                      A
 Frequencies --    270.9727               300.4638               323.9874
 Red. masses --      2.5133                 2.5589                 2.8208
 Frc consts  --      0.1087                 0.1361                 0.1745
 IR Inten    --      2.6975                 1.8701                22.2108

                     16                     17                     18
                      A                      A                      A
 Frequencies --    364.5464               381.6627               392.8595
 Red. masses --      5.5692                 4.9126                 1.8098
 Frc consts  --      0.4361                 0.4216                 0.1646
 IR Inten    --      1.3495                 1.6248                 2.4557

                     19                     20                     21
                      A                      A                      A
 Frequencies --    405.9819               445.5021               450.4899
 Red. masses --      1.7848                 3.1822                 2.9945
 Frc consts  --      0.1733                 0.3721                 0.3581
 IR Inten    --      2.4534                 0.1292                 0.8401

                     22                     23                     24
                      A                      A                      A
 Frequencies --    476.6184               525.7951               550.4782
 Red. masses --      3.4205                 2.0174                 2.1760
 Frc consts  --      0.4578                 0.3286                 0.3885
 IR Inten    --      0.1276                 8.6730                 0.8296

                     25                     26                     27
                      A                      A                      A
 Frequencies --    576.3122               583.7376               627.2997
 Red. masses --      6.2031                 5.6978                 3.5405
 Frc consts  --      1.2139                 1.1439                 0.8208
 IR Inten    --     19.6339                 3.4375                10.3116

                     28                     29                     30
                      A                      A                      A
 Frequencies --    687.8355               747.9801               795.1621
 Red. masses --      3.8347                 5.4914                11.6069
 Frc consts  --      1.0689                 1.8101                 4.3239
 IR Inten    --      0.3103                 2.8947                20.4415

                     31                     32                     33
                      A                      A                      A
 Frequencies --    823.3178               825.1687               834.4541
 Red. masses --      1.5090                 1.5043                 3.1928
 Frc consts  --      0.6026                 0.6035                 1.3098
 IR Inten    --      0.2654                 0.2581                 0.7697

                     34                     35                     36
                      A                      A                      A
 Frequencies --    843.2758               869.5306               869.9123
 Red. masses --      3.0699                 1.4006                 1.4217
 Frc consts  --      1.2862                 0.6239                 0.6339
 IR Inten    --      3.3677                 9.8251                 7.6252

                     37                     38                     39
                      A                      A                      A
 Frequencies --    891.8818               910.3539               922.0470
 Red. masses --      3.2478                 2.5246                 3.1703
 Frc consts  --      1.5221                 1.2327                 1.5880
 IR Inten    --      0.0516                 7.7216                 0.2392

                     40                     41                     42
                      A                      A                      A
 Frequencies --    971.5888               977.1637               979.4039
 Red. masses --      2.7183                 1.5629                 1.3831
 Frc consts  --      1.5118                 0.8792                 0.7817
 IR Inten    --      4.1631                 1.1875                 4.2494

                     43                     44                     45
                      A                      A                      A
 Frequencies --    981.8696              1036.0635              1041.1041
 Red. masses --      2.6654                 2.7548                 2.5567
 Frc consts  --      1.5140                 1.7422                 1.6328
 IR Inten    --      0.4164                 5.6620                78.7547

                     46                     47                     48
                      A                      A                      A
 Frequencies --   1048.1236              1054.6527              1083.5374
 Red. masses --      2.1586                 2.2449                 1.7166
 Frc consts  --      1.3972                 1.4712                 1.1874
 IR Inten    --      0.3496                 3.1196                 0.2780

                     49                     50                     51
                      A                      A                      A
 Frequencies --   1084.7345              1154.9858              1158.4326
 Red. masses --      1.7104                 2.1700                 2.1371
 Frc consts  --      1.1857                 1.7055                 1.6898
 IR Inten    --      0.2287                 2.6423                16.1790

                     52                     53                     54
                      A                      A                      A
 Frequencies --   1169.4512              1172.3886              1195.6575
 Red. masses --      1.8911                 2.0040                 1.2513
 Frc consts  --      1.5238                 1.6229                 1.0539
 IR Inten    --     16.1822                77.8930                 1.3881

                     55                     56                     57
                      A                      A                      A
 Frequencies --   1197.0127              1261.1970              1264.1891
 Red. masses --      1.2643                 1.7978                 1.7924
 Frc consts  --      1.0673                 1.6849                 1.6877
 IR Inten    --      1.3039               148.2552               135.5890

                     58                     59                     60
                      A                      A                      A
 Frequencies --   1287.5597              1293.0907              1300.8506
 Red. masses --      2.2580                 1.8231                 1.2626
 Frc consts  --      2.2055                 1.7961                 1.2588
 IR Inten    --    280.9212                10.9364                21.3247

                     61                     62                     63
                      A                      A                      A
 Frequencies --   1303.2918              1323.2846              1323.7661
 Red. masses --      1.3609                 1.2221                 1.2027
 Frc consts  --      1.3619                 1.2608                 1.2418
 IR Inten    --     10.0296                19.6486                24.5545

                     64                     65                     66
                      A                      A                      A
 Frequencies --   1371.0175              1372.7507              1398.1273
 Red. masses --      1.2808                 1.2875                 1.3696
 Frc consts  --      1.4185                 1.4295                 1.5774
 IR Inten    --      0.0336                 0.5147                 1.6691

                     67                     68                     69
                      A                      A                      A
 Frequencies --   1398.3840              1400.8296              1401.6506
 Red. masses --      1.3865                 1.4607                 1.4636
 Frc consts  --      1.5974                 1.6888                 1.6942
 IR Inten    --      2.1145                 1.5651                 3.0475

                     70                     71                     72
                      A                      A                      A
 Frequencies --   1403.5418              1405.7890              1421.6420
 Red. masses --      1.4502                 1.4411                 1.3326
 Frc consts  --      1.6832                 1.6780                 1.5869
 IR Inten    --      3.4407                 4.1439                 8.7156

                     73                     74                     75
                      A                      A                      A
 Frequencies --   1425.4010              1481.8626              1485.9940
 Red. masses --      1.3433                 2.8815                 3.0632
 Frc consts  --      1.6080                 3.7281                 3.9853
 IR Inten    --     10.2773               413.4028                 3.2755

                     76                     77                     78
                      A                      A                      A
 Frequencies --   1507.8970              1507.9230              1514.4321
 Red. masses --      1.0951                 1.0950                 1.0860
 Frc consts  --      1.4670                 1.4670                 1.4676
 IR Inten    --      0.1118                 1.7806                 5.7057

                     79                     80                     81
                      A                      A                      A
 Frequencies --   1514.7554              1516.9492              1519.0185
 Red. masses --      1.0859                 1.0894                 1.0868
 Frc consts  --      1.4680                 1.4769                 1.4774
 IR Inten    --      5.2447                12.8383                 4.0107

                     82                     83                     84
                      A                      A                      A
 Frequencies --   1519.5988              1523.1352              1534.2191
 Red. masses --      1.0997                 1.0939                 1.1006
 Frc consts  --      1.4961                 1.4953                 1.5264
 IR Inten    --     10.1921                 4.4679                 3.0784

                     85                     86                     87
                      A                      A                      A
 Frequencies --   1535.0367              1649.5515              1775.7633
 Red. masses --      1.0997                13.7874                11.6206
 Frc consts  --      1.5268                22.1037                21.5898
 IR Inten    --      4.1731                 0.0316                 1.1393

                     88                     89                     90
                      A                      A                      A
 Frequencies --   1797.7976              3015.0678              3018.2095
 Red. masses --     11.7124                 1.0732                 1.0729
 Frc consts  --     22.3038                 5.7483                 5.7582
 IR Inten    --    854.1076                12.2281                12.2351

                     91                     92                     93
                      A                      A                      A
 Frequencies --   3018.3022              3021.2216              3025.4378
 Red. masses --      1.0729                 1.0718                 1.0699
 Frc consts  --      5.7591                 5.7639                 5.7700
 IR Inten    --     38.3553                30.8745                82.6321

                     94                     95                     96
                      A                      A                      A
 Frequencies --   3025.6256              3045.4518              3045.8485
 Red. masses --      1.0697                 1.0609                 1.0608
 Frc consts  --      5.7695                 5.7973                 5.7982
 IR Inten    --     23.0526                25.4407                25.3835

                     97                     98                     99
                      A                      A                      A
 Frequencies --   3047.3370              3047.5400              3082.0699
 Red. masses --      1.0617                 1.0616                 1.0934
 Frc consts  --      5.8090                 5.8093                 6.1193
 IR Inten    --     19.3288                21.1260                59.8711

                    100                    101                    102
                      A                      A                      A
 Frequencies --   3082.2842              3088.9403              3089.1869
 Red. masses --      1.0933                 1.1036                 1.1038
 Frc consts  --      6.1199                 6.2040                 6.2061
 IR Inten    --     43.1536                31.8297                31.9499

                    103                    104                    105
                      A                      A                      A
 Frequencies --   3094.0671              3094.3349              3149.6864
 Red. masses --      1.1049                 1.1049                 1.0920
 Frc consts  --      6.2322                 6.2334                 6.3830
 IR Inten    --     60.6003                69.0520                 6.9694

                    106                    107                    108
                      A                      A                      A
 Frequencies --   3151.3569              3156.4570              3157.3262
 Red. masses --      1.0927                 1.0916                 1.0919
 Frc consts  --      6.3937                 6.4080                 6.4134
 IR Inten    --      5.2801                 3.6658                 3.5106

 - Thermochemistry -
 -------------------
 Temperature   298.150 Kelvin.  Pressure   1.00000 Atm.
 Atom     1 has atomic number  6 and mass  12.00000

 Molecular mass:   252.15863 amu.
 Principal axes and moments of inertia in atomic units:
                           1         2         3
     Eigenvalues --  1722.58629********************
           X            0.99997   0.00821  -0.00140
           Y           -0.00819   0.99993   0.00827
           Z            0.00147  -0.00826   0.99996
 This molecule is an asymmetric top.
 Rotational symmetry number  1.
 Warning -- assumption of classical behavior for rotation
           may cause significant error
 Rotational temperatures (Kelvin)      0.05028     0.00849     0.00778
 Rotational constants (GHZ):           1.04769     0.17692     0.16208
 Zero-point vibrational energy     864803.6 (Joules/Mol)
                                  206.69303 (Kcal/Mol)
 Warning -- explicit consideration of  26 degrees of freedom as
           vibrations may cause significant error
 Vibrational temperatures:     22.00    53.71    56.19    68.75    79.49
          (Kelvin)             88.74   119.99   253.12   275.34   289.16
                              316.21   368.61   389.87   432.30   466.15
                              524.50   549.13   565.24   584.12   640.98
                              648.15   685.75   756.50   792.02   829.18
                              839.87   902.54   989.64  1076.18  1144.06
                             1184.57  1187.23  1200.59  1213.29  1251.06
                             1251.61  1283.22  1309.80  1326.62  1397.90
                             1405.92  1409.14  1412.69  1490.66  1497.92
                             1508.02  1517.41  1558.97  1560.69  1661.77
                             1666.73  1682.58  1686.81  1720.28  1722.23
                             1814.58  1818.89  1852.51  1860.47  1871.63
                             1875.15  1903.91  1904.60  1972.59  1975.08
                             2011.59  2011.96  2015.48  2016.66  2019.38
                             2022.62  2045.43  2050.83  2132.07  2138.01
                             2169.53  2169.56  2178.93  2179.40  2182.55
                             2185.53  2186.36  2191.45  2207.40  2208.58
                             2373.34  2554.93  2586.63  4338.01  4342.53
                             4342.66  4346.86  4352.93  4353.20  4381.73
                             4382.30  4384.44  4384.73  4434.41  4434.72
                             4444.30  4444.65  4451.67  4452.06  4531.70
                             4534.10  4541.44  4542.69

 Zero-point correction=                           0.329386 (Hartree/Particle)
 Thermal correction to Energy=                    0.346575
 Thermal correction to Enthalpy=                  0.347519
 Thermal correction to Gibbs Free Energy=         0.281381
 Sum of electronic and zero-point Energies=           -838.433929
 Sum of electronic and thermal Energies=              -838.416740
 Sum of electronic and thermal Enthalpies=            -838.415796
 Sum of electronic and thermal Free Energies=         -838.481934

                     E (Thermal)             CV                S
                      KCal/Mol        Cal/Mol-Kelvin    Cal/Mol-Kelvin
 Total                  217.479             64.723            139.199
 Electronic               0.000              0.000              0.000
 Translational            0.889              2.981             42.475
 Rotational               0.889              2.981             33.636
 Vibrational            215.702             58.761             63.088
 Vibration     1          0.593              1.986              7.168
 Vibration     2          0.594              1.982              5.396
 Vibration     3          0.594              1.981              5.307
 Vibration     4          0.595              1.978              4.907
 Vibration     5          0.596              1.975              4.620
 Vibration     6          0.597              1.973              4.403
 Vibration     7          0.600              1.961              3.809
 Vibration     8          0.628              1.872              2.371
 Vibration     9          0.634              1.852              2.215
 Vibration    10          0.638              1.839              2.124
 Vibration    11          0.647              1.811              1.961
 Vibration    12          0.666              1.752              1.688
 Vibration    13          0.675              1.727              1.590
 Vibration    14          0.693              1.673              1.414
 Vibration    15          0.709              1.627              1.290
 Vibration    16          0.738              1.545              1.103
 Vibration    17          0.751              1.509              1.033
 Vibration    18          0.760              1.485              0.989
 Vibration    19          0.771              1.457              0.941
 Vibration    20          0.805              1.371              0.809
 Vibration    21          0.809              1.360              0.794
 Vibration    22          0.833              1.302              0.719
 Vibration    23          0.881              1.193              0.597
 Vibration    24          0.906              1.139              0.543
 Vibration    25          0.933              1.082              0.492
 Vibration    26          0.941              1.067              0.478

 Optimization completed.
    -- Stationary point found.
 Normal termination of Gaussian 16 at Sat Aug 22 17:29:22 2020.
 Gaussian 16:  ES64L-G16RevA.03 25-Dec-2016

 ----------------------------------------------------------------------
 # TD(NStates=10, Root=1) B3LYP/6-31G* scf=qc volume pop=NPA density=cu
 rrent Geom=AllCheck Guess=Read
 ----------------------------------------------------------------------

 Structure from the checkpoint file:  "azadicarboxylate_5_conf263.chk"
 -------------------
 Title Card Required
 -------------------
 Charge =  0 Multiplicity = 1

                         Standard orientation:
 ---------------------------------------------------------------------
 Center     Atomic      Atomic             Coordinates (Angstroms)
 Number     Number       Type             X           Y           Z
 ---------------------------------------------------------------------
      1          6           0        1.554365   -1.010733    0.592625
      2          8           0        1.344553   -2.208902    0.488525
      3          7           0        0.437145   -0.122659    0.915745
      4          7           0       -0.316324    0.055651   -0.058479
      5          6           0       -1.432080    0.947017    0.256535
      6          8           0       -1.220426    2.147090    0.333066
      7          7           0       -2.634712    0.326714    0.314560
      8          6           0       -3.850751    1.123083    0.501172
      9          6           0       -4.881097    0.798528   -0.587548
     10          6           0       -5.147271   -0.712787   -0.664689
     11          6           0       -3.834752   -1.490025   -0.846805
     12          6           0       -2.818511   -1.127776    0.244205
     13          7           0        2.756228   -0.387539    0.551972
     14          6           0        3.970123   -1.168905    0.302514
     15          6           0        4.667245   -0.687862   -0.977002
     16          6           0        4.913839    0.828704   -0.936902
     17          6           0        3.611710    1.591917   -0.646905
     18          6           0        2.937839    1.066744    0.628245
     19          1           0       -3.558664    2.173865    0.489168
     20          1           0       -4.269296    0.896393    1.493592
     21          1           0       -4.502678    1.158439   -1.553431
     22          1           0       -5.808656    1.345932   -0.379195
     23          1           0       -5.840088   -0.937697   -1.484273
     24          1           0       -5.639062   -1.042765    0.262533
     25          1           0       -3.398050   -1.257821   -1.827054
     26          1           0       -4.016143   -2.571378   -0.820612
     27          1           0       -1.854712   -1.603685    0.058304
     28          1           0       -3.177444   -1.481251    1.222938
     29          1           0        3.678933   -2.218119    0.240360
     30          1           0        4.642250   -1.048298    1.165463
     31          1           0        4.035404   -0.938902   -1.839174
     32          1           0        5.612511   -1.230922   -1.099593
     33          1           0        5.351809    1.169045   -1.882767
     34          1           0        5.649055    1.055867   -0.150484
     35          1           0        2.915047    1.475811   -1.487557
     36          1           0        3.807163    2.665215   -0.533613
     37          1           0        1.970741    1.544327    0.791042
     38          1           0        3.568544    1.287838    1.502379
 ---------------------------------------------------------------------

 SCF Done:  E(RB3LYP) =  -838.763315173     a.u. after    1 cycles

 Excitation energies and oscillator strengths:

 Excited State   1:      Singlet-A      2.6553 eV  466.92 nm  f=0.0000  <S**2>=0.000
      68 -> 69         0.69733
 This state for optimization and/or second-order correction.
 Total Energy, E(TD-HF/TD-DFT) =  -838.665733386
 Copying the excited state density for this state as the 1-particle RhoCI density.

 Excited State   2:      Singlet-A      3.8373 eV  323.10 nm  f=0.0015  <S**2>=0.000
      66 -> 69        -0.30002
      67 -> 69         0.63440

 Excited State   3:      Singlet-A      3.8611 eV  321.11 nm  f=0.0019  <S**2>=0.000
      66 -> 69         0.63343
      67 -> 69         0.30239

 Excited State   4:      Singlet-A      4.3831 eV  282.87 nm  f=0.0428  <S**2>=0.000
      65 -> 69         0.69356

 Excited State   5:      Singlet-A      5.0151 eV  247.22 nm  f=0.0000  <S**2>=0.000
      64 -> 69         0.68252
      68 -> 70         0.10547

 Excited State   6:      Singlet-A      5.7565 eV  215.38 nm  f=0.0484  <S**2>=0.000
      65 -> 70         0.18694
      68 -> 70         0.52182
      68 -> 71         0.41460

 Excited State   7:      Singlet-A      5.8115 eV  213.34 nm  f=0.0052  <S**2>=0.000
      64 -> 69         0.12587
      65 -> 71        -0.18766
      68 -> 70        -0.40338
      68 -> 71         0.51779

 Excited State   8:      Singlet-A      6.3931 eV  193.93 nm  f=0.0022  <S**2>=0.000
      59 -> 69         0.15733
      61 -> 69        -0.16391
      63 -> 69         0.65072

 Excited State   9:      Singlet-A      6.4682 eV  191.68 nm  f=0.0004  <S**2>=0.000
      60 -> 69        -0.23634
      62 -> 69         0.65461

 Excited State  10:      Singlet-A      6.5052 eV  190.59 nm  f=0.0540  <S**2>=0.000
      59 -> 69        -0.39252
      60 -> 69         0.45242
      62 -> 69         0.23338
      63 -> 69         0.21355

 The electronic state is 1-A.
 Alpha  occ. eigenvalues --  -19.12112 -19.12073 -14.40321 -14.40264 -14.37157
 Alpha  occ. eigenvalues --  -14.37117 -10.30881 -10.30849 -10.22687 -10.22654
 Alpha  occ. eigenvalues --  -10.22198 -10.22182 -10.19209 -10.19190 -10.19157
 Alpha  occ. eigenvalues --  -10.19129 -10.19114 -10.19094  -1.08207  -1.04575
 Alpha  occ. eigenvalues --   -1.00769  -0.94884  -0.94734  -0.81200  -0.80552
 Alpha  occ. eigenvalues --   -0.77507  -0.76847  -0.75001  -0.69199  -0.66895
 Alpha  occ. eigenvalues --   -0.64264  -0.63572  -0.60178  -0.58897  -0.55815
 Alpha  occ. eigenvalues --   -0.54349  -0.52855  -0.49127  -0.48019  -0.47639
 Alpha  occ. eigenvalues --   -0.46599  -0.46417  -0.45846  -0.45010  -0.43866
 Alpha  occ. eigenvalues --   -0.43817  -0.43136  -0.42389  -0.41796  -0.41420
 Alpha  occ. eigenvalues --   -0.39994  -0.39659  -0.38380  -0.38082  -0.36538
 Alpha  occ. eigenvalues --   -0.36123  -0.36012  -0.34372  -0.34077  -0.33404
 Alpha  occ. eigenvalues --   -0.33304  -0.33018  -0.32874  -0.29745  -0.26872
 Alpha  occ. eigenvalues --   -0.24577  -0.24450  -0.22418
 Alpha virt. eigenvalues --   -0.06820   0.03299   0.03505   0.08740   0.08894
 Alpha virt. eigenvalues --    0.10868   0.10941   0.12675   0.12774   0.13998
 Alpha virt. eigenvalues --    0.14300   0.14441   0.14579   0.15620   0.15882

 Mulliken charges:
               1
     1  C    0.700311
     2  O   -0.468363
     3  N   -0.281335
     4  N   -0.283263
     5  C    0.699499
     6  O   -0.468626
     7  N   -0.403288
     8  C   -0.148342
     9  C   -0.264499
    10  C   -0.269359
    11  C   -0.263861
    12  C   -0.149543
    13  N   -0.399716
    14  C   -0.151042
    15  C   -0.262854
    16  C   -0.269407
    17  C   -0.261408
    18  C   -0.154969
    19  H    0.190550
    20  H    0.147457
    21  H    0.148260
    22  H    0.142839
    23  H    0.142580
    24  H    0.133103
    25  H    0.147462
    26  H    0.144593
    27  H    0.207468
    28  H    0.145780
    29  H    0.190367
    30  H    0.146447
    31  H    0.149484
    32  H    0.141517
    33  H    0.142606
    34  H    0.131670
    35  H    0.151142
    36  H    0.143829
    37  H    0.208232
    38  H    0.144678
 Sum of Mulliken charges =  -0.00000

 Dipole moment (field-independent basis, Debye):
    X=             -0.1336    Y=              0.0569    Z=             -0.6745  Tot=              0.6900
 Quadrupole moment (field-independent basis, Debye-Ang):
   XX=            -76.4796   YY=           -116.4188   ZZ=           -106.6179
   XY=              4.7702   XZ=             -0.3046   YZ=              0.5835

 Summary of Natural Population Analysis:

                                       Natural Population
                Natural  -----------------------------------------------
    Atom  No    Charge         Core      Valence    Rydberg      Total
 -----------------------------------------------------------------------
      C    1    0.79534      1.99934     3.15848    0.04684     5.20466
      O    2   -0.57138      1.99979     6.55304    0.01855     8.57138
      N    3   -0.24921      1.99941     5.22367    0.02613     7.24921
      N    4   -0.25252      1.99941     5.22708    0.02603     7.25252
      C    5    0.79711      1.99934     3.15683    0.04672     5.20289
      O    6   -0.57264      1.99979     6.55431    0.01854     8.57264
      N    7   -0.47109      1.99927     5.45892    0.01290     7.47109
      C    8   -0.25927      1.99932     4.24375    0.01620     6.25927
      C    9   -0.47146      1.99932     4.46074    0.01140     6.47146
      C   10   -0.46524      1.99933     4.45437    0.01154     6.46524
      C   11   -0.47070      1.99932     4.45990    0.01148     6.47070
      C   12   -0.26150      1.99930     4.24608    0.01613     6.26150
      N   13   -0.47011      1.99928     5.45794    0.01289     7.47011
      C   14   -0.25936      1.99932     4.24388    0.01616     6.25936
      C   15   -0.47181      1.99932     4.46117    0.01132     6.47181
      C   16   -0.46554      1.99933     4.45466    0.01155     6.46554
      C   17   -0.47197      1.99932     4.46120    0.01145     6.47197
      C   18   -0.26153      1.99930     4.24592    0.01631     6.26153
      H   19    0.26780      0.00000     0.73017    0.00203     0.73220
      H   20    0.22495      0.00000     0.77304    0.00201     0.77505
      H   21    0.23631      0.00000     0.76181    0.00188     0.76369
      H   22    0.24561      0.00000     0.75326    0.00113     0.75439
      H   23    0.24436      0.00000     0.75453    0.00111     0.75564
      H   24    0.22670      0.00000     0.77136    0.00194     0.77330
      H   25    0.23579      0.00000     0.76214    0.00207     0.76421
      H   26    0.24646      0.00000     0.75245    0.00110     0.75354
      H   27    0.27345      0.00000     0.72412    0.00243     0.72655
      H   28    0.22422      0.00000     0.77351    0.00227     0.77578
      H   29    0.26759      0.00000     0.73035    0.00205     0.73241
      H   30    0.22575      0.00000     0.77220    0.00205     0.77425
      H   31    0.23686      0.00000     0.76125    0.00189     0.76314
      H   32    0.24438      0.00000     0.75449    0.00113     0.75562
      H   33    0.24435      0.00000     0.75454    0.00111     0.75565
      H   34    0.22579      0.00000     0.77227    0.00194     0.77421
      H   35    0.23794      0.00000     0.76007    0.00199     0.76206
      H   36    0.24593      0.00000     0.75295    0.00112     0.75407
      H   37    0.27342      0.00000     0.72415    0.00243     0.72658
      H   38    0.22525      0.00000     0.77258    0.00217     0.77475
 =======================================================================
   * Total *    0.00000     35.98882    99.63317    0.37801   136.00000

 Normal termination of Gaussian 16 at Sat Aug 22 17:40:34 2020.
