 Gaussian 16, Revision A.03,

 ---------------------------------
 # opt=CalcAll B3LYP/6-31G* scf=qc
 ---------------------------------

 -------------------
 Title Card Required
 -------------------
 Symbolic Z-matrix:
 Charge =  0 Multiplicity = 1

 SCF Done:  E(RB3LYP) =  -802.259847224     a.u. after    9 cycles
 SCF Done:  E(RB3LYP) =  -802.277853918     a.u. after   25 cycles
 SCF Done:  E(RB3LYP) =  -802.280276760     a.u. after   21 cycles
 SCF Done:  E(RB3LYP) =  -802.280478447     a.u. after   13 cycles
 SCF Done:  E(RB3LYP) =  -802.280548730     a.u. after   19 cycles
 SCF Done:  E(RB3LYP) =  -802.280615505     a.u. after   11 cycles
 SCF Done:  E(RB3LYP) =  -802.280617466     a.u. after    5 cycles
 SCF Done:  E(RB3LYP) =  -802.280617476     a.u. after    3 cycles
 Optimization completed.
    -- Stationary point found.
 Normal termination of Gaussian 16 at Sat Aug 22 13:36:44 2020.

 ----------------------------------------------------------------------
 # freq B3LYP/6-31G* scf=qc volume NMR pop=NPA density=current Geom=All
 Check Guess=Read
 ----------------------------------------------------------------------

 Structure from the checkpoint file:  "azadicarboxylate_1_conf122.chk"
 -------------------
 Title Card Required
 -------------------
 Charge =  0 Multiplicity = 1

 SCF Done:  E(RB3LYP) =  -802.280617476     a.u. after    1 cycles

      1  C    Isotropic =   165.2997   Anisotropy =    35.5123

      2  C    Isotropic =   106.2394   Anisotropy =    74.8535

      3  C    Isotropic =   164.2360   Anisotropy =    35.9506

      4  C    Isotropic =   159.5611   Anisotropy =    41.0474

      5  O    Isotropic =   126.5886   Anisotropy =   127.0097

      6  C    Isotropic =    35.3544   Anisotropy =    80.5217

      7  O    Isotropic =   -25.0045   Anisotropy =   483.8541

      8  N    Isotropic =  -317.3105   Anisotropy =   661.6582

      9  N    Isotropic =  -317.3101   Anisotropy =   661.6580

     10  C    Isotropic =    35.3545   Anisotropy =    80.5223

     11  O    Isotropic =   -25.0044   Anisotropy =   483.8547

     12  O    Isotropic =   126.5886   Anisotropy =   127.0091

     13  C    Isotropic =   106.2394   Anisotropy =    74.8535

     14  C    Isotropic =   165.2997   Anisotropy =    35.5122

     15  C    Isotropic =   159.5611   Anisotropy =    41.0473

     16  C    Isotropic =   164.2360   Anisotropy =    35.9506

     17  H    Isotropic =    31.0600   Anisotropy =     7.7983

     18  H    Isotropic =    30.8010   Anisotropy =     7.3540

     19  H    Isotropic =    29.3733   Anisotropy =     6.6753

     20  H    Isotropic =    31.1103   Anisotropy =     7.9637

     21  H    Isotropic =    29.5105   Anisotropy =     6.4612

     22  H    Isotropic =    30.8440   Anisotropy =     7.3203

     23  H    Isotropic =    31.1252   Anisotropy =     7.5227

     24  H    Isotropic =    30.7173   Anisotropy =     7.2818

     25  H    Isotropic =    30.6942   Anisotropy =     7.1286

     26  H    Isotropic =    30.8010   Anisotropy =     7.3540

     27  H    Isotropic =    29.3733   Anisotropy =     6.6753

     28  H    Isotropic =    31.0600   Anisotropy =     7.7983

     29  H    Isotropic =    30.6942   Anisotropy =     7.1286

     30  H    Isotropic =    31.1252   Anisotropy =     7.5227

     31  H    Isotropic =    30.7173   Anisotropy =     7.2818

     32  H    Isotropic =    29.5105   Anisotropy =     6.4612

     33  H    Isotropic =    30.8439   Anisotropy =     7.3203

     34  H    Isotropic =    31.1103   Anisotropy =     7.9637

  Exact polarizability: 172.572  -0.000 121.221  -3.954   0.000 106.943
 Approx polarizability: 204.057  -0.000 185.789 -10.203   0.000 156.547

                      1                      2                      3
                      A                      A                      A
 Frequencies --      9.1656                31.2591                39.8537
 Red. masses --      3.7807                 3.6786                 4.3784
 Frc consts  --      0.0002                 0.0021                 0.0041
 IR Inten    --      0.0487                 1.1914                 0.7856

                      4                      5                      6
                      A                      A                      A
 Frequencies --     51.0671                57.1428               108.9669
 Red. masses --      6.1090                 4.4449                 4.4148
 Frc consts  --      0.0094                 0.0086                 0.0309
 IR Inten    --      0.6097                 0.0139                 0.9661

                      7                      8                      9
                      A                      A                      A
 Frequencies --    110.7381               179.9287               183.1590
 Red. masses --      4.0107                 4.0453                 5.3121
 Frc consts  --      0.0290                 0.0772                 0.1050
 IR Inten    --      0.0045                 1.0650                 5.4384

                     10                     11                     12
                      A                      A                      A
 Frequencies --    201.7048               206.6012               207.3002
 Red. masses --      3.9922                 1.0498                 1.1667
 Frc consts  --      0.0957                 0.0264                 0.0295
 IR Inten    --      1.6488                 0.0040                 0.0482

                     13                     14                     15
                      A                      A                      A
 Frequencies --    230.3646               255.0041               255.8163
 Red. masses --      6.7319                 1.0428                 1.0379
 Frc consts  --      0.2105                 0.0400                 0.0400
 IR Inten    --      1.6736                 0.0612                 0.0126

                     16                     17                     18
                      A                      A                      A
 Frequencies --    269.4127               269.8229               314.2311
 Red. masses --      1.0698                 1.0770                 3.0162
 Frc consts  --      0.0457                 0.0462                 0.1755
 IR Inten    --      0.0002                 0.0729                 1.6785

                     19                     20                     21
                      A                      A                      A
 Frequencies --    317.5404               326.0062               347.2304
 Red. masses --      3.0544                 4.0733                 2.5590
 Frc consts  --      0.1815                 0.2551                 0.1818
 IR Inten    --      5.7790                15.5625                 0.2141

                     22                     23                     24
                      A                      A                      A
 Frequencies --    352.4221               398.9043               427.2446
 Red. masses --      2.5604                 2.7118                 2.7316
 Frc consts  --      0.1874                 0.2542                 0.2938
 IR Inten    --      2.8859                 0.3243                 2.4327

                     25                     26                     27
                      A                      A                      A
 Frequencies --    439.7363               460.6850               464.2213
 Red. masses --      2.8472                 3.1228                 2.9609
 Frc consts  --      0.3244                 0.3905                 0.3759
 IR Inten    --      2.4197                14.9592                 0.1576

                     28                     29                     30
                      A                      A                      A
 Frequencies --    469.4590               574.9931               605.7568
 Red. masses --      3.2516                 5.5046                 9.7189
 Frc consts  --      0.4222                 1.0723                 2.1012
 IR Inten    --     17.3374                 3.3544                 0.6903

                     31                     32                     33
                      A                      A                      A
 Frequencies --    623.0588               760.4081               769.4424
 Red. masses --      6.4941                 5.3313                 4.7276
 Frc consts  --      1.4853                 1.8162                 1.6491
 IR Inten    --      4.4351                24.0704                 0.4363

                     34                     35                     36
                      A                      A                      A
 Frequencies --    814.2322               845.5998               856.9901
 Red. masses --     11.7733                 3.6493                 4.4489
 Frc consts  --      4.5988                 1.5374                 1.9251
 IR Inten    --     31.8692                82.4311                 0.8305

                     37                     38                     39
                      A                      A                      A
 Frequencies --    867.5358               936.6933               936.8241
 Red. masses --      7.3689                 1.6320                 1.6308
 Frc consts  --      3.2676                 0.8437                 0.8433
 IR Inten    --      2.0289                 0.0008                 0.2460

                     40                     41                     42
                      A                      A                      A
 Frequencies --    937.5615               938.8980               969.0860
 Red. masses --      1.6270                 1.6341                 7.9302
 Frc consts  --      0.8426                 0.8487                 4.3879
 IR Inten    --      0.0670                 0.0440                 1.9892

                     43                     44                     45
                      A                      A                      A
 Frequencies --    984.4821               984.5129               993.4531
 Red. masses --      1.2014                 1.1991                 9.7308
 Frc consts  --      0.6860                 0.6848                 5.6584
 IR Inten    --      0.0071                 0.2764                16.0559

                     46                     47                     48
                      A                      A                      A
 Frequencies --   1066.2927              1066.3095              1073.0087
 Red. masses --      1.4087                 1.4088                 1.4577
 Frc consts  --      0.9437                 0.9437                 0.9889
 IR Inten    --      0.7602                 0.0077                 2.7723

                     49                     50                     51
                      A                      A                      A
 Frequencies --   1073.4306              1189.8446              1213.4842
 Red. masses --      1.4641                 2.7200                 2.1996
 Frc consts  --      0.9940                 2.2688                 1.9084
 IR Inten    --      2.6705               968.7033               119.3244

                     52                     53                     54
                      A                      A                      A
 Frequencies --   1273.0323              1286.1018              1286.1800
 Red. masses --      4.5577                 2.7328                 2.7269
 Frc consts  --      4.3518                 2.6632                 2.6578
 IR Inten    --    417.5461                 0.0592                31.3991

                     55                     56                     57
                      A                      A                      A
 Frequencies --   1295.3714              1302.2461              1310.5767
 Red. masses --      3.3998                 2.9612                 5.7164
 Frc consts  --      3.3612                 2.9587                 5.7849
 IR Inten    --    144.3133                72.4625                80.3759

                     58                     59                     60
                      A                      A                      A
 Frequencies --   1427.4835              1427.5233              1429.9060
 Red. masses --      1.2711                 1.2710                 1.2785
 Frc consts  --      1.5260                 1.5261                 1.5402
 IR Inten    --      0.9802                33.6321                17.8827

                     61                     62                     63
                      A                      A                      A
 Frequencies --   1430.2626              1455.2821              1455.6536
 Red. masses --      1.2815                 1.2310                 1.2308
 Frc consts  --      1.5446                 1.5361                 1.5366
 IR Inten    --     17.7731                24.1076                 1.7805

                     64                     65                     66
                      A                      A                      A
 Frequencies --   1500.2231              1500.2409              1518.5532
 Red. masses --      1.0461                 1.0461                 1.0461
 Frc consts  --      1.3872                 1.3873                 1.4213
 IR Inten    --      0.0574                 0.8007                 0.3178

                     67                     68                     69
                      A                      A                      A
 Frequencies --   1518.9763              1520.2141              1520.3531
 Red. masses --      1.0462                 1.0511                 1.0511
 Frc consts  --      1.4222                 1.4313                 1.4315
 IR Inten    --      0.7146                 0.0172                 0.9450

                     70                     71                     72
                      A                      A                      A
 Frequencies --   1526.0510              1526.3389              1532.2933
 Red. masses --      1.0630                 1.0627                 1.0531
 Frc consts  --      1.4585                 1.4588                 1.4568
 IR Inten    --     12.6347                11.0168                 0.2184

                     73                     74                     75
                      A                      A                      A
 Frequencies --   1532.3437              1554.2512              1554.3426
 Red. masses --      1.0531                 1.0543                 1.0541
 Frc consts  --      1.4569                 1.5005                 1.5005
 IR Inten    --      2.9431                22.4105                 0.0040

                     76                     77                     78
                      A                      A                      A
 Frequencies --   1653.2543              1829.8543              1846.5579
 Red. masses --     13.9854                12.4034                12.4138
 Frc consts  --     22.5218                24.4695                24.9390
 IR Inten    --      0.5632                59.4954               509.0432

                     79                     80                     81
                      A                      A                      A
 Frequencies --   3060.0430              3060.0638              3061.4507
 Red. masses --      1.0354                 1.0355                 1.0375
 Frc consts  --      5.7126                 5.7127                 5.7294
 IR Inten    --      3.7272                10.8636                 2.6014

                     82                     83                     84
                      A                      A                      A
 Frequencies --   3061.4657              3068.3312              3068.4509
 Red. masses --      1.0375                 1.0378                 1.0377
 Frc consts  --      5.7295                 5.7564                 5.7566
 IR Inten    --     33.2071                19.7461                13.2074

                     85                     86                     87
                      A                      A                      A
 Frequencies --   3124.9891              3125.0197              3126.7149
 Red. masses --      1.1025                 1.1025                 1.1025
 Frc consts  --      6.3436                 6.3437                 6.3505
 IR Inten    --      0.3762                13.5703                21.4341

                     88                     89                     90
                      A                      A                      A
 Frequencies --   3126.7613              3137.8570              3137.9941
 Red. masses --      1.1025                 1.1027                 1.1027
 Frc consts  --      6.3506                 6.3968                 6.3977
 IR Inten    --      0.2921                79.3955                 1.1303

                     91                     92                     93
                      A                      A                      A
 Frequencies --   3138.8387              3138.8485              3165.4844
 Red. masses --      1.1032                 1.1033                 1.1010
 Frc consts  --      6.4037                 6.4043                 6.5001
 IR Inten    --      0.9479                54.0646                 0.6990

                     94                     95                     96
                      A                      A                      A
 Frequencies --   3165.4848              3168.5713              3168.6235
 Red. masses --      1.1010                 1.1003                 1.1003
 Frc consts  --      6.5001                 6.5088                 6.5090
 IR Inten    --      1.9232                 2.3468                21.5681

 - Thermochemistry -
 -------------------
 Temperature   298.150 Kelvin.  Pressure   1.00000 Atm.
 Atom     1 has atomic number  6 and mass  12.00000

 Molecular mass:   230.12666 amu.
 Principal axes and moments of inertia in atomic units:
                           1         2         3
     Eigenvalues --  1610.664608645.484979307.37106
           X            0.99999   0.00000   0.00411
           Y           -0.00000   1.00000  -0.00000
           Z           -0.00411   0.00000   0.99999
 This molecule is an asymmetric top.
 Rotational symmetry number  1.
 Warning -- assumption of classical behavior for rotation
           may cause significant error
 Rotational temperatures (Kelvin)      0.05378     0.01002     0.00931
 Rotational constants (GHZ):           1.12049     0.20875     0.19390
 Zero-point vibrational energy     742793.3 (Joules/Mol)
                                  177.53187 (Kcal/Mol)
 Warning -- explicit consideration of  30 degrees of freedom as
           vibrations may cause significant error
 Vibrational temperatures:     13.19    44.97    57.34    73.47    82.22
          (Kelvin)            156.78   159.33   258.88   263.52   290.21
                              297.25   298.26   331.44   366.89   368.06
                              387.62   388.21   452.11   456.87   469.05
                              499.59   507.06   573.93   614.71   632.68
                              662.82   667.91   675.45   827.29   871.55
                              896.44  1094.06  1107.06  1171.50  1216.63
                             1233.02  1248.19  1347.69  1347.88  1348.94
                             1350.86  1394.30  1416.45  1416.49  1429.36
                             1534.16  1534.18  1543.82  1544.43  1711.92
                             1745.93  1831.61  1850.41  1850.53  1863.75
                             1873.64  1885.63  2053.83  2053.89  2057.32
                             2057.83  2093.83  2094.36  2158.49  2158.51
                             2184.86  2185.47  2187.25  2187.45  2195.65
                             2196.06  2204.63  2204.70  2236.22  2236.35
                             2378.66  2632.75  2656.78  4402.72  4402.75
                             4404.74  4404.77  4414.64  4414.82  4496.16
                             4496.21  4498.65  4498.71  4514.68  4514.87
                             4516.09  4516.10  4554.43  4554.43  4558.87
                             4558.94

 Zero-point correction=                           0.282915 (Hartree/Particle)
 Thermal correction to Energy=                    0.301829
 Thermal correction to Enthalpy=                  0.302774
 Thermal correction to Gibbs Free Energy=         0.233784
 Sum of electronic and zero-point Energies=           -801.997702
 Sum of electronic and thermal Energies=              -801.978788
 Sum of electronic and thermal Enthalpies=            -801.977844
 Sum of electronic and thermal Free Energies=         -802.046833

                     E (Thermal)             CV                S
                      KCal/Mol        Cal/Mol-Kelvin    Cal/Mol-Kelvin
 Total                  189.401             68.278            145.201
 Electronic               0.000              0.000              0.000
 Translational            0.889              2.981             42.202
 Rotational               0.889              2.981             33.227
 Vibrational            187.623             62.316             69.771
 Vibration     1          0.593              1.987              8.184
 Vibration     2          0.594              1.983              5.748
 Vibration     3          0.594              1.981              5.266
 Vibration     4          0.595              1.977              4.776
 Vibration     5          0.596              1.975              4.554
 Vibration     6          0.606              1.942              3.287
 Vibration     7          0.607              1.941              3.256
 Vibration     8          0.629              1.867              2.329
 Vibration     9          0.631              1.863              2.296
 Vibration    10          0.639              1.837              2.117
 Vibration    11          0.641              1.830              2.074
 Vibration    12          0.641              1.829              2.067
 Vibration    13          0.652              1.795              1.876
 Vibration    14          0.665              1.754              1.696
 Vibration    15          0.666              1.753              1.690
 Vibration    16          0.674              1.729              1.600
 Vibration    17          0.674              1.729              1.597
 Vibration    18          0.702              1.647              1.340
 Vibration    19          0.704              1.640              1.323
 Vibration    20          0.710              1.623              1.280
 Vibration    21          0.725              1.581              1.179
 Vibration    22          0.729              1.570              1.155
 Vibration    23          0.765              1.472              0.967
 Vibration    24          0.789              1.411              0.868
 Vibration    25          0.800              1.384              0.827
 Vibration    26          0.819              1.337              0.764
 Vibration    27          0.822              1.329              0.754
 Vibration    28          0.827              1.318              0.739
 Vibration    29          0.931              1.085              0.495
 Vibration    30          0.964              1.020              0.440

 Optimization completed.
    -- Stationary point found.
 Normal termination of Gaussian 16 at Sat Aug 22 13:42:04 2020.
 Gaussian 16:  ES64L-G16RevA.03 25-Dec-2016

 ----------------------------------------------------------------------
 # TD(NStates=10, Root=1) B3LYP/6-31G* scf=qc volume pop=NPA density=cu
 rrent Geom=AllCheck Guess=Read
 ----------------------------------------------------------------------

 Structure from the checkpoint file:  "azadicarboxylate_1_conf123.chk"
 -------------------
 Title Card Required
 -------------------
 Charge =  0 Multiplicity = 1

                         Standard orientation:
 ---------------------------------------------------------------------
 Center     Atomic      Atomic             Coordinates (Angstroms)
 Number     Number       Type             X           Y           Z
 ---------------------------------------------------------------------
      1          6           0       -4.376035    0.284712    1.231553
      2          6           0       -3.674063    0.602987   -0.090550
      3          6           0       -4.227831   -0.208523   -1.263943
      4          6           0       -3.705586    2.101968   -0.388917
      5          8           0       -2.215150    0.337510    0.046580
      6          6           0       -1.760041   -0.877497    0.323950
      7          8           0       -2.362683   -1.908094    0.497148
      8          7           0       -0.322225   -0.818509    0.532595
      9          7           0        0.322228   -0.818519   -0.532598
     10          6           0        1.760044   -0.877502   -0.323950
     11          8           0        2.362690   -1.908098   -0.497143
     12          8           0        2.215149    0.337507   -0.046582
     13          6           0        3.674060    0.602990    0.090549
     14          6           0        4.376036    0.284713   -1.231552
     15          6           0        3.705578    2.101971    0.388912
     16          6           0        4.227830   -0.208516    1.263946
     17          1           0       -5.426960    0.587131    1.165041
     18          1           0       -3.914165    0.840967    2.054252
     19          1           0       -4.335160   -0.782361    1.457486
     20          1           0       -5.270375    0.077381   -1.442249
     21          1           0       -4.190283   -1.279924   -1.059080
     22          1           0       -3.657061   -0.000900   -2.175166
     23          1           0       -4.741067    2.433951   -0.517370
     24          1           0       -3.152536    2.325699   -1.306491
     25          1           0       -3.257965    2.670431    0.432369
     26          1           0        3.914165    0.840964   -2.054253
     27          1           0        4.335165   -0.782361   -1.457482
     28          1           0        5.426959    0.587136   -1.165038
     29          1           0        3.257957    2.670430   -0.432376
     30          1           0        4.741058    2.433958    0.517366
     31          1           0        3.152526    2.325704    1.306485
     32          1           0        4.190284   -1.279917    1.059086
     33          1           0        3.657058   -0.000891    2.175167
     34          1           0        5.270373    0.077392    1.442252
 ---------------------------------------------------------------------

 SCF Done:  E(RB3LYP) =  -802.280617476     a.u. after    1 cycles

 Excitation energies and oscillator strengths:

 Excited State   1:      Singlet-A      2.9391 eV  421.85 nm  f=0.0036  <S**2>=0.000
      61 -> 63         0.10924
      62 -> 63         0.69837
 This state for optimization and/or second-order correction.
 Total Energy, E(TD-HF/TD-DFT) =  -802.172608823
 Copying the excited state density for this state as the 1-particle RhoCI density.

 Excited State   2:      Singlet-A      5.0017 eV  247.88 nm  f=0.0625  <S**2>=0.000
      61 -> 63         0.68628
      62 -> 63        -0.10476

 Excited State   3:      Singlet-A      5.1101 eV  242.62 nm  f=0.0004  <S**2>=0.000
      60 -> 63         0.69242

 Excited State   4:      Singlet-A      5.4398 eV  227.92 nm  f=0.0037  <S**2>=0.000
      59 -> 63         0.70143

 Excited State   5:      Singlet-A      5.4467 eV  227.63 nm  f=0.0020  <S**2>=0.000
      58 -> 63         0.69999

 Excited State   6:      Singlet-A      5.5855 eV  221.98 nm  f=0.0000  <S**2>=0.000
      60 -> 65         0.16617
      61 -> 64        -0.10083
      62 -> 64         0.66895

 Excited State   7:      Singlet-A      5.6464 eV  219.58 nm  f=0.0177  <S**2>=0.000
      60 -> 64         0.16288
      62 -> 65         0.67691

 Excited State   8:      Singlet-A      6.5192 eV  190.18 nm  f=0.0135  <S**2>=0.000
      53 -> 63         0.15938
      55 -> 63        -0.13758
      57 -> 63         0.66261

 Excited State   9:      Singlet-A      6.5692 eV  188.74 nm  f=0.0000  <S**2>=0.000
      52 -> 63        -0.20606
      54 -> 63         0.11893
      56 -> 63         0.65067

 Excited State  10:      Singlet-A      6.7618 eV  183.36 nm  f=0.0199  <S**2>=0.000
      60 -> 64         0.48272
      61 -> 65        -0.46447
      62 -> 65        -0.17856

 The electronic state is 1-A.
 Alpha  occ. eigenvalues --  -19.20338 -19.20338 -19.15012 -19.15012 -14.41551
 Alpha  occ. eigenvalues --  -14.41500 -10.34723 -10.34722 -10.27020 -10.27020
 Alpha  occ. eigenvalues --  -10.18845 -10.18845 -10.18495 -10.18495 -10.18398
 Alpha  occ. eigenvalues --  -10.18398  -1.12927  -1.11604  -1.04835  -1.03371
 Alpha  occ. eigenvalues --   -1.03004  -0.83305  -0.82209  -0.76551  -0.70418
 Alpha  occ. eigenvalues --   -0.70401  -0.70249  -0.70249  -0.65488  -0.61728
 Alpha  occ. eigenvalues --   -0.56803  -0.52159  -0.51936  -0.50406  -0.48738
 Alpha  occ. eigenvalues --   -0.48081  -0.47768  -0.46344  -0.45587  -0.45488
 Alpha  occ. eigenvalues --   -0.43903  -0.42850  -0.42564  -0.42250  -0.41079
 Alpha  occ. eigenvalues --   -0.40132  -0.39697  -0.38779  -0.38648  -0.37768
 Alpha  occ. eigenvalues --   -0.37727  -0.36898  -0.36669  -0.35725  -0.35673
 Alpha  occ. eigenvalues --   -0.34859  -0.34675  -0.31081  -0.31065  -0.29972
 Alpha  occ. eigenvalues --   -0.29780  -0.24198
 Alpha virt. eigenvalues --   -0.07473   0.00933   0.01391   0.07858   0.07902
 Alpha virt. eigenvalues --    0.09058   0.09119   0.14061   0.14067   0.14659
 Alpha virt. eigenvalues --    0.14697   0.15624   0.15635   0.16081   0.16143

 Mulliken charges:
               1
     1  C   -0.469071
     2  C    0.295154
     3  C   -0.467575
     4  C   -0.452164
     5  O   -0.447820
     6  C    0.741759
     7  O   -0.419315
     8  N   -0.244565
     9  N   -0.244565
    10  C    0.741759
    11  O   -0.419316
    12  O   -0.447820
    13  C    0.295154
    14  C   -0.469071
    15  C   -0.452164
    16  C   -0.467575
    17  H    0.151440
    18  H    0.156826
    19  H    0.186987
    20  H    0.149118
    21  H    0.187308
    22  H    0.158278
    23  H    0.150633
    24  H    0.162214
    25  H    0.160796
    26  H    0.156826
    27  H    0.186987
    28  H    0.151440
    29  H    0.160796
    30  H    0.150633
    31  H    0.162214
    32  H    0.187308
    33  H    0.158278
    34  H    0.149118
 Sum of Mulliken charges =  -0.00000

 Dipole moment (field-independent basis, Debye):
    X=             -0.0000    Y=              4.2901    Z=              0.0000  Tot=              4.2901
 Quadrupole moment (field-independent basis, Debye-Ang):
   XX=            -70.8838   YY=           -103.2230   ZZ=            -93.6756
   XY=              0.0000   XZ=              2.6516   YZ=              0.0000

 Summary of Natural Population Analysis:

                                       Natural Population
                Natural  -----------------------------------------------
    Atom  No    Charge         Core      Valence    Rydberg      Total
 -----------------------------------------------------------------------
      C    1   -0.70429      1.99932     4.69575    0.00922     6.70429
      C    2    0.27912      1.99900     3.70318    0.01870     5.72088
      C    3   -0.70333      1.99932     4.69491    0.00911     6.70333
      C    4   -0.68657      1.99932     4.67703    0.01022     6.68657
      O    5   -0.54285      1.99970     6.53006    0.01309     8.54285
      C    6    0.92561      1.99951     3.02307    0.05180     5.07439
      O    7   -0.54696      1.99976     6.52679    0.02041     8.54696
      N    8   -0.22663      1.99939     5.20060    0.02664     7.22663
      N    9   -0.22663      1.99939     5.20060    0.02664     7.22663
      C   10    0.92561      1.99951     3.02307    0.05180     5.07439
      O   11   -0.54696      1.99976     6.52679    0.02041     8.54696
      O   12   -0.54285      1.99970     6.53006    0.01309     8.54285
      C   13    0.27912      1.99900     3.70318    0.01870     5.72088
      C   14   -0.70429      1.99932     4.69575    0.00922     6.70429
      C   15   -0.68657      1.99932     4.67703    0.01022     6.68657
      C   16   -0.70333      1.99932     4.69491    0.00911     6.70333
      H   17    0.24160      0.00000     0.75766    0.00074     0.75840
      H   18    0.24045      0.00000     0.75843    0.00112     0.75955
      H   19    0.25750      0.00000     0.74114    0.00136     0.74250
      H   20    0.23965      0.00000     0.75958    0.00077     0.76035
      H   21    0.25803      0.00000     0.74073    0.00123     0.74197
      H   22    0.24138      0.00000     0.75750    0.00112     0.75862
      H   23    0.23911      0.00000     0.76021    0.00068     0.76089
      H   24    0.24454      0.00000     0.75441    0.00106     0.75546
      H   25    0.24366      0.00000     0.75527    0.00106     0.75634
      H   26    0.24045      0.00000     0.75843    0.00112     0.75955
      H   27    0.25750      0.00000     0.74114    0.00136     0.74250
      H   28    0.24160      0.00000     0.75766    0.00074     0.75840
      H   29    0.24366      0.00000     0.75527    0.00106     0.75634
      H   30    0.23911      0.00000     0.76021    0.00068     0.76089
      H   31    0.24454      0.00000     0.75441    0.00106     0.75546
      H   32    0.25803      0.00000     0.74073    0.00123     0.74197
      H   33    0.24138      0.00000     0.75750    0.00112     0.75862
      H   34    0.23965      0.00000     0.75958    0.00077     0.76035
 =======================================================================
   * Total *    0.00000     31.99065    91.67264    0.33671   124.00000

 Normal termination of Gaussian 16 at Sat Aug 22 13:48:22 2020.
