 Gaussian 16, Revision A.03,

 ---------------------------------
 # opt=CalcAll B3LYP/6-31G* scf=qc
 ---------------------------------

 -------------------
 Title Card Required
 -------------------
 Symbolic Z-matrix:
 Charge =  0 Multiplicity = 1

 SCF Done:  E(RB3LYP) =  -838.693632130     a.u. after   10 cycles
 SCF Done:  E(RB3LYP) =  -838.715874493     a.u. after   15 cycles
 SCF Done:  E(RB3LYP) =  -838.726160836     a.u. after   13 cycles
 SCF Done:  E(RB3LYP) =  -838.750218595     a.u. after   19 cycles
 SCF Done:  E(RB3LYP) =  -838.758987817     a.u. after   21 cycles
 SCF Done:  E(RB3LYP) =  -838.762469777     a.u. after   15 cycles
 SCF Done:  E(RB3LYP) =  -838.763169679     a.u. after   13 cycles
 SCF Done:  E(RB3LYP) =  -838.763303448     a.u. after   11 cycles
 SCF Done:  E(RB3LYP) =  -838.763314827     a.u. after    5 cycles
 SCF Done:  E(RB3LYP) =  -838.763315157     a.u. after    3 cycles
 Optimization completed.
    -- Stationary point found.
 Normal termination of Gaussian 16 at Sat Aug 22 16:45:25 2020.

 ----------------------------------------------------------------------
 # freq B3LYP/6-31G* scf=qc volume NMR pop=NPA density=current Geom=All
 Check Guess=Read
 ----------------------------------------------------------------------

 Structure from the checkpoint file:  "azadicarboxylate_5_conf202.chk"
 -------------------
 Title Card Required
 -------------------
 Charge =  0 Multiplicity = 1

 SCF Done:  E(RB3LYP) =  -838.763315157     a.u. after    1 cycles

      1  C    Isotropic =    36.1525   Anisotropy =    77.5223

      2  O    Isotropic =     1.6645   Anisotropy =   440.0192

      3  N    Isotropic =  -352.6993   Anisotropy =   728.0027

      4  N    Isotropic =  -352.0159   Anisotropy =   725.6274

      5  C    Isotropic =    36.0191   Anisotropy =    77.6440

      6  O    Isotropic =     1.7304   Anisotropy =   440.4002

      7  N    Isotropic =   148.2553   Anisotropy =    66.7490

      8  C    Isotropic =   145.5290   Anisotropy =    24.4332

      9  C    Isotropic =   163.1387   Anisotropy =     6.6577

     10  C    Isotropic =   164.1200   Anisotropy =     3.8066

     11  C    Isotropic =   162.9427   Anisotropy =     6.7323

     12  C    Isotropic =   146.8859   Anisotropy =    26.0133

     13  N    Isotropic =   147.9103   Anisotropy =    64.7763

     14  C    Isotropic =   145.5757   Anisotropy =    25.0279

     15  C    Isotropic =   163.1974   Anisotropy =     5.5663

     16  C    Isotropic =   164.1521   Anisotropy =     3.9791

     17  C    Isotropic =   162.9846   Anisotropy =     7.1398

     18  C    Isotropic =   146.6758   Anisotropy =    25.9745

     19  H    Isotropic =    28.9786   Anisotropy =     9.5526

     20  H    Isotropic =    29.5067   Anisotropy =     7.6848

     21  H    Isotropic =    30.4596   Anisotropy =     7.1158

     22  H    Isotropic =    30.8100   Anisotropy =     9.2301

     23  H    Isotropic =    30.3796   Anisotropy =     9.3962

     24  H    Isotropic =    30.6657   Anisotropy =     7.8644

     25  H    Isotropic =    30.4021   Anisotropy =     7.1795

     26  H    Isotropic =    30.6502   Anisotropy =     9.3793

     27  H    Isotropic =    27.8412   Anisotropy =     6.2232

     28  H    Isotropic =    29.6017   Anisotropy =     8.1852

     29  H    Isotropic =    29.0007   Anisotropy =     8.0947

     30  H    Isotropic =    29.3617   Anisotropy =     7.3360

     31  H    Isotropic =    30.7589   Anisotropy =     7.3906

     32  H    Isotropic =    30.8467   Anisotropy =     9.2066

     33  H    Isotropic =    30.4415   Anisotropy =     9.5006

     34  H    Isotropic =    30.6799   Anisotropy =     7.9041

     35  H    Isotropic =    30.6131   Anisotropy =     7.0815

     36  H    Isotropic =    30.7260   Anisotropy =     9.4494

     37  H    Isotropic =    27.8400   Anisotropy =     6.0986

     38  H    Isotropic =    29.5334   Anisotropy =     8.0622

  Exact polarizability: 210.273  -2.470 150.835  -1.955   0.545 115.530
 Approx polarizability: 241.955 -10.568 238.317  -7.314  -0.250 179.662

                      1                      2                      3
                      A                      A                      A
 Frequencies --     15.2881                37.3437                39.0384
 Red. masses --      4.8679                 4.4688                 4.9091
 Frc consts  --      0.0007                 0.0037                 0.0044
 IR Inten    --      3.2820                 1.7941                 3.4674

                      4                      5                      6
                      A                      A                      A
 Frequencies --     47.7841                55.2567                61.6825
 Red. masses --      3.4673                 4.4058                 5.0557
 Frc consts  --      0.0047                 0.0079                 0.0113
 IR Inten    --      0.4284                 0.2460                 2.0933

                      7                      8                      9
                      A                      A                      A
 Frequencies --     83.3970               175.9360               191.3799
 Red. masses --      4.7497                 2.9765                 3.2109
 Frc consts  --      0.0195                 0.0543                 0.0693
 IR Inten    --      0.1766                 0.1649                 8.2032

                     10                     11                     12
                      A                      A                      A
 Frequencies --    200.9540               219.7669               256.2000
 Red. masses --      5.8063                 5.0969                 2.2151
 Frc consts  --      0.1381                 0.1450                 0.0857
 IR Inten    --      2.3966                 0.2958                 0.8591

                     13                     14                     15
                      A                      A                      A
 Frequencies --    270.9666               300.4815               323.9665
 Red. masses --      2.5139                 2.5585                 2.8210
 Frc consts  --      0.1088                 0.1361                 0.1744
 IR Inten    --      2.6983                 1.8609                22.2222

                     16                     17                     18
                      A                      A                      A
 Frequencies --    364.5454               381.6607               392.8898
 Red. masses --      5.5680                 4.9136                 1.8102
 Frc consts  --      0.4360                 0.4217                 0.1646
 IR Inten    --      1.3478                 1.6271                 2.4561

                     19                     20                     21
                      A                      A                      A
 Frequencies --    405.9400               445.5188               450.4887
 Red. masses --      1.7844                 3.1820                 2.9945
 Frc consts  --      0.1733                 0.3721                 0.3581
 IR Inten    --      2.4540                 0.1293                 0.8389

                     22                     23                     24
                      A                      A                      A
 Frequencies --    476.6207               525.7895               550.4719
 Red. masses --      3.4211                 2.0174                 2.1759
 Frc consts  --      0.4579                 0.3286                 0.3885
 IR Inten    --      0.1275                 8.6787                 0.8284

                     25                     26                     27
                      A                      A                      A
 Frequencies --    576.3216               583.7557               627.2871
 Red. masses --      6.2024                 5.6995                 3.5398
 Frc consts  --      1.2138                 1.1443                 0.8206
 IR Inten    --     19.6871                 3.3777                10.3291

                     28                     29                     30
                      A                      A                      A
 Frequencies --    687.8518               747.9943               795.1521
 Red. masses --      3.8347                 5.4913                11.6071
 Frc consts  --      1.0690                 1.8102                 4.3239
 IR Inten    --      0.3123                 2.8904                20.4398

                     31                     32                     33
                      A                      A                      A
 Frequencies --    823.3207               825.1700               834.4560
 Red. masses --      1.5090                 1.5043                 3.1929
 Frc consts  --      0.6027                 0.6035                 1.3099
 IR Inten    --      0.2649                 0.2585                 0.7689

                     34                     35                     36
                      A                      A                      A
 Frequencies --    843.2764               869.5309               869.9140
 Red. masses --      3.0698                 1.4006                 1.4216
 Frc consts  --      1.2862                 0.6239                 0.6339
 IR Inten    --      3.3654                 9.8201                 7.6316

                     37                     38                     39
                      A                      A                      A
 Frequencies --    891.8761               910.3623               922.0502
 Red. masses --      3.2487                 2.5245                 3.1694
 Frc consts  --      1.5226                 1.2327                 1.5876
 IR Inten    --      0.0515                 7.7194                 0.2394

                     40                     41                     42
                      A                      A                      A
 Frequencies --    971.6025               977.1713               979.4076
 Red. masses --      2.7177                 1.5605                 1.3826
 Frc consts  --      1.5116                 0.8779                 0.7814
 IR Inten    --      4.1591                 1.1967                 4.2384

                     43                     44                     45
                      A                      A                      A
 Frequencies --    981.8874              1036.0785              1041.1108
 Red. masses --      2.6739                 2.7551                 2.5564
 Frc consts  --      1.5189                 1.7425                 1.6326
 IR Inten    --      0.4182                 5.6685                78.6997

                     46                     47                     48
                      A                      A                      A
 Frequencies --   1048.1281              1054.6659              1083.5413
 Red. masses --      2.1585                 2.2454                 1.7166
 Frc consts  --      1.3971                 1.4715                 1.1874
 IR Inten    --      0.3482                 3.1281                 0.2779

                     49                     50                     51
                      A                      A                      A
 Frequencies --   1084.7299              1154.9900              1158.4356
 Red. masses --      1.7104                 2.1700                 2.1370
 Frc consts  --      1.1858                 1.7056                 1.6897
 IR Inten    --      0.2288                 2.6377                16.1602

                     52                     53                     54
                      A                      A                      A
 Frequencies --   1169.4653              1172.3902              1195.6620
 Red. masses --      1.8910                 2.0044                 1.2513
 Frc consts  --      1.5238                 1.6232                 1.0540
 IR Inten    --     15.9936                78.0327                 1.3875

                     55                     56                     57
                      A                      A                      A
 Frequencies --   1197.0106              1261.2094              1264.2058
 Red. masses --      1.2642                 1.7979                 1.7925
 Frc consts  --      1.0672                 1.6849                 1.6879
 IR Inten    --      1.3058               148.0276               135.5835

                     58                     59                     60
                      A                      A                      A
 Frequencies --   1287.5670              1293.0968              1300.8545
 Red. masses --      2.2575                 1.8223                 1.2626
 Frc consts  --      2.2050                 1.7952                 1.2589
 IR Inten    --    281.0952                10.9264                21.4130

                     61                     62                     63
                      A                      A                      A
 Frequencies --   1303.2967              1323.2795              1323.7772
 Red. masses --      1.3613                 1.2220                 1.2027
 Frc consts  --      1.3623                 1.2608                 1.2418
 IR Inten    --     10.0457                19.7831                24.4006

                     64                     65                     66
                      A                      A                      A
 Frequencies --   1371.0182              1372.7534              1398.1284
 Red. masses --      1.2808                 1.2875                 1.3698
 Frc consts  --      1.4185                 1.4295                 1.5777
 IR Inten    --      0.0337                 0.5166                 1.6588

                     67                     68                     69
                      A                      A                      A
 Frequencies --   1398.3799              1400.8371              1401.6491
 Red. masses --      1.3865                 1.4605                 1.4635
 Frc consts  --      1.5974                 1.6886                 1.6941
 IR Inten    --      2.1249                 1.5594                 3.0471

                     70                     71                     72
                      A                      A                      A
 Frequencies --   1403.5430              1405.7932              1421.6443
 Red. masses --      1.4503                 1.4412                 1.3327
 Frc consts  --      1.6833                 1.6781                 1.5869
 IR Inten    --      3.4456                 4.1513                 8.7202

                     73                     74                     75
                      A                      A                      A
 Frequencies --   1425.4127              1481.8958              1486.0182
 Red. masses --      1.3433                 2.8824                 3.0633
 Frc consts  --      1.6080                 3.7294                 3.9856
 IR Inten    --     10.2732               413.9463                 2.8144

                     76                     77                     78
                      A                      A                      A
 Frequencies --   1507.8977              1507.9238              1514.4323
 Red. masses --      1.0950                 1.0951                 1.0860
 Frc consts  --      1.4670                 1.4671                 1.4675
 IR Inten    --      0.1224                 1.7725                 5.7083

                     79                     80                     81
                      A                      A                      A
 Frequencies --   1514.7557              1516.9585              1519.0265
 Red. masses --      1.0859                 1.0894                 1.0865
 Frc consts  --      1.4680                 1.4770                 1.4771
 IR Inten    --      5.2479                12.8320                 4.1174

                     82                     83                     84
                      A                      A                      A
 Frequencies --   1519.6008              1523.1316              1534.2214
 Red. masses --      1.1000                 1.0939                 1.1006
 Frc consts  --      1.4966                 1.4952                 1.5264
 IR Inten    --     10.0815                 4.4655                 3.0805

                     85                     86                     87
                      A                      A                      A
 Frequencies --   1535.0355              1649.5450              1775.7714
 Red. masses --      1.0997                13.7877                11.6205
 Frc consts  --      1.5268                22.1039                21.5899
 IR Inten    --      4.1659                 0.0313                 1.1089

                     88                     89                     90
                      A                      A                      A
 Frequencies --   1797.8084              3015.0833              3018.1755
 Red. masses --     11.7123                 1.0732                 1.0729
 Frc consts  --     22.3038                 5.7484                 5.7581
 IR Inten    --    854.3056                12.2404                12.2283

                     91                     92                     93
                      A                      A                      A
 Frequencies --   3018.3234              3021.1973              3025.4351
 Red. masses --      1.0729                 1.0718                 1.0699
 Frc consts  --      5.7592                 5.7639                 5.7700
 IR Inten    --     38.2771                31.1464                82.4359

                     94                     95                     96
                      A                      A                      A
 Frequencies --   3025.6234              3045.4539              3045.8504
 Red. masses --      1.0697                 1.0609                 1.0608
 Frc consts  --      5.7695                 5.7973                 5.7982
 IR Inten    --     23.0663                25.4430                25.3806

                     97                     98                     99
                      A                      A                      A
 Frequencies --   3047.3404              3047.5451              3082.0736
 Red. masses --      1.0617                 1.0616                 1.0934
 Frc consts  --      5.8091                 5.8093                 6.1193
 IR Inten    --     19.3523                21.0950                60.0191

                    100                    101                    102
                      A                      A                      A
 Frequencies --   3082.2856              3088.9423              3089.1909
 Red. masses --      1.0933                 1.1036                 1.1038
 Frc consts  --      6.1199                 6.2040                 6.2061
 IR Inten    --     43.0070                31.8390                31.9520

                    103                    104                    105
                      A                      A                      A
 Frequencies --   3094.0702              3094.3399              3149.7032
 Red. masses --      1.1049                 1.1049                 1.0920
 Frc consts  --      6.2322                 6.2334                 6.3831
 IR Inten    --     60.5896                69.0365                 6.9456

                    106                    107                    108
                      A                      A                      A
 Frequencies --   3151.3846              3156.4426              3157.3192
 Red. masses --      1.0927                 1.0916                 1.0919
 Frc consts  --      6.3938                 6.4080                 6.4133
 IR Inten    --      5.2907                 3.6647                 3.5128

 - Thermochemistry -
 -------------------
 Temperature   298.150 Kelvin.  Pressure   1.00000 Atm.
 Atom     1 has atomic number  6 and mass  12.00000

 Molecular mass:   252.15863 amu.
 Principal axes and moments of inertia in atomic units:
                           1         2         3
     Eigenvalues --  1722.34644********************
           X            0.99997  -0.00821   0.00140
           Y            0.00819   0.99993   0.00826
           Z           -0.00146  -0.00824   0.99996
 This molecule is an asymmetric top.
 Rotational symmetry number  1.
 Warning -- assumption of classical behavior for rotation
           may cause significant error
 Rotational temperatures (Kelvin)      0.05029     0.00849     0.00778
 Rotational constants (GHZ):           1.04784     0.17692     0.16208
 Zero-point vibrational energy     864805.6 (Joules/Mol)
                                  206.69351 (Kcal/Mol)
 Warning -- explicit consideration of  26 degrees of freedom as
           vibrations may cause significant error
 Vibrational temperatures:     22.00    53.73    56.17    68.75    79.50
          (Kelvin)             88.75   119.99   253.13   275.35   289.13
                              316.20   368.61   389.86   432.33   466.12
                              524.50   549.12   565.28   584.06   641.00
                              648.15   685.75   756.49   792.01   829.20
                              839.89   902.53   989.67  1076.20  1144.05
                             1184.57  1187.24  1200.60  1213.29  1251.06
                             1251.61  1283.21  1309.81  1326.62  1397.92
                             1405.93  1409.15  1412.72  1490.69  1497.93
                             1508.02  1517.43  1558.97  1560.68  1661.77
                             1666.73  1682.60  1686.81  1720.29  1722.23
                             1814.60  1818.91  1852.52  1860.48  1871.64
                             1875.15  1903.90  1904.62  1972.59  1975.09
                             2011.59  2011.96  2015.49  2016.66  2019.39
                             2022.62  2045.43  2050.85  2132.12  2138.05
                             2169.53  2169.57  2178.93  2179.40  2182.56
                             2185.54  2186.37  2191.45  2207.40  2208.57
                             2373.33  2554.94  2586.65  4338.03  4342.48
                             4342.69  4346.83  4352.93  4353.20  4381.73
                             4382.30  4384.44  4384.74  4434.42  4434.72
                             4444.30  4444.66  4451.68  4452.06  4531.72
                             4534.14  4541.42  4542.68

 Zero-point correction=                           0.329387 (Hartree/Particle)
 Thermal correction to Energy=                    0.346576
 Thermal correction to Enthalpy=                  0.347520
 Thermal correction to Gibbs Free Energy=         0.281382
 Sum of electronic and zero-point Energies=           -838.433928
 Sum of electronic and thermal Energies=              -838.416739
 Sum of electronic and thermal Enthalpies=            -838.415795
 Sum of electronic and thermal Free Energies=         -838.481933

                     E (Thermal)             CV                S
                      KCal/Mol        Cal/Mol-Kelvin    Cal/Mol-Kelvin
 Total                  217.480             64.722            139.199
 Electronic               0.000              0.000              0.000
 Translational            0.889              2.981             42.475
 Rotational               0.889              2.981             33.636
 Vibrational            215.702             58.761             63.088
 Vibration     1          0.593              1.986              7.168
 Vibration     2          0.594              1.982              5.395
 Vibration     3          0.594              1.981              5.307
 Vibration     4          0.595              1.978              4.907
 Vibration     5          0.596              1.975              4.620
 Vibration     6          0.597              1.973              4.403
 Vibration     7          0.600              1.961              3.809
 Vibration     8          0.628              1.872              2.371
 Vibration     9          0.634              1.852              2.214
 Vibration    10          0.638              1.839              2.124
 Vibration    11          0.647              1.811              1.961
 Vibration    12          0.666              1.752              1.688
 Vibration    13          0.675              1.727              1.590
 Vibration    14          0.693              1.673              1.414
 Vibration    15          0.709              1.628              1.290
 Vibration    16          0.738              1.545              1.103
 Vibration    17          0.751              1.509              1.033
 Vibration    18          0.760              1.485              0.989
 Vibration    19          0.771              1.457              0.941
 Vibration    20          0.805              1.371              0.809
 Vibration    21          0.809              1.360              0.794
 Vibration    22          0.833              1.302              0.719
 Vibration    23          0.881              1.193              0.597
 Vibration    24          0.906              1.139              0.543
 Vibration    25          0.933              1.082              0.492
 Vibration    26          0.941              1.066              0.478

                           ! Non-Optimized Parameters !
 Normal termination of Gaussian 16 at Sat Aug 22 16:55:06 2020.
 Gaussian 16:  ES64L-G16RevA.03 25-Dec-2016

 ----------------------------------------------------------------------
 # TD(NStates=10, Root=1) B3LYP/6-31G* scf=qc volume pop=NPA density=cu
 rrent Geom=AllCheck Guess=Read
 ----------------------------------------------------------------------

 Structure from the checkpoint file:  "azadicarboxylate_5_conf203.chk"
 -------------------
 Title Card Required
 -------------------
 Charge =  0 Multiplicity = 1

                         Standard orientation:
 ---------------------------------------------------------------------
 Center     Atomic      Atomic             Coordinates (Angstroms)
 Number     Number       Type             X           Y           Z
 ---------------------------------------------------------------------
      1          6           0       -1.553968   -1.010774    0.592001
      2          8           0       -1.343983   -2.208893    0.487641
      3          7           0       -0.436846   -0.122636    0.915256
      4          7           0        0.316507    0.056037   -0.058994
      5          6           0        1.432202    0.947371    0.256090
      6          8           0        1.220562    2.147487    0.332011
      7          7           0        2.634742    0.327002    0.314736
      8          6           0        2.818414   -1.127532    0.244989
      9          6           0        3.834505   -1.490331   -0.845979
     10          6           0        5.147099   -0.713106   -0.664323
     11          6           0        4.881068    0.798266   -0.587755
     12          6           0        3.850854    1.123352    0.500933
     13          7           0       -2.755915   -0.387740    0.551507
     14          6           0       -2.937745    1.066485    0.628387
     15          6           0       -3.612407    1.591969   -0.646211
     16          6           0       -4.914548    0.828615   -0.935774
     17          6           0       -4.667655   -0.687881   -0.976594
     18          6           0       -3.969772   -1.169267    0.302374
     19          1           0        1.854559   -1.603467    0.059443
     20          1           0        3.177463   -1.480578    1.223834
     21          1           0        3.397714   -1.258517   -1.826281
     22          1           0        4.015827   -2.571685   -0.819344
     23          1           0        5.839806   -0.938396   -1.483894
     24          1           0        5.638971   -1.042752    0.262974
     25          1           0        4.502584    1.157830   -1.553742
     26          1           0        5.808701    1.345664   -0.379716
     27          1           0        3.558843    2.174153    0.488531
     28          1           0        4.269455    0.897021    1.493409
     29          1           0       -1.970641    1.544190    0.790773
     30          1           0       -3.567988    1.287196    1.502954
     31          1           0       -2.916173    1.476278   -1.487276
     32          1           0       -3.807992    2.665192   -0.532442
     33          1           0       -5.353118    1.169231   -1.881261
     34          1           0       -5.649363    1.055324   -0.148851
     35          1           0       -4.036212   -0.938447   -1.839195
     36          1           0       -5.612867   -1.231100   -1.098896
     37          1           0       -3.678392   -2.218396    0.239680
     38          1           0       -4.641493   -1.049140    1.165712
 ---------------------------------------------------------------------

 SCF Done:  E(RB3LYP) =  -838.763315157     a.u. after    1 cycles

 Excitation energies and oscillator strengths:

 Excited State   1:      Singlet-A      2.6557 eV  466.86 nm  f=0.0000  <S**2>=0.000
      68 -> 69         0.69734
 This state for optimization and/or second-order correction.
 Total Energy, E(TD-HF/TD-DFT) =  -838.665720474
 Copying the excited state density for this state as the 1-particle RhoCI density.

 Excited State   2:      Singlet-A      3.8375 eV  323.08 nm  f=0.0015  <S**2>=0.000
      66 -> 69        -0.30173
      67 -> 69         0.63359

 Excited State   3:      Singlet-A      3.8611 eV  321.11 nm  f=0.0019  <S**2>=0.000
      66 -> 69         0.63264
      67 -> 69         0.30409

 Excited State   4:      Singlet-A      4.3836 eV  282.83 nm  f=0.0429  <S**2>=0.000
      65 -> 69         0.69355

 Excited State   5:      Singlet-A      5.0152 eV  247.22 nm  f=0.0000  <S**2>=0.000
      64 -> 69         0.68250
      68 -> 70        -0.10565

 Excited State   6:      Singlet-A      5.7566 eV  215.38 nm  f=0.0483  <S**2>=0.000
      65 -> 70        -0.18713
      68 -> 70         0.52173
      68 -> 71         0.41468

 Excited State   7:      Singlet-A      5.8115 eV  213.34 nm  f=0.0053  <S**2>=0.000
      64 -> 69        -0.12582
      65 -> 71         0.18777
      68 -> 70        -0.40345
      68 -> 71         0.51775

 Excited State   8:      Singlet-A      6.3934 eV  193.93 nm  f=0.0022  <S**2>=0.000
      59 -> 69         0.15733
      61 -> 69         0.16399
      63 -> 69         0.65068

 Excited State   9:      Singlet-A      6.4684 eV  191.68 nm  f=0.0004  <S**2>=0.000
      60 -> 69         0.23598
      62 -> 69         0.65485

 Excited State  10:      Singlet-A      6.5054 eV  190.59 nm  f=0.0540  <S**2>=0.000
      59 -> 69         0.39262
      60 -> 69         0.45254
      62 -> 69        -0.23249
      63 -> 69        -0.21375

 The electronic state is 1-A.
 Alpha  occ. eigenvalues --  -19.12112 -19.12074 -14.40321 -14.40263 -14.37157
 Alpha  occ. eigenvalues --  -14.37118 -10.30881 -10.30849 -10.22687 -10.22654
 Alpha  occ. eigenvalues --  -10.22198 -10.22182 -10.19208 -10.19190 -10.19157
 Alpha  occ. eigenvalues --  -10.19130 -10.19114 -10.19094  -1.08207  -1.04575
 Alpha  occ. eigenvalues --   -1.00770  -0.94885  -0.94735  -0.81200  -0.80552
 Alpha  occ. eigenvalues --   -0.77507  -0.76847  -0.75001  -0.69199  -0.66895
 Alpha  occ. eigenvalues --   -0.64264  -0.63572  -0.60178  -0.58897  -0.55815
 Alpha  occ. eigenvalues --   -0.54350  -0.52857  -0.49127  -0.48019  -0.47639
 Alpha  occ. eigenvalues --   -0.46599  -0.46417  -0.45847  -0.45010  -0.43867
 Alpha  occ. eigenvalues --   -0.43817  -0.43136  -0.42390  -0.41796  -0.41420
 Alpha  occ. eigenvalues --   -0.39994  -0.39659  -0.38379  -0.38082  -0.36538
 Alpha  occ. eigenvalues --   -0.36123  -0.36012  -0.34372  -0.34077  -0.33404
 Alpha  occ. eigenvalues --   -0.33304  -0.33018  -0.32874  -0.29744  -0.26872
 Alpha  occ. eigenvalues --   -0.24576  -0.24450  -0.22419
 Alpha virt. eigenvalues --   -0.06819   0.03298   0.03505   0.08740   0.08894
 Alpha virt. eigenvalues --    0.10868   0.10941   0.12675   0.12774   0.13998
 Alpha virt. eigenvalues --    0.14299   0.14441   0.14579   0.15620   0.15882

 Mulliken charges:
               1
     1  C    0.700319
     2  O   -0.468370
     3  N   -0.281352
     4  N   -0.283246
     5  C    0.699471
     6  O   -0.468627
     7  N   -0.403254
     8  C   -0.149564
     9  C   -0.263857
    10  C   -0.269361
    11  C   -0.264496
    12  C   -0.148351
    13  N   -0.399735
    14  C   -0.154950
    15  C   -0.261410
    16  C   -0.269409
    17  C   -0.262856
    18  C   -0.151028
    19  H    0.207485
    20  H    0.145777
    21  H    0.147469
    22  H    0.144593
    23  H    0.142581
    24  H    0.133101
    25  H    0.148264
    26  H    0.142839
    27  H    0.190549
    28  H    0.147455
    29  H    0.208227
    30  H    0.144674
    31  H    0.151142
    32  H    0.143830
    33  H    0.142607
    34  H    0.131670
    35  H    0.149482
    36  H    0.141517
    37  H    0.190367
    38  H    0.146447
 Sum of Mulliken charges =  -0.00000

 Dipole moment (field-independent basis, Debye):
    X=              0.1328    Y=              0.0562    Z=             -0.6715  Tot=              0.6868
 Quadrupole moment (field-independent basis, Debye-Ang):
   XX=            -76.4786   YY=           -116.4208   ZZ=           -106.6158
   XY=             -4.7678   XZ=              0.3038   YZ=              0.5832

 Summary of Natural Population Analysis:

                                       Natural Population
                Natural  -----------------------------------------------
    Atom  No    Charge         Core      Valence    Rydberg      Total
 -----------------------------------------------------------------------
      C    1    0.79534      1.99934     3.15848    0.04684     5.20466
      O    2   -0.57139      1.99979     6.55305    0.01855     8.57139
      N    3   -0.24923      1.99941     5.22369    0.02612     7.24923
      N    4   -0.25249      1.99941     5.22705    0.02603     7.25249
      C    5    0.79711      1.99934     3.15683    0.04672     5.20289
      O    6   -0.57264      1.99979     6.55431    0.01854     8.57264
      N    7   -0.47109      1.99927     5.45891    0.01290     7.47109
      C    8   -0.26151      1.99930     4.24608    0.01613     6.26151
      C    9   -0.47070      1.99932     4.45990    0.01148     6.47070
      C   10   -0.46524      1.99933     4.45437    0.01154     6.46524
      C   11   -0.47147      1.99932     4.46074    0.01140     6.47147
      C   12   -0.25926      1.99932     4.24375    0.01620     6.25926
      N   13   -0.47011      1.99928     5.45795    0.01289     7.47011
      C   14   -0.26153      1.99930     4.24592    0.01631     6.26153
      C   15   -0.47197      1.99932     4.46119    0.01146     6.47197
      C   16   -0.46554      1.99933     4.45466    0.01155     6.46554
      C   17   -0.47181      1.99932     4.46117    0.01132     6.47181
      C   18   -0.25936      1.99932     4.24388    0.01616     6.25936
      H   19    0.27345      0.00000     0.72412    0.00243     0.72655
      H   20    0.22422      0.00000     0.77351    0.00227     0.77578
      H   21    0.23579      0.00000     0.76214    0.00207     0.76421
      H   22    0.24646      0.00000     0.75245    0.00110     0.75354
      H   23    0.24436      0.00000     0.75453    0.00111     0.75564
      H   24    0.22670      0.00000     0.77136    0.00194     0.77330
      H   25    0.23631      0.00000     0.76181    0.00188     0.76369
      H   26    0.24561      0.00000     0.75326    0.00113     0.75439
      H   27    0.26780      0.00000     0.73017    0.00203     0.73220
      H   28    0.22495      0.00000     0.77304    0.00201     0.77505
      H   29    0.27342      0.00000     0.72415    0.00243     0.72658
      H   30    0.22524      0.00000     0.77259    0.00217     0.77476
      H   31    0.23794      0.00000     0.76007    0.00199     0.76206
      H   32    0.24593      0.00000     0.75295    0.00112     0.75407
      H   33    0.24435      0.00000     0.75454    0.00111     0.75565
      H   34    0.22579      0.00000     0.77227    0.00194     0.77421
      H   35    0.23686      0.00000     0.76125    0.00189     0.76314
      H   36    0.24438      0.00000     0.75449    0.00113     0.75562
      H   37    0.26759      0.00000     0.73035    0.00205     0.73241
      H   38    0.22575      0.00000     0.77220    0.00205     0.77425
 =======================================================================
   * Total *    0.00000     35.98882    99.63317    0.37801   136.00000

 Normal termination of Gaussian 16 at Sat Aug 22 17:06:29 2020.
