 Gaussian 16, Revision A.03,

 ---------------------------------
 # opt=CalcAll B3LYP/6-31G* scf=qc
 ---------------------------------

 -------------------
 Title Card Required
 -------------------
 Symbolic Z-matrix:
 Charge =  0 Multiplicity = 1

 SCF Done:  E(RB3LYP) =  -605.165982186     a.u. after    9 cycles
 SCF Done:  E(RB3LYP) =  -605.203982464     a.u. after   21 cycles
 SCF Done:  E(RB3LYP) =  -605.222417435     a.u. after   27 cycles
 SCF Done:  E(RB3LYP) =  -605.232866632     a.u. after   23 cycles
 SCF Done:  E(RB3LYP) =  -605.263580166     a.u. after   19 cycles
 SCF Done:  E(RB3LYP) =  -605.268068687     a.u. after   21 cycles
 SCF Done:  E(RB3LYP) =  -605.275482940     a.u. after   15 cycles
 SCF Done:  E(RB3LYP) =  -605.278441399     a.u. after   17 cycles
 SCF Done:  E(RB3LYP) =  -605.279154780     a.u. after   15 cycles
 SCF Done:  E(RB3LYP) =  -605.279295175     a.u. after   11 cycles
 SCF Done:  E(RB3LYP) =  -605.279328048     a.u. after    9 cycles
 SCF Done:  E(RB3LYP) =  -605.279329653     a.u. after    3 cycles
 SCF Done:  E(RB3LYP) =  -605.279330095     a.u. after    3 cycles
 SCF Done:  E(RB3LYP) =  -605.279330114     a.u. after    2 cycles
 Optimization completed.
    -- Stationary point found.
 Normal termination of Gaussian 16 at Sat Aug 22 18:24:26 2020.

 ----------------------------------------------------------------------
 # freq B3LYP/6-31G* scf=qc volume NMR pop=NPA density=current Geom=All
 Check Guess=Read
 ----------------------------------------------------------------------

 Structure from the checkpoint file:  "azadicarboxylate_6_conf102.chk"
 -------------------
 Title Card Required
 -------------------
 Charge =  0 Multiplicity = 1

 SCF Done:  E(RB3LYP) =  -605.279330114     a.u. after    1 cycles

      1  C    Isotropic =    35.5288   Anisotropy =    81.0128

      2  O    Isotropic =    -2.0187   Anisotropy =   439.3442

      3  N    Isotropic =  -357.3117   Anisotropy =   735.7721

      4  N    Isotropic =  -357.3046   Anisotropy =   735.7649

      5  C    Isotropic =    35.5291   Anisotropy =    81.0137

      6  O    Isotropic =    -2.0172   Anisotropy =   439.3386

      7  N    Isotropic =   164.3609   Anisotropy =    80.6878

      8  C    Isotropic =   156.2410   Anisotropy =    48.9306

      9  C    Isotropic =   156.2151   Anisotropy =    46.0121

     10  N    Isotropic =   164.3626   Anisotropy =    80.6879

     11  C    Isotropic =   156.2413   Anisotropy =    48.9305

     12  C    Isotropic =   156.2153   Anisotropy =    46.0114

     13  H    Isotropic =    28.0474   Anisotropy =     6.4816

     14  H    Isotropic =    29.8739   Anisotropy =     8.2984

     15  H    Isotropic =    29.9319   Anisotropy =     8.7870

     16  H    Isotropic =    29.2321   Anisotropy =     8.0904

     17  H    Isotropic =    29.8634   Anisotropy =     8.5518

     18  H    Isotropic =    29.7885   Anisotropy =     8.1470

     19  H    Isotropic =    28.0474   Anisotropy =     6.4817

     20  H    Isotropic =    29.9320   Anisotropy =     8.7870

     21  H    Isotropic =    29.8739   Anisotropy =     8.2985

     22  H    Isotropic =    29.2322   Anisotropy =     8.0905

     23  H    Isotropic =    29.7886   Anisotropy =     8.1470

     24  H    Isotropic =    29.8635   Anisotropy =     8.5518

  Exact polarizability: 137.972   6.500  98.264  -1.115   0.143  63.611
 Approx polarizability: 156.819  11.141 160.815  -5.914   0.183  97.928

                      1                      2                      3
                      A                      A                      A
 Frequencies --     22.7200                51.3685                60.6855
 Red. masses --      4.8442                 6.5562                 4.3799
 Frc consts  --      0.0015                 0.0102                 0.0095
 IR Inten    --      9.6767                 0.0000                 9.4505

                      4                      5                      6
                      A                      A                      A
 Frequencies --     71.6000               103.7108               105.0792
 Red. masses --      2.7753                 1.7457                 1.4325
 Frc consts  --      0.0084                 0.0111                 0.0093
 IR Inten    --      0.3647                 0.0000                 0.0369

                      7                      8                      9
                      A                      A                      A
 Frequencies --    109.0934               151.5066               152.3780
 Red. masses --      2.0150                 1.0575                 1.0907
 Frc consts  --      0.0141                 0.0143                 0.0149
 IR Inten    --      0.0000                 0.2722                 0.0000

                     10                     11                     12
                      A                      A                      A
 Frequencies --    196.5994               226.5914               253.0637
 Red. masses --      2.9860                 2.3593                 4.9207
 Frc consts  --      0.0680                 0.0714                 0.1857
 IR Inten    --      0.6023                 0.0000                 0.0000

                     13                     14                     15
                      A                      A                      A
 Frequencies --    261.9378               296.9925               328.3446
 Red. masses --      3.0789                 3.7702                 4.1766
 Frc consts  --      0.1245                 0.1959                 0.2653
 IR Inten    --     11.7888                 0.0000                29.8264

                     16                     17                     18
                      A                      A                      A
 Frequencies --    382.6188               392.7245               461.5305
 Red. masses --      3.1508                 2.5415                 4.5292
 Frc consts  --      0.2718                 0.2309                 0.5684
 IR Inten    --      0.0000                 2.8021                 0.0000

                     19                     20                     21
                      A                      A                      A
 Frequencies --    581.5734               582.5846               599.2953
 Red. masses --      9.5717                 7.1897                 6.7314
 Frc consts  --      1.9074                 1.4377                 1.4244
 IR Inten    --      0.0002                26.2839                 8.2738

                     22                     23                     24
                      A                      A                      A
 Frequencies --    695.2139               771.3836               799.2468
 Red. masses --      5.9246                 7.4611                11.3882
 Frc consts  --      1.6871                 2.6157                 4.2861
 IR Inten    --      0.0000                 7.9996                20.7384

                     25                     26                     27
                      A                      A                      A
 Frequencies --    923.4828               997.6751              1003.5562
 Red. masses --      6.2771                 4.7003                 3.0348
 Frc consts  --      3.1540                 2.7565                 1.8008
 IR Inten    --      0.0000                 0.0000                13.4388

                     28                     29                     30
                      A                      A                      A
 Frequencies --   1093.9987              1094.1894              1138.8048
 Red. masses --      1.3831                 1.3884                 1.2195
 Frc consts  --      0.9753                 0.9793                 0.9318
 IR Inten    --     11.9828                 0.0003                 0.0000

                     31                     32                     33
                      A                      A                      A
 Frequencies --   1138.8998              1162.6478              1174.5546
 Red. masses --      1.2187                 2.1502                 2.4308
 Frc consts  --      0.9314                 1.7125                 1.9759
 IR Inten    --      0.3638                 0.0000               415.8397

                     34                     35                     36
                      A                      A                      A
 Frequencies --   1189.2588              1189.4783              1291.3102
 Red. masses --      1.3688                 1.3911                 5.7898
 Frc consts  --      1.1407                 1.1596                 5.6882
 IR Inten    --      0.0000                21.5207               133.5248

                     37                     38                     39
                      A                      A                      A
 Frequencies --   1293.0788              1445.9552              1452.3341
 Red. masses --      5.5931                 2.8318                 2.7544
 Frc consts  --      5.5100                 3.4883                 3.4230
 IR Inten    --      0.0000               359.2390                 0.0000

                     40                     41                     42
                      A                      A                      A
 Frequencies --   1458.5912              1458.6174              1493.7177
 Red. masses --      1.1529                 1.1603                 1.1803
 Frc consts  --      1.4452                 1.4544                 1.5516
 IR Inten    --     16.4075                 0.0007                22.4939

                     43                     44                     45
                      A                      A                      A
 Frequencies --   1494.8834              1513.8476              1513.8577
 Red. masses --      1.1968                 1.0464                 1.0447
 Frc consts  --      1.5757                 1.4129                 1.4107
 IR Inten    --      0.0001                 0.0278                 4.4263

                     46                     47                     48
                      A                      A                      A
 Frequencies --   1527.1741              1527.3274              1529.1916
 Red. masses --      1.0482                 1.0489                 1.0465
 Frc consts  --      1.4404                 1.4416                 1.4419
 IR Inten    --      0.0001                28.7378                 0.0001

                     49                     50                     51
                      A                      A                      A
 Frequencies --   1529.3581              1563.6909              1564.9360
 Red. masses --      1.0458                 1.2511                 1.2403
 Frc consts  --      1.4412                 1.8024                 1.7897
 IR Inten    --     33.7817                 0.0000                58.3844

                     52                     53                     54
                      A                      A                      A
 Frequencies --   1656.5584              1783.8634              1804.8347
 Red. masses --     13.0588                10.6258                10.8336
 Frc consts  --     21.1138                19.9221                20.7920
 IR Inten    --      0.0000                 0.0000               772.1304

                     55                     56                     57
                      A                      A                      A
 Frequencies --   3035.9376              3035.9388              3041.9906
 Red. masses --      1.0382                 1.0381                 1.0388
 Frc consts  --      5.6376                 5.6376                 5.6638
 IR Inten    --     43.5027                 2.0719               168.6818

                     58                     59                     60
                      A                      A                      A
 Frequencies --   3042.6447              3088.3330              3088.4678
 Red. masses --      1.0389                 1.1041                 1.1042
 Frc consts  --      5.6665                 6.2047                 6.2055
 IR Inten    --      0.0000                 0.0001               120.1897

                     61                     62                     63
                      A                      A                      A
 Frequencies --   3091.1734              3091.1915              3176.7111
 Red. masses --      1.1052                 1.1052                 1.0983
 Frc consts  --      6.2224                 6.2224                 6.5303
 IR Inten    --      4.2319                 0.0004                 8.3647

                     64                     65                     66
                      A                      A                      A
 Frequencies --   3177.0103              3187.6229              3187.6330
 Red. masses --      1.0984                 1.0975                 1.0975
 Frc consts  --      6.5321                 6.5702                 6.5702
 IR Inten    --      0.0004                 1.7751                 0.0118

 - Thermochemistry -
 -------------------
 Temperature   298.150 Kelvin.  Pressure   1.00000 Atm.
 Atom     1 has atomic number  6 and mass  12.00000

 Molecular mass:   172.09603 amu.
 Principal axes and moments of inertia in atomic units:
                           1         2         3
     Eigenvalues --   831.720113959.542344689.44395
           X            0.99974   0.02270   0.00376
           Y           -0.02268   0.99972  -0.00616
           Z           -0.00390   0.00607   0.99997
 This molecule is an asymmetric top.
 Rotational symmetry number  1.
 Warning -- assumption of classical behavior for rotation
           may cause significant error
 Rotational temperatures (Kelvin)      0.10414     0.02187     0.01847
 Rotational constants (GHZ):           2.16989     0.45580     0.38485
 Zero-point vibrational energy     513868.9 (Joules/Mol)
                                  122.81761 (Kcal/Mol)
 Warning -- explicit consideration of  21 degrees of freedom as
           vibrations may cause significant error
 Vibrational temperatures:     32.69    73.91    87.31   103.02   149.22
          (Kelvin)            151.19   156.96   217.98   219.24   282.86
                              326.01   364.10   376.87   427.31   472.41
                              550.50   565.04   664.04   836.75   838.21
                              862.25  1000.26  1109.85  1149.94  1328.69
                             1435.43  1443.89  1574.02  1574.29  1638.49
                             1638.62  1672.79  1689.92  1711.08  1711.39
                             1857.91  1860.45  2080.41  2089.58  2098.59
                             2098.63  2149.13  2150.80  2178.09  2178.10
                             2197.26  2197.48  2200.17  2200.41  2249.80
                             2251.59  2383.42  2566.58  2596.75  4368.04
                             4368.04  4376.75  4377.69  4443.42  4443.62
                             4447.51  4447.54  4570.58  4571.01  4586.28
                             4586.29

 Zero-point correction=                           0.195722 (Hartree/Particle)
 Thermal correction to Energy=                    0.210246
 Thermal correction to Enthalpy=                  0.211190
 Thermal correction to Gibbs Free Energy=         0.152513
 Sum of electronic and zero-point Energies=           -605.083608
 Sum of electronic and thermal Energies=              -605.069084
 Sum of electronic and thermal Enthalpies=            -605.068140
 Sum of electronic and thermal Free Energies=         -605.126817

                     E (Thermal)             CV                S
                      KCal/Mol        Cal/Mol-Kelvin    Cal/Mol-Kelvin
 Total                  131.931             48.237            123.497
 Electronic               0.000              0.000              0.000
 Translational            0.889              2.981             41.336
 Rotational               0.889              2.981             31.113
 Vibrational            130.154             42.275             51.048
 Vibration     1          0.593              1.985              6.381
 Vibration     2          0.596              1.977              4.764
 Vibration     3          0.597              1.973              4.435
 Vibration     4          0.598              1.968              4.109
 Vibration     5          0.605              1.946              3.383
 Vibration     6          0.605              1.945              3.358
 Vibration     7          0.606              1.942              3.285
 Vibration     8          0.619              1.901              2.653
 Vibration     9          0.619              1.900              2.642
 Vibration    10          0.636              1.845              2.165
 Vibration    11          0.650              1.801              1.906
 Vibration    12          0.664              1.758              1.709
 Vibration    13          0.669              1.742              1.649
 Vibration    14          0.691              1.679              1.434
 Vibration    15          0.712              1.619              1.268
 Vibration    16          0.752              1.507              1.029
 Vibration    17          0.760              1.486              0.990
 Vibration    18          0.819              1.335              0.762
 Vibration    19          0.938              1.071              0.482
 Vibration    20          0.939              1.069              0.481
 Vibration    21          0.957              1.033              0.451

 Optimization completed.
    -- Stationary point found.
 Normal termination of Gaussian 16 at Sat Aug 22 18:29:31 2020.
 Gaussian 16:  ES64L-G16RevA.03 25-Dec-2016

 ----------------------------------------------------------------------
 # TD(NStates=10, Root=1) B3LYP/6-31G* scf=qc volume pop=NPA density=cu
 rrent Geom=AllCheck Guess=Read
 ----------------------------------------------------------------------

 Structure from the checkpoint file:  "azadicarboxylate_6_conf103.chk"
 -------------------
 Title Card Required
 -------------------
 Charge =  0 Multiplicity = 1

                         Standard orientation:
 ---------------------------------------------------------------------
 Center     Atomic      Atomic             Coordinates (Angstroms)
 Number     Number       Type             X           Y           Z
 ---------------------------------------------------------------------
      1          6           0        1.671531   -0.634936   -0.144025
      2          8           0        1.697850   -1.853583   -0.093956
      3          7           0        0.413702    0.042186   -0.462223
      4          7           0       -0.413683   -0.042216    0.462144
      5          6           0       -1.671507    0.634919    0.143941
      6          8           0       -1.697791    1.853562    0.093743
      7          7           0       -2.732597   -0.205567    0.052133
      8          6           0       -4.059201    0.351595   -0.166450
      9          6           0       -2.615770   -1.658491    0.070730
     10          7           0        2.732585    0.205577   -0.052070
     11          6           0        4.059201   -0.351559    0.166503
     12          6           0        2.615702    1.658498   -0.070536
     13          1           0       -3.988166    1.438636   -0.143634
     14          1           0       -4.744978    0.010729    0.619234
     15          1           0       -4.456057    0.032251   -1.138643
     16          1           0       -1.595926   -1.956134    0.314833
     17          1           0       -2.881333   -2.079880   -0.907792
     18          1           0       -3.294994   -2.076071    0.824027
     19          1           0        3.988203   -1.438601    0.143590
     20          1           0        4.456016   -0.032287    1.138736
     21          1           0        4.744992   -0.010602   -0.619130
     22          1           0        1.595851    1.956127   -0.314629
     23          1           0        3.294921    2.076177   -0.823783
     24          1           0        2.881231    2.079806    0.908030
 ---------------------------------------------------------------------

 SCF Done:  E(RB3LYP) =  -605.279330114     a.u. after    1 cycles

 Excitation energies and oscillator strengths:

 Excited State   1:      Singlet-A      2.6053 eV  475.89 nm  f=0.0000  <S**2>=0.000
      46 -> 47         0.69816
 This state for optimization and/or second-order correction.
 Total Energy, E(TD-HF/TD-DFT) =  -605.183586233
 Copying the excited state density for this state as the 1-particle RhoCI density.

 Excited State   2:      Singlet-A      3.8807 eV  319.49 nm  f=0.0000  <S**2>=0.000
      44 -> 47         0.70058

 Excited State   3:      Singlet-A      3.8877 eV  318.91 nm  f=0.0066  <S**2>=0.000
      45 -> 47         0.70100

 Excited State   4:      Singlet-A      4.3025 eV  288.17 nm  f=0.0298  <S**2>=0.000
      43 -> 47         0.69233

 Excited State   5:      Singlet-A      4.9903 eV  248.45 nm  f=0.0000  <S**2>=0.000
      42 -> 47         0.68511
      46 -> 49        -0.11432

 Excited State   6:      Singlet-A      5.8215 eV  212.98 nm  f=0.0481  <S**2>=0.000
      43 -> 49        -0.19009
      46 -> 48         0.67021

 Excited State   7:      Singlet-A      5.8916 eV  210.44 nm  f=0.0000  <S**2>=0.000
      42 -> 47         0.13000
      43 -> 48        -0.19846
      46 -> 49         0.65629

 Excited State   8:      Singlet-A      6.7262 eV  184.33 nm  f=0.1196  <S**2>=0.000
      40 -> 47         0.19298
      41 -> 47         0.63171
      43 -> 49        -0.15778
      44 -> 48         0.10202

 Excited State   9:      Singlet-A      6.9079 eV  179.48 nm  f=0.0000  <S**2>=0.000
      39 -> 47        -0.11069
      42 -> 49        -0.26194
      43 -> 48         0.57983
      44 -> 49        -0.12044
      45 -> 48        -0.12299
      46 -> 49         0.22125

 Excited State  10:      Singlet-A      6.9232 eV  179.08 nm  f=0.0078  <S**2>=0.000
      41 -> 47         0.13245
      42 -> 48        -0.26505
      43 -> 49         0.55560
      45 -> 49        -0.21792
      46 -> 48         0.20277

 The electronic state is 1-A.
 Alpha  occ. eigenvalues --  -19.12473 -19.12473 -14.40716 -14.40665 -14.37974
 Alpha  occ. eigenvalues --  -14.37974 -10.31285 -10.31285 -10.22755 -10.22755
 Alpha  occ. eigenvalues --  -10.22269 -10.22269  -1.08632  -1.05002  -1.01178
 Alpha  occ. eigenvalues --   -0.94986  -0.94815  -0.77930  -0.73450  -0.72911
 Alpha  occ. eigenvalues --   -0.71230  -0.67431  -0.57924  -0.54610  -0.52852
 Alpha  occ. eigenvalues --   -0.50074  -0.48674  -0.48407  -0.47427  -0.46757
 Alpha  occ. eigenvalues --   -0.43297  -0.43266  -0.41278  -0.41278  -0.41160
 Alpha  occ. eigenvalues --   -0.41066  -0.41060  -0.39430  -0.38280  -0.38166
 Alpha  occ. eigenvalues --   -0.35964  -0.30281  -0.27253  -0.25249  -0.25173
 Alpha  occ. eigenvalues --   -0.22806
 Alpha virt. eigenvalues --   -0.07390   0.03339   0.03373   0.08944   0.09049
 Alpha virt. eigenvalues --    0.13444   0.13519   0.14157   0.14254   0.14813
 Alpha virt. eigenvalues --    0.15112   0.15657   0.15667   0.16954   0.17003

 Mulliken charges:
               1
     1  C    0.704217
     2  O   -0.463688
     3  N   -0.277726
     4  N   -0.277730
     5  C    0.704224
     6  O   -0.463690
     7  N   -0.386799
     8  C   -0.320154
     9  C   -0.322032
    10  N   -0.386794
    11  C   -0.320154
    12  C   -0.322035
    13  H    0.203669
    14  H    0.160979
    15  H    0.162315
    16  H    0.219712
    17  H    0.160693
    18  H    0.158811
    19  H    0.203669
    20  H    0.162314
    21  H    0.160979
    22  H    0.219716
    23  H    0.158812
    24  H    0.160692
 Sum of Mulliken charges =   0.00000

 Dipole moment (field-independent basis, Debye):
    X=             -0.0001    Y=              0.0001    Z=              0.0004  Tot=              0.0004
 Quadrupole moment (field-independent basis, Debye-Ang):
   XX=            -46.6837   YY=            -77.3295   ZZ=            -70.9914
   XY=             10.5429   XZ=              1.1216   YZ=             -0.4908

 Summary of Natural Population Analysis:

                                       Natural Population
                Natural  -----------------------------------------------
    Atom  No    Charge         Core      Valence    Rydberg      Total
 -----------------------------------------------------------------------
      C    1    0.79151      1.99935     3.16274    0.04640     5.20849
      O    2   -0.56890      1.99979     6.55041    0.01871     8.56890
      N    3   -0.24643      1.99941     5.22071    0.02631     7.24643
      N    4   -0.24644      1.99941     5.22072    0.02631     7.24644
      C    5    0.79151      1.99935     3.16275    0.04640     5.20849
      O    6   -0.56891      1.99979     6.55041    0.01871     8.56891
      N    7   -0.45844      1.99930     5.44839    0.01076     7.45844
      C    8   -0.47032      1.99947     4.45889    0.01196     6.47032
      C    9   -0.47244      1.99945     4.46122    0.01177     6.47244
      N   10   -0.45844      1.99930     5.44839    0.01076     7.45844
      C   11   -0.47032      1.99947     4.45889    0.01196     6.47032
      C   12   -0.47244      1.99945     4.46122    0.01177     6.47244
      H   13    0.26036      0.00000     0.73793    0.00171     0.73964
      H   14    0.22533      0.00000     0.77339    0.00128     0.77467
      H   15    0.22449      0.00000     0.77424    0.00127     0.77551
      H   16    0.26602      0.00000     0.73208    0.00190     0.73398
      H   17    0.22334      0.00000     0.77511    0.00155     0.77666
      H   18    0.22548      0.00000     0.77316    0.00135     0.77452
      H   19    0.26036      0.00000     0.73793    0.00171     0.73964
      H   20    0.22449      0.00000     0.77424    0.00127     0.77551
      H   21    0.22533      0.00000     0.77339    0.00128     0.77467
      H   22    0.26602      0.00000     0.73208    0.00190     0.73398
      H   23    0.22548      0.00000     0.77316    0.00135     0.77452
      H   24    0.22334      0.00000     0.77511    0.00155     0.77666
 =======================================================================
   * Total *   -0.00000     23.99350    67.73658    0.26992    92.00000

 Normal termination of Gaussian 16 at Sat Aug 22 18:35:36 2020.
