 Gaussian 16, Revision A.03,

 ---------------------------------
 # opt=CalcAll B3LYP/6-31G* scf=qc
 ---------------------------------

 -------------------
 Title Card Required
 -------------------
 Symbolic Z-matrix:
 Charge =  0 Multiplicity = 1

 SCF Done:  E(RB3LYP) =  -838.651923325     a.u. after   10 cycles
 SCF Done:  E(RB3LYP) =  -838.711099673     a.u. after   17 cycles
 SCF Done:  E(RB3LYP) =  -838.727632482     a.u. after   15 cycles
 SCF Done:  E(RB3LYP) =  -838.744722623     a.u. after   19 cycles
 SCF Done:  E(RB3LYP) =  -838.750514237     a.u. after   13 cycles
 SCF Done:  E(RB3LYP) =  -838.752067046     a.u. after   15 cycles
 SCF Done:  E(RB3LYP) =  -838.752241813     a.u. after   11 cycles
 SCF Done:  E(RB3LYP) =  -838.752314314     a.u. after   11 cycles
 SCF Done:  E(RB3LYP) =  -838.753721126     a.u. after   17 cycles
 SCF Done:  E(RB3LYP) =  -838.758176574     a.u. after   17 cycles
 SCF Done:  E(RB3LYP) =  -838.761608659     a.u. after   17 cycles
 SCF Done:  E(RB3LYP) =  -838.762892246     a.u. after   25 cycles
 SCF Done:  E(RB3LYP) =  -838.760748163     a.u. after   29 cycles
 SCF Done:  E(RB3LYP) =  -838.763087354     a.u. after   10 cycles
 SCF Done:  E(RB3LYP) =  -838.763293580     a.u. after   11 cycles
 SCF Done:  E(RB3LYP) =  -838.763311173     a.u. after    9 cycles
 SCF Done:  E(RB3LYP) =  -838.763315033     a.u. after    5 cycles
 SCF Done:  E(RB3LYP) =  -838.763315171     a.u. after    3 cycles
 Optimization completed.
    -- Stationary point found.
 Normal termination of Gaussian 16 at Sat Aug 22 19:21:33 2020.

 ----------------------------------------------------------------------
 # freq B3LYP/6-31G* scf=qc volume NMR pop=NPA density=current Geom=All
 Check Guess=Read
 ----------------------------------------------------------------------

 Structure from the checkpoint file:  "azadicarboxylate_5_conf22.chk"
 -------------------
 Title Card Required
 -------------------
 Charge =  0 Multiplicity = 1

 SCF Done:  E(RB3LYP) =  -838.763315171     a.u. after    1 cycles

      1  C    Isotropic =    36.1526   Anisotropy =    77.5271

      2  O    Isotropic =     1.6573   Anisotropy =   440.0096

      3  N    Isotropic =  -352.7615   Anisotropy =   728.1045

      4  N    Isotropic =  -352.0480   Anisotropy =   725.6886

      5  C    Isotropic =    36.0165   Anisotropy =    77.6536

      6  O    Isotropic =     1.7246   Anisotropy =   440.3638

      7  N    Isotropic =   148.2431   Anisotropy =    66.7651

      8  C    Isotropic =   145.5299   Anisotropy =    24.4334

      9  C    Isotropic =   163.1387   Anisotropy =     6.6568

     10  C    Isotropic =   164.1198   Anisotropy =     3.8076

     11  C    Isotropic =   162.9424   Anisotropy =     6.7320

     12  C    Isotropic =   146.8851   Anisotropy =    26.0125

     13  N    Isotropic =   147.9093   Anisotropy =    64.7765

     14  C    Isotropic =   145.5763   Anisotropy =    25.0254

     15  C    Isotropic =   163.1970   Anisotropy =     5.5665

     16  C    Isotropic =   164.1524   Anisotropy =     3.9788

     17  C    Isotropic =   162.9846   Anisotropy =     7.1414

     18  C    Isotropic =   146.6750   Anisotropy =    25.9762

     19  H    Isotropic =    28.9782   Anisotropy =     9.5509

     20  H    Isotropic =    29.5067   Anisotropy =     7.6850

     21  H    Isotropic =    30.4593   Anisotropy =     7.1164

     22  H    Isotropic =    30.8099   Anisotropy =     9.2301

     23  H    Isotropic =    30.3796   Anisotropy =     9.3961

     24  H    Isotropic =    30.6657   Anisotropy =     7.8642

     25  H    Isotropic =    30.4020   Anisotropy =     7.1797

     26  H    Isotropic =    30.6501   Anisotropy =     9.3792

     27  H    Isotropic =    27.8411   Anisotropy =     6.2237

     28  H    Isotropic =    29.6016   Anisotropy =     8.1852

     29  H    Isotropic =    29.0005   Anisotropy =     8.0942

     30  H    Isotropic =    29.3617   Anisotropy =     7.3360

     31  H    Isotropic =    30.7592   Anisotropy =     7.3906

     32  H    Isotropic =    30.8467   Anisotropy =     9.2065

     33  H    Isotropic =    30.4416   Anisotropy =     9.5006

     34  H    Isotropic =    30.6798   Anisotropy =     7.9042

     35  H    Isotropic =    30.6132   Anisotropy =     7.0811

     36  H    Isotropic =    30.7261   Anisotropy =     9.4494

     37  H    Isotropic =    27.8399   Anisotropy =     6.0986

     38  H    Isotropic =    29.5335   Anisotropy =     8.0622

  Exact polarizability: 210.277   2.474 150.830   1.958   0.548 115.534
 Approx polarizability: 241.963  10.580 238.308   7.321  -0.237 179.661

                      1                      2                      3
                      A                      A                      A
 Frequencies --     15.2872                37.3288                39.0477
 Red. masses --      4.8680                 4.4687                 4.9142
 Frc consts  --      0.0007                 0.0037                 0.0044
 IR Inten    --      3.2825                 1.7610                 3.4968

                      4                      5                      6
                      A                      A                      A
 Frequencies --     47.7797                55.2340                61.6704
 Red. masses --      3.4662                 4.4061                 5.0509
 Frc consts  --      0.0047                 0.0079                 0.0113
 IR Inten    --      0.4271                 0.2416                 2.0997

                      7                      8                      9
                      A                      A                      A
 Frequencies --     83.3958               175.9376               191.3758
 Red. masses --      4.7501                 2.9764                 3.2118
 Frc consts  --      0.0195                 0.0543                 0.0693
 IR Inten    --      0.1763                 0.1672                 8.1964

                     10                     11                     12
                      A                      A                      A
 Frequencies --    200.9693               219.7801               256.1956
 Red. masses --      5.8010                 5.0981                 2.2153
 Frc consts  --      0.1380                 0.1451                 0.0857
 IR Inten    --      2.3958                 0.2957                 0.8600

                     13                     14                     15
                      A                      A                      A
 Frequencies --    270.9691               300.4608               323.9786
 Red. masses --      2.5137                 2.5589                 2.8210
 Frc consts  --      0.1087                 0.1361                 0.1745
 IR Inten    --      2.6982                 1.8675                22.2128

                     16                     17                     18
                      A                      A                      A
 Frequencies --    364.5430               381.6557               392.8583
 Red. masses --      5.5698                 4.9132                 1.8098
 Frc consts  --      0.4361                 0.4217                 0.1646
 IR Inten    --      1.3490                 1.6265                 2.4552

                     19                     20                     21
                      A                      A                      A
 Frequencies --    405.9606               445.5042               450.4900
 Red. masses --      1.7847                 3.1823                 2.9945
 Frc consts  --      0.1733                 0.3721                 0.3581
 IR Inten    --      2.4530                 0.1290                 0.8398

                     22                     23                     24
                      A                      A                      A
 Frequencies --    476.6145               525.7902               550.4721
 Red. masses --      3.4205                 2.0173                 2.1759
 Frc consts  --      0.4578                 0.3286                 0.3885
 IR Inten    --      0.1277                 8.6733                 0.8291

                     25                     26                     27
                      A                      A                      A
 Frequencies --    576.3148               583.7461               627.2986
 Red. masses --      6.2033                 5.6986                 3.5404
 Frc consts  --      1.2139                 1.1441                 0.8208
 IR Inten    --     19.6447                 3.4260                10.3121

                     28                     29                     30
                      A                      A                      A
 Frequencies --    687.8357               747.9802               795.1628
 Red. masses --      3.8345                 5.4913                11.6069
 Frc consts  --      1.0689                 1.8101                 4.3239
 IR Inten    --      0.3109                 2.8945                20.4413

                     31                     32                     33
                      A                      A                      A
 Frequencies --    823.3185               825.1687               834.4578
 Red. masses --      1.5090                 1.5043                 3.1929
 Frc consts  --      0.6026                 0.6035                 1.3099
 IR Inten    --      0.2653                 0.2582                 0.7697

                     34                     35                     36
                      A                      A                      A
 Frequencies --    843.2784               869.5312               869.9126
 Red. masses --      3.0699                 1.4006                 1.4217
 Frc consts  --      1.2862                 0.6239                 0.6339
 IR Inten    --      3.3692                 9.8265                 7.6250

                     37                     38                     39
                      A                      A                      A
 Frequencies --    891.8868               910.3568               922.0496
 Red. masses --      3.2477                 2.5246                 3.1705
 Frc consts  --      1.5221                 1.2327                 1.5881
 IR Inten    --      0.0514                 7.7228                 0.2390

                     40                     41                     42
                      A                      A                      A
 Frequencies --    971.5910               977.1640               979.4042
 Red. masses --      2.7181                 1.5630                 1.3831
 Frc consts  --      1.5118                 0.8793                 0.7817
 IR Inten    --      4.1638                 1.1863                 4.2488

                     43                     44                     45
                      A                      A                      A
 Frequencies --    981.8698              1036.0636              1041.1051
 Red. masses --      2.6652                 2.7547                 2.5567
 Frc consts  --      1.5139                 1.7422                 1.6328
 IR Inten    --      0.4164                 5.6635                78.7469

                     46                     47                     48
                      A                      A                      A
 Frequencies --   1048.1253              1054.6549              1083.5410
 Red. masses --      2.1585                 2.2449                 1.7166
 Frc consts  --      1.3971                 1.4712                 1.1874
 IR Inten    --      0.3499                 3.1216                 0.2780

                     49                     50                     51
                      A                      A                      A
 Frequencies --   1084.7355              1154.9892              1158.4346
 Red. masses --      1.7104                 2.1700                 2.1371
 Frc consts  --      1.1857                 1.7056                 1.6898
 IR Inten    --      0.2287                 2.6402                16.1818

                     52                     53                     54
                      A                      A                      A
 Frequencies --   1169.4508              1172.3880              1195.6576
 Red. masses --      1.8911                 2.0040                 1.2513
 Frc consts  --      1.5238                 1.6229                 1.0539
 IR Inten    --     16.1868                77.8865                 1.3881

                     55                     56                     57
                      A                      A                      A
 Frequencies --   1197.0121              1261.2038              1264.1903
 Red. masses --      1.2642                 1.7978                 1.7924
 Frc consts  --      1.0673                 1.6849                 1.6877
 IR Inten    --      1.3051               148.3233               135.5412

                     58                     59                     60
                      A                      A                      A
 Frequencies --   1287.5625              1293.0926              1300.8520
 Red. masses --      2.2579                 1.8230                 1.2626
 Frc consts  --      2.2055                 1.7960                 1.2588
 IR Inten    --    280.9579                10.9054                21.3410

                     61                     62                     63
                      A                      A                      A
 Frequencies --   1303.2928              1323.2837              1323.7668
 Red. masses --      1.3609                 1.2221                 1.2027
 Frc consts  --      1.3620                 1.2608                 1.2418
 IR Inten    --     10.0183                19.6621                24.5406

                     64                     65                     66
                      A                      A                      A
 Frequencies --   1371.0182              1372.7512              1398.1283
 Red. masses --      1.2808                 1.2875                 1.3697
 Frc consts  --      1.4185                 1.4295                 1.5775
 IR Inten    --      0.0336                 0.5147                 1.6679

                     67                     68                     69
                      A                      A                      A
 Frequencies --   1398.3842              1400.8322              1401.6511
 Red. masses --      1.3865                 1.4606                 1.4636
 Frc consts  --      1.5975                 1.6888                 1.6942
 IR Inten    --      2.1165                 1.5636                 3.0482

                     70                     71                     72
                      A                      A                      A
 Frequencies --   1403.5428              1405.7898              1421.6426
 Red. masses --      1.4503                 1.4411                 1.3327
 Frc consts  --      1.6832                 1.6780                 1.5869
 IR Inten    --      3.4406                 4.1436                 8.7148

                     73                     74                     75
                      A                      A                      A
 Frequencies --   1425.4016              1481.8650              1485.9975
 Red. masses --      1.3433                 2.8816                 3.0634
 Frc consts  --      1.6080                 3.7282                 3.9856
 IR Inten    --     10.2784               413.3934                 3.2945

                     76                     77                     78
                      A                      A                      A
 Frequencies --   1507.8972              1507.9233              1514.4321
 Red. masses --      1.0950                 1.0950                 1.0860
 Frc consts  --      1.4670                 1.4670                 1.4675
 IR Inten    --      0.1156                 1.7772                 5.7065

                     79                     80                     81
                      A                      A                      A
 Frequencies --   1514.7553              1516.9528              1519.0187
 Red. masses --      1.0859                 1.0894                 1.0868
 Frc consts  --      1.4680                 1.4770                 1.4775
 IR Inten    --      5.2449                12.8342                 4.0088

                     82                     83                     84
                      A                      A                      A
 Frequencies --   1519.5990              1523.1324              1534.2191
 Red. masses --      1.0997                 1.0939                 1.1006
 Frc consts  --      1.4961                 1.4952                 1.5264
 IR Inten    --     10.1954                 4.4675                 3.0780

                     85                     86                     87
                      A                      A                      A
 Frequencies --   1535.0351              1649.5620              1775.7610
 Red. masses --      1.0997                13.7874                11.6206
 Frc consts  --      1.5268                22.1039                21.5897
 IR Inten    --      4.1701                 0.0315                 1.1316

                     88                     89                     90
                      A                      A                      A
 Frequencies --   1797.7950              3015.0623              3018.1964
 Red. masses --     11.7123                 1.0732                 1.0729
 Frc consts  --     22.3036                 5.7483                 5.7582
 IR Inten    --    854.1167                12.2264                12.2392

                     91                     92                     93
                      A                      A                      A
 Frequencies --   3018.2965              3021.2119              3025.4362
 Red. masses --      1.0730                 1.0718                 1.0699
 Frc consts  --      5.7591                 5.7639                 5.7700
 IR Inten    --     38.3671                30.9697                82.5428

                     94                     95                     96
                      A                      A                      A
 Frequencies --   3025.6243              3045.4524              3045.8482
 Red. masses --      1.0697                 1.0609                 1.0608
 Frc consts  --      5.7695                 5.7973                 5.7982
 IR Inten    --     23.0426                25.4405                25.3844

                     97                     98                     99
                      A                      A                      A
 Frequencies --   3047.3368              3047.5400              3082.0702
 Red. masses --      1.0617                 1.0616                 1.0934
 Frc consts  --      5.8090                 5.8093                 6.1193
 IR Inten    --     19.3288                21.1252                59.8958

                    100                    101                    102
                      A                      A                      A
 Frequencies --   3082.2843              3088.9403              3089.1874
 Red. masses --      1.0933                 1.1036                 1.1038
 Frc consts  --      6.1199                 6.2040                 6.2061
 IR Inten    --     43.1326                31.8270                31.9510

                    103                    104                    105
                      A                      A                      A
 Frequencies --   3094.0669              3094.3351              3149.6878
 Red. masses --      1.1049                 1.1049                 1.0920
 Frc consts  --      6.2322                 6.2334                 6.3830
 IR Inten    --     60.5924                69.0568                 6.9646

                    106                    107                    108
                      A                      A                      A
 Frequencies --   3151.3631              3156.4563              3157.3218
 Red. masses --      1.0927                 1.0916                 1.0919
 Frc consts  --      6.3937                 6.4080                 6.4134
 IR Inten    --      5.2850                 3.6662                 3.5107

 - Thermochemistry -
 -------------------
 Temperature   298.150 Kelvin.  Pressure   1.00000 Atm.
 Atom     1 has atomic number  6 and mass  12.00000

 Molecular mass:   252.15863 amu.
 Principal axes and moments of inertia in atomic units:
                           1         2         3
     Eigenvalues --  1722.40733********************
           X            0.99997   0.00820  -0.00140
           Y           -0.00819   0.99993   0.00826
           Z            0.00147  -0.00825   0.99996
 This molecule is an asymmetric top.
 Rotational symmetry number  1.
 Warning -- assumption of classical behavior for rotation
           may cause significant error
 Rotational temperatures (Kelvin)      0.05029     0.00849     0.00778
 Rotational constants (GHZ):           1.04780     0.17691     0.16207
 Zero-point vibrational energy     864803.4 (Joules/Mol)
                                  206.69297 (Kcal/Mol)
 Warning -- explicit consideration of  26 degrees of freedom as
           vibrations may cause significant error
 Vibrational temperatures:     21.99    53.71    56.18    68.74    79.47
          (Kelvin)             88.73   119.99   253.13   275.35   289.15
                              316.21   368.61   389.86   432.30   466.13
                              524.50   549.12   565.24   584.09   640.98
                              648.15   685.74   756.49   792.01   829.19
                              839.88   902.54   989.64  1076.18  1144.06
                             1184.57  1187.23  1200.60  1213.29  1251.06
                             1251.61  1283.23  1309.80  1326.62  1397.90
                             1405.92  1409.14  1412.69  1490.66  1497.92
                             1508.02  1517.41  1558.97  1560.69  1661.77
                             1666.73  1682.58  1686.80  1720.28  1722.23
                             1814.59  1818.89  1852.52  1860.47  1871.64
                             1875.15  1903.91  1904.61  1972.59  1975.08
                             2011.59  2011.96  2015.49  2016.66  2019.39
                             2022.62  2045.43  2050.83  2132.07  2138.02
                             2169.53  2169.57  2178.93  2179.40  2182.56
                             2185.53  2186.36  2191.45  2207.40  2208.57
                             2373.35  2554.92  2586.63  4338.00  4342.51
                             4342.66  4346.85  4352.93  4353.20  4381.73
                             4382.30  4384.44  4384.73  4434.41  4434.72
                             4444.30  4444.65  4451.67  4452.06  4531.70
                             4534.11  4541.44  4542.68

 Zero-point correction=                           0.329386 (Hartree/Particle)
 Thermal correction to Energy=                    0.346575
 Thermal correction to Enthalpy=                  0.347519
 Thermal correction to Gibbs Free Energy=         0.281380
 Sum of electronic and zero-point Energies=           -838.433929
 Sum of electronic and thermal Energies=              -838.416740
 Sum of electronic and thermal Enthalpies=            -838.415796
 Sum of electronic and thermal Free Energies=         -838.481935

                     E (Thermal)             CV                S
                      KCal/Mol        Cal/Mol-Kelvin    Cal/Mol-Kelvin
 Total                  217.479             64.723            139.201
 Electronic               0.000              0.000              0.000
 Translational            0.889              2.981             42.475
 Rotational               0.889              2.981             33.636
 Vibrational            215.702             58.761             63.090
 Vibration     1          0.593              1.986              7.168
 Vibration     2          0.594              1.982              5.396
 Vibration     3          0.594              1.981              5.307
 Vibration     4          0.595              1.978              4.907
 Vibration     5          0.596              1.975              4.621
 Vibration     6          0.597              1.973              4.403
 Vibration     7          0.600              1.961              3.809
 Vibration     8          0.628              1.872              2.371
 Vibration     9          0.634              1.852              2.214
 Vibration    10          0.638              1.839              2.124
 Vibration    11          0.647              1.811              1.961
 Vibration    12          0.666              1.752              1.688
 Vibration    13          0.675              1.727              1.590
 Vibration    14          0.693              1.673              1.414
 Vibration    15          0.709              1.627              1.290
 Vibration    16          0.738              1.545              1.103
 Vibration    17          0.751              1.509              1.033
 Vibration    18          0.760              1.485              0.989
 Vibration    19          0.771              1.457              0.941
 Vibration    20          0.805              1.371              0.809
 Vibration    21          0.809              1.360              0.794
 Vibration    22          0.833              1.302              0.719
 Vibration    23          0.881              1.193              0.597
 Vibration    24          0.906              1.139              0.543
 Vibration    25          0.933              1.082              0.492
 Vibration    26          0.941              1.066              0.478

 Optimization completed.
    -- Stationary point found.
 Normal termination of Gaussian 16 at Sat Aug 22 19:30:51 2020.
 Gaussian 16:  ES64L-G16RevA.03 25-Dec-2016

 ----------------------------------------------------------------------
 # TD(NStates=10, Root=1) B3LYP/6-31G* scf=qc volume pop=NPA density=cu
 rrent Geom=AllCheck Guess=Read
 ----------------------------------------------------------------------

 Structure from the checkpoint file:  "azadicarboxylate_5_conf23.chk"
 -------------------
 Title Card Required
 -------------------
 Charge =  0 Multiplicity = 1

                         Standard orientation:
 ---------------------------------------------------------------------
 Center     Atomic      Atomic             Coordinates (Angstroms)
 Number     Number       Type             X           Y           Z
 ---------------------------------------------------------------------
      1          6           0       -1.554310    1.010675   -0.592403
      2          8           0       -1.344435    2.208830   -0.488257
      3          7           0       -0.437135    0.122533   -0.915488
      4          7           0        0.316430   -0.055641    0.058684
      5          6           0        1.432151   -0.947058   -0.256319
      6          8           0        1.220483   -2.147138   -0.332722
      7          7           0        2.634783   -0.326772   -0.314486
      8          6           0        2.818601    1.127725   -0.244322
      9          6           0        3.834944    1.490096    0.846553
     10          6           0        5.147438    0.712823    0.664413
     11          6           0        4.881245   -0.798499    0.587471
     12          6           0        3.850798   -1.123171   -0.501119
     13          7           0       -2.756211    0.387555   -0.551843
     14          6           0       -2.937909   -1.066712   -0.628222
     15          6           0       -3.612108   -1.591904    0.646747
     16          6           0       -4.914236   -0.828603    0.936500
     17          6           0       -4.667512    0.687934    0.976776
     18          6           0       -3.970080    1.169014   -0.302556
     19          1           0        1.854822    1.603663   -0.058396
     20          1           0        3.177454    1.481078   -1.223129
     21          1           0        3.398326    1.258016    1.826870
     22          1           0        4.016345    2.571444    0.820213
     23          1           0        5.840330    0.937822    1.483909
     24          1           0        5.639149    1.042687   -0.262892
     25          1           0        4.502908   -1.158295    1.553429
     26          1           0        5.808780   -1.345934    0.379098
     27          1           0        3.558703   -2.173949   -0.488969
     28          1           0        4.269257   -0.896597   -1.493603
     29          1           0       -1.970805   -1.544352   -0.790812
     30          1           0       -3.568426   -1.287731   -1.502511
     31          1           0       -2.915623   -1.475906    1.487561
     32          1           0       -3.807623   -2.665179    0.533346
     33          1           0       -5.352457   -1.168979    1.882236
     34          1           0       -5.649288   -1.055638    0.149893
     35          1           0       -4.035830    0.938845    1.839102
     36          1           0       -5.612754    1.231073    1.099209
     37          1           0       -3.678798    2.218194   -0.240258
     38          1           0       -4.642049    1.048552   -1.165651
 ---------------------------------------------------------------------

 SCF Done:  E(RB3LYP) =  -838.763315171     a.u. after    1 cycles

 Excitation energies and oscillator strengths:

 Excited State   1:      Singlet-A      2.6552 eV  466.94 nm  f=0.0000  <S**2>=0.000
      68 -> 69         0.69733
 This state for optimization and/or second-order correction.
 Total Energy, E(TD-HF/TD-DFT) =  -838.665737265
 Copying the excited state density for this state as the 1-particle RhoCI density.

 Excited State   2:      Singlet-A      3.8373 eV  323.11 nm  f=0.0015  <S**2>=0.000
      66 -> 69        -0.30048
      67 -> 69         0.63418

 Excited State   3:      Singlet-A      3.8610 eV  321.12 nm  f=0.0019  <S**2>=0.000
      66 -> 69         0.63321
      67 -> 69         0.30285

 Excited State   4:      Singlet-A      4.3830 eV  282.88 nm  f=0.0428  <S**2>=0.000
      65 -> 69         0.69355

 Excited State   5:      Singlet-A      5.0150 eV  247.23 nm  f=0.0000  <S**2>=0.000
      64 -> 69         0.68252
      68 -> 70         0.10541

 Excited State   6:      Singlet-A      5.7565 eV  215.38 nm  f=0.0484  <S**2>=0.000
      65 -> 70         0.18692
      68 -> 70         0.52228
      68 -> 71         0.41401

 Excited State   7:      Singlet-A      5.8116 eV  213.34 nm  f=0.0052  <S**2>=0.000
      64 -> 69         0.12585
      65 -> 71        -0.18765
      68 -> 70        -0.40279
      68 -> 71         0.51824

 Excited State   8:      Singlet-A      6.3931 eV  193.93 nm  f=0.0022  <S**2>=0.000
      59 -> 69         0.15741
      61 -> 69        -0.16397
      63 -> 69         0.65067

 Excited State   9:      Singlet-A      6.4682 eV  191.68 nm  f=0.0004  <S**2>=0.000
      60 -> 69        -0.23615
      62 -> 69         0.65473

 Excited State  10:      Singlet-A      6.5051 eV  190.59 nm  f=0.0540  <S**2>=0.000
      59 -> 69        -0.39253
      60 -> 69         0.45241
      62 -> 69         0.23295
      63 -> 69         0.21380

 The electronic state is 1-A.
 Alpha  occ. eigenvalues --  -19.12112 -19.12073 -14.40321 -14.40263 -14.37157
 Alpha  occ. eigenvalues --  -14.37117 -10.30881 -10.30849 -10.22687 -10.22654
 Alpha  occ. eigenvalues --  -10.22198 -10.22182 -10.19209 -10.19190 -10.19157
 Alpha  occ. eigenvalues --  -10.19129 -10.19114 -10.19094  -1.08207  -1.04574
 Alpha  occ. eigenvalues --   -1.00769  -0.94884  -0.94734  -0.81200  -0.80552
 Alpha  occ. eigenvalues --   -0.77507  -0.76847  -0.75001  -0.69199  -0.66895
 Alpha  occ. eigenvalues --   -0.64264  -0.63572  -0.60178  -0.58897  -0.55815
 Alpha  occ. eigenvalues --   -0.54349  -0.52855  -0.49127  -0.48019  -0.47639
 Alpha  occ. eigenvalues --   -0.46599  -0.46417  -0.45846  -0.45010  -0.43866
 Alpha  occ. eigenvalues --   -0.43817  -0.43136  -0.42389  -0.41796  -0.41420
 Alpha  occ. eigenvalues --   -0.39994  -0.39659  -0.38380  -0.38082  -0.36538
 Alpha  occ. eigenvalues --   -0.36123  -0.36012  -0.34372  -0.34076  -0.33404
 Alpha  occ. eigenvalues --   -0.33304  -0.33018  -0.32874  -0.29745  -0.26872
 Alpha  occ. eigenvalues --   -0.24577  -0.24450  -0.22418
 Alpha virt. eigenvalues --   -0.06820   0.03299   0.03506   0.08740   0.08894
 Alpha virt. eigenvalues --    0.10868   0.10941   0.12675   0.12774   0.13998
 Alpha virt. eigenvalues --    0.14300   0.14441   0.14579   0.15620   0.15882

 Mulliken charges:
               1
     1  C    0.700320
     2  O   -0.468368
     3  N   -0.281336
     4  N   -0.283256
     5  C    0.699497
     6  O   -0.468626
     7  N   -0.403287
     8  C   -0.149544
     9  C   -0.263861
    10  C   -0.269359
    11  C   -0.264499
    12  C   -0.148342
    13  N   -0.399727
    14  C   -0.154962
    15  C   -0.261410
    16  C   -0.269407
    17  C   -0.262855
    18  C   -0.151038
    19  H    0.207470
    20  H    0.145778
    21  H    0.147463
    22  H    0.144593
    23  H    0.142580
    24  H    0.133102
    25  H    0.148261
    26  H    0.142839
    27  H    0.190550
    28  H    0.147456
    29  H    0.208231
    30  H    0.144677
    31  H    0.151139
    32  H    0.143829
    33  H    0.142606
    34  H    0.131670
    35  H    0.149482
    36  H    0.141517
    37  H    0.190368
    38  H    0.146446
 Sum of Mulliken charges =  -0.00000

 Dipole moment (field-independent basis, Debye):
    X=              0.1335    Y=             -0.0568    Z=              0.6735  Tot=              0.6890
 Quadrupole moment (field-independent basis, Debye-Ang):
   XX=            -76.4783   YY=           -116.4185   ZZ=           -106.6172
   XY=              4.7696   XZ=             -0.3046   YZ=              0.5834

 Summary of Natural Population Analysis:

                                       Natural Population
                Natural  -----------------------------------------------
    Atom  No    Charge         Core      Valence    Rydberg      Total
 -----------------------------------------------------------------------
      C    1    0.79533      1.99934     3.15849    0.04684     5.20467
      O    2   -0.57138      1.99979     6.55304    0.01855     8.57138
      N    3   -0.24921      1.99941     5.22367    0.02613     7.24921
      N    4   -0.25251      1.99941     5.22706    0.02603     7.25251
      C    5    0.79711      1.99934     3.15683    0.04672     5.20289
      O    6   -0.57264      1.99979     6.55431    0.01854     8.57264
      N    7   -0.47109      1.99927     5.45892    0.01290     7.47109
      C    8   -0.26150      1.99930     4.24608    0.01613     6.26150
      C    9   -0.47070      1.99932     4.45990    0.01148     6.47070
      C   10   -0.46524      1.99933     4.45437    0.01154     6.46524
      C   11   -0.47146      1.99932     4.46074    0.01140     6.47146
      C   12   -0.25927      1.99932     4.24375    0.01620     6.25927
      N   13   -0.47011      1.99928     5.45794    0.01289     7.47011
      C   14   -0.26153      1.99930     4.24592    0.01631     6.26153
      C   15   -0.47197      1.99932     4.46120    0.01145     6.47197
      C   16   -0.46554      1.99933     4.45466    0.01155     6.46554
      C   17   -0.47181      1.99932     4.46117    0.01132     6.47181
      C   18   -0.25936      1.99932     4.24388    0.01616     6.25936
      H   19    0.27345      0.00000     0.72412    0.00243     0.72655
      H   20    0.22422      0.00000     0.77351    0.00227     0.77578
      H   21    0.23579      0.00000     0.76214    0.00207     0.76421
      H   22    0.24646      0.00000     0.75245    0.00110     0.75354
      H   23    0.24436      0.00000     0.75453    0.00111     0.75564
      H   24    0.22670      0.00000     0.77136    0.00194     0.77330
      H   25    0.23631      0.00000     0.76181    0.00188     0.76369
      H   26    0.24561      0.00000     0.75326    0.00113     0.75439
      H   27    0.26780      0.00000     0.73017    0.00203     0.73220
      H   28    0.22495      0.00000     0.77304    0.00201     0.77505
      H   29    0.27342      0.00000     0.72415    0.00243     0.72658
      H   30    0.22525      0.00000     0.77258    0.00217     0.77475
      H   31    0.23793      0.00000     0.76008    0.00199     0.76207
      H   32    0.24593      0.00000     0.75295    0.00112     0.75407
      H   33    0.24435      0.00000     0.75454    0.00111     0.75565
      H   34    0.22579      0.00000     0.77227    0.00194     0.77421
      H   35    0.23686      0.00000     0.76125    0.00189     0.76314
      H   36    0.24438      0.00000     0.75449    0.00113     0.75562
      H   37    0.26759      0.00000     0.73035    0.00205     0.73241
      H   38    0.22575      0.00000     0.77220    0.00205     0.77425
 =======================================================================
   * Total *   -0.00000     35.98882    99.63317    0.37801   136.00000

 Normal termination of Gaussian 16 at Sat Aug 22 19:41:59 2020.
