 Gaussian 16, Revision A.03,

 ---------------------------------
 # opt=CalcAll B3LYP/6-31G* scf=qc
 ---------------------------------

 -------------------
 Title Card Required
 -------------------
 Symbolic Z-matrix:
 Charge =  0 Multiplicity = 1

 SCF Done:  E(RB3LYP) =  -802.252819014     a.u. after   10 cycles
 SCF Done:  E(RB3LYP) =  -802.276233961     a.u. after   25 cycles
 SCF Done:  E(RB3LYP) =  -802.279967916     a.u. after   17 cycles
 SCF Done:  E(RB3LYP) =  -802.280709136     a.u. after   15 cycles
 SCF Done:  E(RB3LYP) =  -802.280993528     a.u. after   19 cycles
 SCF Done:  E(RB3LYP) =  -802.278361188     a.u. after   27 cycles
 SCF Done:  E(RB3LYP) =  -802.280670748     a.u. after   14 cycles
 SCF Done:  E(RB3LYP) =  -802.281111610     a.u. after    6 cycles
 SCF Done:  E(RB3LYP) =  -802.281143714     a.u. after    7 cycles
 SCF Done:  E(RB3LYP) =  -802.281144097     a.u. after    3 cycles
 Optimization completed on the basis of negligible forces.
    -- Stationary point found.
 Normal termination of Gaussian 16 at Sat Aug 22 14:13:32 2020.

 ----------------------------------------------------------------------
 # freq B3LYP/6-31G* scf=qc volume NMR pop=NPA density=current Geom=All
 Check Guess=Read
 ----------------------------------------------------------------------

 Structure from the checkpoint file:  "azadicarboxylate_1_conf212.chk"
 -------------------
 Title Card Required
 -------------------
 Charge =  0 Multiplicity = 1

 SCF Done:  E(RB3LYP) =  -802.281144097     a.u. after    1 cycles

      1  C    Isotropic =   165.3119   Anisotropy =    35.4403

      2  C    Isotropic =   106.1546   Anisotropy =    74.9721

      3  C    Isotropic =   164.2266   Anisotropy =    35.8389

      4  C    Isotropic =   159.6192   Anisotropy =    41.2003

      5  O    Isotropic =   125.3153   Anisotropy =   128.3594

      6  C    Isotropic =    35.1500   Anisotropy =    79.3037

      7  O    Isotropic =   -24.5210   Anisotropy =   484.7566

      8  N    Isotropic =  -316.5813   Anisotropy =   661.9478

      9  N    Isotropic =  -316.5571   Anisotropy =   661.9224

     10  C    Isotropic =    35.1529   Anisotropy =    79.3580

     11  O    Isotropic =   -24.5285   Anisotropy =   484.8353

     12  O    Isotropic =   125.3200   Anisotropy =   128.3098

     13  C    Isotropic =   106.1563   Anisotropy =    74.9706

     14  C    Isotropic =   164.2279   Anisotropy =    35.8382

     15  C    Isotropic =   159.6192   Anisotropy =    41.2004

     16  C    Isotropic =   165.3137   Anisotropy =    35.4390

     17  H    Isotropic =    31.0637   Anisotropy =     7.7610

     18  H    Isotropic =    30.7936   Anisotropy =     7.3839

     19  H    Isotropic =    29.3932   Anisotropy =     6.6118

     20  H    Isotropic =    31.1121   Anisotropy =     7.8971

     21  H    Isotropic =    29.5434   Anisotropy =     6.3099

     22  H    Isotropic =    30.8319   Anisotropy =     7.3157

     23  H    Isotropic =    31.1368   Anisotropy =     7.5948

     24  H    Isotropic =    30.6799   Anisotropy =     7.4349

     25  H    Isotropic =    30.6735   Anisotropy =     7.2485

     26  H    Isotropic =    30.8319   Anisotropy =     7.3155

     27  H    Isotropic =    29.5434   Anisotropy =     6.3102

     28  H    Isotropic =    31.1122   Anisotropy =     7.8971

     29  H    Isotropic =    30.6800   Anisotropy =     7.4347

     30  H    Isotropic =    31.1369   Anisotropy =     7.5948

     31  H    Isotropic =    30.6736   Anisotropy =     7.2485

     32  H    Isotropic =    29.3932   Anisotropy =     6.6123

     33  H    Isotropic =    30.7938   Anisotropy =     7.3841

     34  H    Isotropic =    31.0638   Anisotropy =     7.7610

  Exact polarizability: 176.978   3.654 120.134  -1.842  -0.273 105.365
 Approx polarizability: 199.615  11.806 195.572  -3.276   0.505 152.421

                      1                      2                      3
                      A                      A                      A
 Frequencies --     11.4601                33.6576                45.0661
 Red. masses --      4.1838                 3.2130                 4.7568
 Frc consts  --      0.0003                 0.0021                 0.0057
 IR Inten    --      2.2152                 0.8425                 2.3998

                      4                      5                      6
                      A                      A                      A
 Frequencies --     54.0786                56.9938               108.2908
 Red. masses --      6.1255                 4.6628                 4.5016
 Frc consts  --      0.0106                 0.0089                 0.0311
 IR Inten    --      0.0000                 0.0000                 1.0512

                      7                      8                      9
                      A                      A                      A
 Frequencies --    111.1081               178.7029               197.9454
 Red. masses --      4.0123                 3.9129                 5.7030
 Frc consts  --      0.0292                 0.0736                 0.1317
 IR Inten    --      0.0000                 0.0000                 4.4090

                     10                     11                     12
                      A                      A                      A
 Frequencies --    198.6279               206.9086               207.1866
 Red. masses --      7.4973                 1.0527                 1.0822
 Frc consts  --      0.1743                 0.0266                 0.0274
 IR Inten    --      0.0107                 0.0000                 0.3523

                     13                     14                     15
                      A                      A                      A
 Frequencies --    211.4467               255.9339               256.6091
 Red. masses --      4.7899                 1.0374                 1.0320
 Frc consts  --      0.1262                 0.0400                 0.0400
 IR Inten    --     14.7916                 0.0000                 0.0895

                     16                     17                     18
                      A                      A                      A
 Frequencies --    268.7591               269.3098               316.5529
 Red. masses --      1.0672                 1.0793                 3.0694
 Frc consts  --      0.0454                 0.0461                 0.1812
 IR Inten    --      0.0001                 0.0923                16.6008

                     19                     20                     21
                      A                      A                      A
 Frequencies --    316.6669               342.9352               352.0035
 Red. masses --      2.9597                 2.7037                 2.5466
 Frc consts  --      0.1749                 0.1873                 0.1859
 IR Inten    --      0.0068                 0.0000                 3.0802

                     22                     23                     24
                      A                      A                      A
 Frequencies --    368.4914               374.6993               427.6608
 Red. masses --      3.0188                 3.9280                 2.7655
 Frc consts  --      0.2415                 0.3249                 0.2980
 IR Inten    --      0.0804                 0.0000                 8.0837

                     25                     26                     27
                      A                      A                      A
 Frequencies --    435.7791               462.8941               465.1083
 Red. masses --      2.8980                 3.6701                 2.7959
 Frc consts  --      0.3243                 0.4633                 0.3564
 IR Inten    --      0.0000                 0.0002                 0.0033

                     28                     29                     30
                      A                      A                      A
 Frequencies --    465.6088               550.1526               604.9185
 Red. masses --      3.1301                 3.7921                 8.2970
 Frc consts  --      0.3998                 0.6762                 1.7888
 IR Inten    --      7.4181                15.2704                 0.0000

                     31                     32                     33
                      A                      A                      A
 Frequencies --    661.8966               745.3416               772.8004
 Red. masses --     10.6113                 5.3585                 4.6316
 Frc consts  --      2.7391                 1.7539                 1.6297
 IR Inten    --     15.8045                 0.0000                12.8729

                     34                     35                     36
                      A                      A                      A
 Frequencies --    815.8427               845.2150               855.2120
 Red. masses --     12.0881                 3.3638                 4.2202
 Frc consts  --      4.7405                 1.4159                 1.8186
 IR Inten    --     33.1782                 0.0000               108.6906

                     37                     38                     39
                      A                      A                      A
 Frequencies --    865.8842               936.8790               936.9600
 Red. masses --      9.1714                 1.6315                 1.6298
 Frc consts  --      4.0514                 0.8438                 0.8430
 IR Inten    --      0.0001                 0.0000                 0.2444

                     40                     41                     42
                      A                      A                      A
 Frequencies --    937.8451               938.8732               971.4135
 Red. masses --      1.6260                 1.6314                 7.9003
 Frc consts  --      0.8426                 0.8473                 4.3924
 IR Inten    --      0.2083                 0.0000                16.8515

                     43                     44                     45
                      A                      A                      A
 Frequencies --    984.5573               984.5810               993.8100
 Red. masses --      1.2009                 1.1992                 9.7830
 Frc consts  --      0.6859                 0.6849                 5.6928
 IR Inten    --      0.0021                 0.2907                 0.0000

                     46                     47                     48
                      A                      A                      A
 Frequencies --   1066.2245              1066.2725              1073.2434
 Red. masses --      1.4087                 1.4091                 1.4581
 Frc consts  --      0.9436                 0.9439                 0.9895
 IR Inten    --      0.8630                 0.0001                 0.0000

                     49                     50                     51
                      A                      A                      A
 Frequencies --   1073.6927              1194.7977              1212.6313
 Red. masses --      1.4648                 2.4749                 2.2395
 Frc consts  --      0.9949                 2.0816                 1.9403
 IR Inten    --      4.8076              1056.0952                 0.0001

                     52                     53                     54
                      A                      A                      A
 Frequencies --   1285.5740              1285.9376              1286.2875
 Red. masses --      4.4775                 2.8117                 2.7567
 Frc consts  --      4.3599                 2.7394                 2.6873
 IR Inten    --    590.5651                 0.0813                45.2300

                     55                     56                     57
                      A                      A                      A
 Frequencies --   1290.3266              1305.0757              1305.3918
 Red. masses --      4.5457                 3.3090                 3.7456
 Frc consts  --      4.4591                 3.3206                 3.7606
 IR Inten    --      0.0020               195.1254                 0.0538

                     58                     59                     60
                      A                      A                      A
 Frequencies --   1427.3002              1427.3037              1430.1132
 Red. masses --      1.2713                 1.2714                 1.2782
 Frc consts  --      1.5259                 1.5260                 1.5402
 IR Inten    --     33.3039                 0.5771                39.5075

                     61                     62                     63
                      A                      A                      A
 Frequencies --   1430.3845              1455.3125              1455.5470
 Red. masses --      1.2804                 1.2312                 1.2309
 Frc consts  --      1.5435                 1.5363                 1.5365
 IR Inten    --      0.0000                24.3778                 0.0055

                     64                     65                     66
                      A                      A                      A
 Frequencies --   1500.1744              1500.1827              1518.7206
 Red. masses --      1.0461                 1.0461                 1.0462
 Frc consts  --      1.3872                 1.3871                 1.4217
 IR Inten    --      0.0053                 0.8080                 0.0021

                     67                     68                     69
                      A                      A                      A
 Frequencies --   1518.7439              1520.2148              1520.3321
 Red. masses --      1.0461                 1.0512                 1.0513
 Frc consts  --      1.4217                 1.4314                 1.4317
 IR Inten    --      0.9364                 0.0000                 1.0591

                     70                     71                     72
                      A                      A                      A
 Frequencies --   1526.0413              1526.2936              1532.2686
 Red. masses --      1.0629                 1.0627                 1.0530
 Frc consts  --      1.4584                 1.4586                 1.4567
 IR Inten    --     24.3069                 0.0002                 2.9631

                     73                     74                     75
                      A                      A                      A
 Frequencies --   1532.3111              1554.2766              1554.3004
 Red. masses --      1.0531                 1.0543                 1.0542
 Frc consts  --      1.4568                 1.5006                 1.5005
 IR Inten    --      0.0034                21.9036                 0.3556

                     76                     77                     78
                      A                      A                      A
 Frequencies --   1649.1248              1828.2192              1841.9731
 Red. masses --     13.9758                12.4541                12.3431
 Frc consts  --     22.3941                24.5256                24.6742
 IR Inten    --      0.0000                 0.0003               540.6711

                     79                     80                     81
                      A                      A                      A
 Frequencies --   3060.3792              3060.3834              3061.4950
 Red. masses --      1.0355                 1.0355                 1.0374
 Frc consts  --      5.7143                 5.7144                 5.7291
 IR Inten    --      3.0020                10.8414                 0.4353

                     82                     83                     84
                      A                      A                      A
 Frequencies --   3061.5121              3068.5051              3068.6076
 Red. masses --      1.0375                 1.0376                 1.0376
 Frc consts  --      5.7291                 5.7563                 5.7565
 IR Inten    --     34.9940                34.6207                 0.0063

                     85                     86                     87
                      A                      A                      A
 Frequencies --   3125.2290              3125.2605              3126.8966
 Red. masses --      1.1025                 1.1025                 1.1025
 Frc consts  --      6.3445                 6.3446                 6.3512
 IR Inten    --      0.0279                14.1816                22.4529

                     88                     89                     90
                      A                      A                      A
 Frequencies --   3126.9312              3138.1959              3138.2676
 Red. masses --      1.1025                 1.1026                 1.1025
 Frc consts  --      6.3513                 6.3976                 6.3977
 IR Inten    --      0.1025                82.6963                 0.0224

                     91                     92                     93
                      A                      A                      A
 Frequencies --   3139.9408              3139.9610              3164.8511
 Red. masses --      1.1034                 1.1034                 1.1011
 Frc consts  --      6.4096                 6.4098                 6.4980
 IR Inten    --      0.0014                48.3200                 1.3819

                     94                     95                     96
                      A                      A                      A
 Frequencies --   3164.8562              3167.9044              3167.9202
 Red. masses --      1.1011                 1.1004                 1.1004
 Frc consts  --      6.4980                 6.5064                 6.5064
 IR Inten    --      1.0702                25.9482                 0.5380

 - Thermochemistry -
 -------------------
 Temperature   298.150 Kelvin.  Pressure   1.00000 Atm.
 Atom     1 has atomic number  6 and mass  12.00000

 Molecular mass:   230.12666 amu.
 Principal axes and moments of inertia in atomic units:
                           1         2         3
     Eigenvalues --  1299.197209365.244059804.75607
           X            0.99997  -0.00727   0.00122
           Y            0.00727   0.99997  -0.00364
           Z           -0.00120   0.00365   0.99999
 This molecule is an asymmetric top.
 Rotational symmetry number  1.
 Warning -- assumption of classical behavior for rotation
           may cause significant error
 Rotational temperatures (Kelvin)      0.06667     0.00925     0.00883
 Rotational constants (GHZ):           1.38912     0.19271     0.18407
 Zero-point vibrational energy     742907.0 (Joules/Mol)
                                  177.55904 (Kcal/Mol)
 Warning -- explicit consideration of  30 degrees of freedom as
           vibrations may cause significant error
 Vibrational temperatures:     16.49    48.43    64.84    77.81    82.00
          (Kelvin)            155.81   159.86   257.11   284.80   285.78
                              297.70   298.10   304.22   368.23   369.20
                              386.68   387.48   455.45   455.61   493.41
                              506.45   530.18   539.11   615.31   626.99
                              666.00   669.19   669.91   791.55   870.34
                              952.32  1072.38  1111.89  1173.82  1216.08
                             1230.46  1245.81  1347.96  1348.08  1349.35
                             1350.83  1397.65  1416.56  1416.59  1429.87
                             1534.06  1534.13  1544.16  1544.80  1719.05
                             1744.71  1849.65  1850.18  1850.68  1856.49
                             1877.71  1878.17  2053.57  2053.57  2057.61
                             2058.00  2093.87  2094.21  2158.42  2158.43
                             2185.10  2185.13  2187.25  2187.42  2195.63
                             2196.00  2204.59  2204.65  2236.26  2236.29
                             2372.72  2630.40  2650.19  4403.20  4403.21
                             4404.81  4404.83  4414.89  4415.04  4496.51
                             4496.55  4498.91  4498.96  4515.16  4515.27
                             4517.67  4517.70  4553.51  4553.52  4557.91
                             4557.93

 Zero-point correction=                           0.282958 (Hartree/Particle)
 Thermal correction to Energy=                    0.301841
 Thermal correction to Enthalpy=                  0.302785
 Thermal correction to Gibbs Free Energy=         0.234291
 Sum of electronic and zero-point Energies=           -801.998186
 Sum of electronic and thermal Energies=              -801.979303
 Sum of electronic and thermal Enthalpies=            -801.978359
 Sum of electronic and thermal Free Energies=         -802.046854

                     E (Thermal)             CV                S
                      KCal/Mol        Cal/Mol-Kelvin    Cal/Mol-Kelvin
 Total                  189.408             68.261            144.159
 Electronic               0.000              0.000              0.000
 Translational            0.889              2.981             42.202
 Rotational               0.889              2.981             33.145
 Vibrational            187.631             62.299             68.812
 Vibration     1          0.593              1.987              7.740
 Vibration     2          0.594              1.983              5.601
 Vibration     3          0.595              1.979              5.023
 Vibration     4          0.596              1.976              4.662
 Vibration     5          0.596              1.975              4.559
 Vibration     6          0.606              1.943              3.299
 Vibration     7          0.607              1.940              3.249
 Vibration     8          0.629              1.868              2.342
 Vibration     9          0.637              1.843              2.152
 Vibration    10          0.637              1.842              2.146
 Vibration    11          0.641              1.830              2.071
 Vibration    12          0.641              1.830              2.068
 Vibration    13          0.643              1.823              2.031
 Vibration    14          0.666              1.753              1.689
 Vibration    15          0.666              1.752              1.685
 Vibration    16          0.673              1.731              1.604
 Vibration    17          0.674              1.730              1.601
 Vibration    18          0.703              1.642              1.328
 Vibration    19          0.704              1.642              1.327
 Vibration    20          0.722              1.590              1.198
 Vibration    21          0.729              1.571              1.157
 Vibration    22          0.741              1.537              1.086
 Vibration    23          0.746              1.524              1.060
 Vibration    24          0.789              1.410              0.866
 Vibration    25          0.796              1.392              0.840
 Vibration    26          0.821              1.332              0.758
 Vibration    27          0.823              1.327              0.751
 Vibration    28          0.823              1.326              0.750
 Vibration    29          0.905              1.139              0.544
 Vibration    30          0.963              1.021              0.441

 Optimization completed on the basis of negligible forces.
    -- Stationary point found.
 Normal termination of Gaussian 16 at Sat Aug 22 14:20:03 2020.
 Gaussian 16:  ES64L-G16RevA.03 25-Dec-2016

 ----------------------------------------------------------------------
 # TD(NStates=10, Root=1) B3LYP/6-31G* scf=qc volume pop=NPA density=cu
 rrent Geom=AllCheck Guess=Read
 ----------------------------------------------------------------------

 Structure from the checkpoint file:  "azadicarboxylate_1_conf213.chk"
 -------------------
 Title Card Required
 -------------------
 Charge =  0 Multiplicity = 1

                         Standard orientation:
 ---------------------------------------------------------------------
 Center     Atomic      Atomic             Coordinates (Angstroms)
 Number     Number       Type             X           Y           Z
 ---------------------------------------------------------------------
      1          6           0       -4.492575   -0.729976    1.071511
      2          6           0       -3.930625    0.196434   -0.009188
      3          6           0       -4.203770   -0.314013   -1.425814
      4          6           0       -4.432456    1.629039    0.171059
      5          8           0       -2.461742    0.348436    0.183770
      6          6           0       -1.645905   -0.693882    0.114703
      7          8           0       -1.890446   -1.856357   -0.099866
      8          7           0       -0.296921   -0.283419    0.467391
      9          7           0        0.297080    0.283769   -0.468747
     10          6           0        1.646095    0.694197   -0.116051
     11          8           0        1.890887    1.856872    0.097149
     12          8           0        2.461660   -0.348447   -0.183382
     13          6           0        3.930490   -0.196629    0.010091
     14          6           0        4.203105    0.315570    1.426189
     15          6           0        4.431986   -1.629614   -0.168054
     16          6           0        4.493238    0.728214   -1.071534
     17          1           0       -5.585457   -0.750726    0.997426
     18          1           0       -4.226895   -0.361364    2.068028
     19          1           0       -4.117139   -1.748615    0.957928
     20          1           0       -5.283794   -0.311116   -1.610091
     21          1           0       -3.829869   -1.330558   -1.560966
     22          1           0       -3.730284    0.340311   -2.165305
     23          1           0       -5.520088    1.660177    0.048300
     24          1           0       -3.979272    2.294021   -0.570631
     25          1           0       -4.184379    2.004162    1.168863
     26          1           0        3.729056   -0.337653    2.166294
     27          1           0        3.829457    1.332404    1.559849
     28          1           0        5.283038    0.312574    1.610995
     29          1           0        3.978248   -2.293498    0.574281
     30          1           0        5.519549   -1.660912   -0.044732
     31          1           0        4.184276   -2.005961   -1.165488
     32          1           0        4.118040    1.747108   -0.959459
     33          1           0        4.227941    0.358384   -2.067703
     34          1           0        5.586090    0.748748   -0.996940
 ---------------------------------------------------------------------

 SCF Done:  E(RB3LYP) =  -802.281144097     a.u. after    1 cycles

 Excitation energies and oscillator strengths:

 Excited State   1:      Singlet-A      2.9536 eV  419.77 nm  f=0.0000  <S**2>=0.000
      62 -> 63         0.70033
 This state for optimization and/or second-order correction.
 Total Energy, E(TD-HF/TD-DFT) =  -802.172599505
 Copying the excited state density for this state as the 1-particle RhoCI density.

 Excited State   2:      Singlet-A      4.9680 eV  249.57 nm  f=0.0911  <S**2>=0.000
      61 -> 63         0.69452

 Excited State   3:      Singlet-A      5.1183 eV  242.24 nm  f=0.0000  <S**2>=0.000
      60 -> 63         0.68882

 Excited State   4:      Singlet-A      5.4187 eV  228.81 nm  f=0.0134  <S**2>=0.000
      59 -> 63         0.70086

 Excited State   5:      Singlet-A      5.4424 eV  227.81 nm  f=0.0000  <S**2>=0.000
      58 -> 63         0.69874

 Excited State   6:      Singlet-A      5.6286 eV  220.28 nm  f=0.0000  <S**2>=0.000
      61 -> 65         0.17809
      62 -> 64         0.67151

 Excited State   7:      Singlet-A      5.6509 eV  219.41 nm  f=0.0152  <S**2>=0.000
      61 -> 64         0.17268
      62 -> 65         0.67495

 Excited State   8:      Singlet-A      6.5022 eV  190.68 nm  f=0.0000  <S**2>=0.000
      52 -> 63         0.16570
      57 -> 63         0.67444

 Excited State   9:      Singlet-A      6.5420 eV  189.52 nm  f=0.0007  <S**2>=0.000
      53 -> 63        -0.25467
      55 -> 63        -0.10058
      56 -> 63         0.63758

 Excited State  10:      Singlet-A      6.6809 eV  185.58 nm  f=0.0163  <S**2>=0.000
      55 -> 63        -0.12481
      60 -> 65         0.33932
      61 -> 64         0.55376
      62 -> 65        -0.19237

 The electronic state is 1-A.
 Alpha  occ. eigenvalues --  -19.20272 -19.20272 -19.15007 -19.15007 -14.41519
 Alpha  occ. eigenvalues --  -14.41468 -10.34707 -10.34707 -10.26929 -10.26929
 Alpha  occ. eigenvalues --  -10.18661 -10.18661 -10.18423 -10.18422 -10.18346
 Alpha  occ. eigenvalues --  -10.18346  -1.12905  -1.11575  -1.04776  -1.03377
 Alpha  occ. eigenvalues --   -1.02949  -0.83234  -0.82104  -0.76517  -0.70292
 Alpha  occ. eigenvalues --   -0.70276  -0.70184  -0.70183  -0.65332  -0.61863
 Alpha  occ. eigenvalues --   -0.56655  -0.52086  -0.51861  -0.50495  -0.48656
 Alpha  occ. eigenvalues --   -0.48060  -0.47623  -0.46326  -0.45420  -0.45395
 Alpha  occ. eigenvalues --   -0.43636  -0.43079  -0.42383  -0.42200  -0.40997
 Alpha  occ. eigenvalues --   -0.40063  -0.39213  -0.39050  -0.38504  -0.37658
 Alpha  occ. eigenvalues --   -0.37609  -0.36867  -0.36462  -0.35882  -0.35644
 Alpha  occ. eigenvalues --   -0.34702  -0.34593  -0.31074  -0.30985  -0.30462
 Alpha  occ. eigenvalues --   -0.29062  -0.24280
 Alpha virt. eigenvalues --   -0.07474   0.01086   0.01286   0.07954   0.08017
 Alpha virt. eigenvalues --    0.09052   0.09331   0.14240   0.14244   0.14779
 Alpha virt. eigenvalues --    0.14811   0.15682   0.15695   0.16195   0.16213

 Mulliken charges:
               1
     1  C   -0.469223
     2  C    0.295329
     3  C   -0.467879
     4  C   -0.452374
     5  O   -0.446074
     6  C    0.740040
     7  O   -0.425254
     8  N   -0.240977
     9  N   -0.241001
    10  C    0.740041
    11  O   -0.425315
    12  O   -0.446095
    13  C    0.295339
    14  C   -0.467878
    15  C   -0.452373
    16  C   -0.469220
    17  H    0.151319
    18  H    0.157539
    19  H    0.186347
    20  H    0.149241
    21  H    0.186195
    22  H    0.158830
    23  H    0.150184
    24  H    0.164378
    25  H    0.162435
    26  H    0.158821
    27  H    0.186198
    28  H    0.149236
    29  H    0.164371
    30  H    0.150181
    31  H    0.162437
    32  H    0.186350
    33  H    0.157538
    34  H    0.151312
 Sum of Mulliken charges =  -0.00000

 Dipole moment (field-independent basis, Debye):
    X=             -0.0015    Y=             -0.0013    Z=              0.0033  Tot=              0.0038
 Quadrupole moment (field-independent basis, Debye-Ang):
   XX=            -63.5606   YY=           -104.0427   ZZ=            -93.2155
   XY=             -6.3086   XZ=             -0.0582   YZ=             -1.1662

 Summary of Natural Population Analysis:

                                       Natural Population
                Natural  -----------------------------------------------
    Atom  No    Charge         Core      Valence    Rydberg      Total
 -----------------------------------------------------------------------
      C    1   -0.70432      1.99932     4.69578    0.00922     6.70432
      C    2    0.27974      1.99900     3.70255    0.01871     5.72026
      C    3   -0.70336      1.99932     4.69495    0.00909     6.70336
      C    4   -0.68686      1.99932     4.67729    0.01025     6.68686
      O    5   -0.54097      1.99970     6.52812    0.01315     8.54097
      C    6    0.92394      1.99951     3.02466    0.05189     5.07606
      O    7   -0.55436      1.99977     6.53427    0.02032     8.55436
      N    8   -0.22151      1.99939     5.19564    0.02648     7.22151
      N    9   -0.22150      1.99939     5.19563    0.02648     7.22150
      C   10    0.92391      1.99951     3.02469    0.05189     5.07609
      O   11   -0.55441      1.99977     6.53432    0.02032     8.55441
      O   12   -0.54100      1.99970     6.52815    0.01315     8.54100
      C   13    0.27975      1.99900     3.70255    0.01871     5.72025
      C   14   -0.70336      1.99932     4.69495    0.00909     6.70336
      C   15   -0.68686      1.99932     4.67728    0.01025     6.68686
      C   16   -0.70432      1.99932     4.69578    0.00922     6.70432
      H   17    0.24155      0.00000     0.75771    0.00074     0.75845
      H   18    0.24083      0.00000     0.75805    0.00112     0.75917
      H   19    0.25721      0.00000     0.74141    0.00138     0.74279
      H   20    0.23977      0.00000     0.75946    0.00077     0.76023
      H   21    0.25745      0.00000     0.74130    0.00125     0.74255
      H   22    0.24163      0.00000     0.75724    0.00112     0.75837
      H   23    0.23891      0.00000     0.76041    0.00068     0.76109
      H   24    0.24577      0.00000     0.75319    0.00104     0.75423
      H   25    0.24463      0.00000     0.75432    0.00105     0.75537
      H   26    0.24163      0.00000     0.75725    0.00112     0.75837
      H   27    0.25745      0.00000     0.74130    0.00125     0.74255
      H   28    0.23977      0.00000     0.75947    0.00077     0.76023
      H   29    0.24576      0.00000     0.75320    0.00104     0.75424
      H   30    0.23891      0.00000     0.76041    0.00068     0.76109
      H   31    0.24463      0.00000     0.75432    0.00105     0.75537
      H   32    0.25721      0.00000     0.74141    0.00138     0.74279
      H   33    0.24083      0.00000     0.75805    0.00112     0.75917
      H   34    0.24155      0.00000     0.75771    0.00074     0.75845
 =======================================================================
   * Total *   -0.00000     31.99063    91.67281    0.33656   124.00000

 Normal termination of Gaussian 16 at Sat Aug 22 14:27:12 2020.
