 Gaussian 16, Revision A.03,

 ---------------------------------
 # opt=CalcAll B3LYP/6-31G* scf=qc
 ---------------------------------

 -------------------
 Title Card Required
 -------------------
 Symbolic Z-matrix:
 Charge =  0 Multiplicity = 1

 SCF Done:  E(RB3LYP) =  -723.629966730     a.u. after   10 cycles
 SCF Done:  E(RB3LYP) =  -723.649028646     a.u. after   27 cycles
 SCF Done:  E(RB3LYP) =  -723.651840859     a.u. after   19 cycles
 SCF Done:  E(RB3LYP) =  -723.652328431     a.u. after   15 cycles
 SCF Done:  E(RB3LYP) =  -723.652398780     a.u. after   13 cycles
 SCF Done:  E(RB3LYP) =  -723.652478112     a.u. after   15 cycles
 SCF Done:  E(RB3LYP) =  -723.652035535     a.u. after   23 cycles
 SCF Done:  E(RB3LYP) =  -723.652562795     a.u. after    9 cycles
 SCF Done:  E(RB3LYP) =  -723.652576228     a.u. after    4 cycles
 SCF Done:  E(RB3LYP) =  -723.652576287     a.u. after    3 cycles
 SCF Done:  E(RB3LYP) =  -723.652576302     a.u. after    2 cycles
 SCF Done:  E(RB3LYP) =  -723.652576303     a.u. after    2 cycles
 Optimization completed.
    -- Stationary point found.
 Normal termination of Gaussian 16 at Sat Aug 22 14:13:55 2020.

 ----------------------------------------------------------------------
 # freq B3LYP/6-31G* scf=qc volume NMR pop=NPA density=current Geom=All
 Check Guess=Read
 ----------------------------------------------------------------------

 Structure from the checkpoint file:  "azadicarboxylate_2_conf172.chk"
 -------------------
 Title Card Required
 -------------------
 Charge =  0 Multiplicity = 1

 SCF Done:  E(RB3LYP) =  -723.652576303     a.u. after    1 cycles

      1  C    Isotropic =   168.2903   Anisotropy =    30.3666

      2  C    Isotropic =   118.4405   Anisotropy =    64.8742

      3  C    Isotropic =   169.0150   Anisotropy =    30.5717

      4  O    Isotropic =   134.4096   Anisotropy =   117.3197

      5  C    Isotropic =    34.8224   Anisotropy =    77.9909

      6  O    Isotropic =   -19.6380   Anisotropy =   495.8225

      7  N    Isotropic =  -323.5634   Anisotropy =   676.3038

      8  N    Isotropic =  -323.5636   Anisotropy =   676.3038

      9  C    Isotropic =    34.8224   Anisotropy =    77.9907

     10  O    Isotropic =   -19.6380   Anisotropy =   495.8222

     11  O    Isotropic =   134.4095   Anisotropy =   117.3198

     12  C    Isotropic =   118.4405   Anisotropy =    64.8742

     13  C    Isotropic =   169.0150   Anisotropy =    30.5717

     14  C    Isotropic =   168.2903   Anisotropy =    30.3666

     15  H    Isotropic =    31.1311   Anisotropy =     8.4671

     16  H    Isotropic =    30.7848   Anisotropy =     6.5295

     17  H    Isotropic =    30.7405   Anisotropy =     8.6927

     18  H    Isotropic =    26.9457   Anisotropy =     2.4850

     19  H    Isotropic =    30.9685   Anisotropy =     6.6552

     20  H    Isotropic =    31.1360   Anisotropy =     8.5884

     21  H    Isotropic =    30.1920   Anisotropy =     7.3466

     22  H    Isotropic =    26.9457   Anisotropy =     2.4850

     23  H    Isotropic =    30.9685   Anisotropy =     6.6552

     24  H    Isotropic =    30.1920   Anisotropy =     7.3466

     25  H    Isotropic =    31.1360   Anisotropy =     8.5884

     26  H    Isotropic =    30.7848   Anisotropy =     6.5295

     27  H    Isotropic =    31.1311   Anisotropy =     8.4671

     28  H    Isotropic =    30.7405   Anisotropy =     8.6927

  Exact polarizability: 153.717  -3.699 102.072   0.215  -2.877  83.719
 Approx polarizability: 167.491 -11.338 162.234   1.915 -15.408 128.669

                      1                      2                      3
                      A                      A                      A
 Frequencies --      8.6578                39.4673                48.2860
 Red. masses --      4.3306                 3.0493                 5.6040
 Frc consts  --      0.0002                 0.0028                 0.0077
 IR Inten    --      2.3765                 1.3677                 0.0000

                      4                      5                      6
                      A                      A                      A
 Frequencies --     49.3700                58.0235                75.0585
 Red. masses --      4.4816                 4.5441                 5.4829
 Frc consts  --      0.0064                 0.0090                 0.0182
 IR Inten    --      2.4709                 0.0000                 1.1947

                      7                      8                      9
                      A                      A                      A
 Frequencies --     88.0736               188.1659               202.3156
 Red. masses --      4.4472                 3.7318                 7.3249
 Frc consts  --      0.0203                 0.0778                 0.1766
 IR Inten    --      0.0000                 0.0000                 1.7545

                     10                     11                     12
                      A                      A                      A
 Frequencies --    206.8220               216.3940               222.5556
 Red. masses --      4.9743                 1.8298                 1.0339
 Frc consts  --      0.1254                 0.0505                 0.0302
 IR Inten    --      0.0000                12.4118                 0.0000

                     13                     14                     15
                      A                      A                      A
 Frequencies --    224.3568               262.9730               267.0841
 Red. masses --      1.2230                 1.1912                 1.4101
 Frc consts  --      0.0363                 0.0485                 0.0593
 IR Inten    --      5.4190                 0.0000                 8.7179

                     16                     17                     18
                      A                      A                      A
 Frequencies --    329.3614               334.6992               414.9743
 Red. masses --      2.4836                 3.2011                 3.6503
 Frc consts  --      0.1587                 0.2113                 0.3704
 IR Inten    --      0.4611                 0.0000                15.7225

                     19                     20                     21
                      A                      A                      A
 Frequencies --    420.5919               435.1084               461.4368
 Red. masses --      3.0805                 5.7240                 2.7682
 Frc consts  --      0.3211                 0.6385                 0.3473
 IR Inten    --      0.0000                 0.0000                10.0098

                     22                     23                     24
                      A                      A                      A
 Frequencies --    480.5782               567.0985               600.0510
 Red. masses --      2.7353                 4.7076                10.9003
 Frc consts  --      0.3722                 0.8920                 2.3124
 IR Inten    --      0.0000                 1.9410                 0.0000

                     25                     26                     27
                      A                      A                      A
 Frequencies --    654.9620               815.3388               817.2348
 Red. masses --     11.0341                12.1834                 3.5820
 Frc consts  --      2.7888                 4.7720                 1.4095
 IR Inten    --     17.8515                30.2609                 0.0000

                     28                     29                     30
                      A                      A                      A
 Frequencies --    843.3978               863.4372               907.9334
 Red. masses --      3.2397                 7.0155                 3.4529
 Frc consts  --      1.3578                 3.0816                 1.6770
 IR Inten    --     29.5315                 0.0000                65.6253

                     31                     32                     33
                      A                      A                      A
 Frequencies --    917.1912               950.9355               950.9401
 Red. masses --      2.9572                 1.2515                 1.2521
 Frc consts  --      1.4657                 0.6668                 0.6671
 IR Inten    --      0.0000                 0.0000                 1.2567

                     34                     35                     36
                      A                      A                      A
 Frequencies --    961.8902               962.3635               987.6447
 Red. masses --      1.3744                 1.3641                 6.4116
 Frc consts  --      0.7492                 0.7443                 3.6848
 IR Inten    --      7.4554                 0.0000                31.6797

                     37                     38                     39
                      A                      A                      A
 Frequencies --   1004.7070              1140.9701              1147.5832
 Red. masses --      9.2128                 1.8356                 1.7971
 Frc consts  --      5.4793                 1.4079                 1.3944
 IR Inten    --      0.0000               386.8028                 0.0000

                     40                     41                     42
                      A                      A                      A
 Frequencies --   1175.4332              1175.4774              1218.1254
 Red. masses --      2.0373                 2.0341                 1.9712
 Frc consts  --      1.6584                 1.6559                 1.7233
 IR Inten    --      0.0000                18.7097                70.3772

                     43                     44                     45
                      A                      A                      A
 Frequencies --   1218.7297              1272.9104              1283.4575
 Red. masses --      1.9359                 5.6316                 7.0095
 Frc consts  --      1.6941                 5.3762                 6.8030
 IR Inten    --      0.0000              1241.0807                 0.0000

                     46                     47                     48
                      A                      A                      A
 Frequencies --   1384.7587              1384.9744              1397.1054
 Red. masses --      1.4059                 1.4102                 1.2486
 Frc consts  --      1.5884                 1.5937                 1.4360
 IR Inten    --      0.0000                22.4977                 0.0000

                     49                     50                     51
                      A                      A                      A
 Frequencies --   1398.1057              1433.9173              1434.0643
 Red. masses --      1.2610                 1.3425                 1.3444
 Frc consts  --      1.4522                 1.6264                 1.6290
 IR Inten    --     10.2148                38.5201                 0.0000

                     52                     53                     54
                      A                      A                      A
 Frequencies --   1448.8113              1448.8315              1511.7752
 Red. masses --      1.2567                 1.2564                 1.0539
 Frc consts  --      1.5542                 1.5539                 1.4191
 IR Inten    --     13.3200                 0.0000                 3.6590

                     55                     56                     57
                      A                      A                      A
 Frequencies --   1511.7790              1516.4157              1516.4327
 Red. masses --      1.0539                 1.0443                 1.0443
 Frc consts  --      1.4191                 1.4149                 1.4148
 IR Inten    --      0.0000                 2.3819                 0.0000

                     58                     59                     60
                      A                      A                      A
 Frequencies --   1525.6529              1525.6807              1539.7737
 Red. masses --      1.0507                 1.0504                 1.0494
 Frc consts  --      1.4409                 1.4406                 1.4659
 IR Inten    --      8.1105                 0.0000                 0.0000

                     61                     62                     63
                      A                      A                      A
 Frequencies --   1539.8308              1651.6644              1833.7801
 Red. masses --      1.0495                13.9805                12.6644
 Frc consts  --      1.4662                22.4706                25.0917
 IR Inten    --     19.2881                 0.0000                 0.0000

                     64                     65                     66
                      A                      A                      A
 Frequencies --   1848.3545              3058.6412              3058.6455
 Red. masses --     12.6084                 1.0354                 1.0354
 Frc consts  --     25.3793                 5.7070                 5.7071
 IR Inten    --    569.2744                 0.0000                21.1909

                     67                     68                     69
                      A                      A                      A
 Frequencies --   3063.1441              3063.2166              3102.2456
 Red. masses --      1.0359                 1.0359                 1.0879
 Frc consts  --      5.7266                 5.7268                 6.1687
 IR Inten    --     30.4964                 0.0000                 2.5271

                     70                     71                     72
                      A                      A                      A
 Frequencies --   3102.2565              3126.9311              3126.9315
 Red. masses --      1.0879                 1.1029                 1.1029
 Frc consts  --      6.1688                 6.3535                 6.3536
 IR Inten    --      0.0000                 4.2042                 0.0000

                     73                     74                     75
                      A                      A                      A
 Frequencies --   3136.5838              3136.6346              3141.3627
 Red. masses --      1.1014                 1.1014                 1.1028
 Frc consts  --      6.3844                 6.3844                 6.4120
 IR Inten    --     82.1691                 0.0000                 0.0000

                     76                     77                     78
                      A                      A                      A
 Frequencies --   3141.3971              3146.9968              3147.0069
 Red. masses --      1.1028                 1.1027                 1.1027
 Frc consts  --      6.4121                 6.4346                 6.4346
 IR Inten    --     38.6377                 0.0001                35.8798

 - Thermochemistry -
 -------------------
 Temperature   298.150 Kelvin.  Pressure   1.00000 Atm.
 Atom     1 has atomic number  6 and mass  12.00000

 Molecular mass:   202.09536 amu.
 Principal axes and moments of inertia in atomic units:
                           1         2         3
     Eigenvalues --   968.636337444.540687979.55381
           X            0.99994   0.00996  -0.00398
           Y           -0.00973   0.99849   0.05413
           Z            0.00452  -0.05408   0.99853
 This molecule is an asymmetric top.
 Rotational symmetry number  1.
 Warning -- assumption of classical behavior for rotation
           may cause significant error
 Rotational temperatures (Kelvin)      0.08942     0.01163     0.01085
 Rotational constants (GHZ):           1.86318     0.24242     0.22617
 Zero-point vibrational energy     597390.4 (Joules/Mol)
                                  142.77972 (Kcal/Mol)
 Warning -- explicit consideration of  24 degrees of freedom as
           vibrations may cause significant error
 Vibrational temperatures:     12.46    56.78    69.47    71.03    83.48
          (Kelvin)            107.99   126.72   270.73   291.09   297.57
                              311.34   320.21   322.80   378.36   384.27
                              473.88   481.56   597.06   605.14   626.02
                              663.90   691.44   815.93   863.34   942.34
                             1173.09  1175.82  1213.46  1242.29  1306.31
                             1319.63  1368.18  1368.19  1383.95  1384.63
                             1421.00  1445.55  1641.60  1651.12  1691.19
                             1691.25  1752.61  1753.48  1831.43  1846.61
                             1992.36  1992.67  2010.12  2011.56  2063.09
                             2063.30  2084.52  2084.55  2175.11  2175.11
                             2181.78  2181.81  2195.07  2195.11  2215.39
                             2215.47  2376.38  2638.40  2659.37  4400.70
                             4400.71  4407.18  4407.29  4463.44  4463.46
                             4498.96  4498.96  4512.84  4512.92  4519.72
                             4519.77  4527.83  4527.84

 Zero-point correction=                           0.227534 (Hartree/Particle)
 Thermal correction to Energy=                    0.243834
 Thermal correction to Enthalpy=                  0.244778
 Thermal correction to Gibbs Free Energy=         0.180420
 Sum of electronic and zero-point Energies=           -723.425042
 Sum of electronic and thermal Energies=              -723.408742
 Sum of electronic and thermal Enthalpies=            -723.407798
 Sum of electronic and thermal Free Energies=         -723.472156

                     E (Thermal)             CV                S
                      KCal/Mol        Cal/Mol-Kelvin    Cal/Mol-Kelvin
 Total                  153.008             56.269            135.453
 Electronic               0.000              0.000              0.000
 Translational            0.889              2.981             41.815
 Rotational               0.889              2.981             32.420
 Vibrational            151.231             50.308             61.217
 Vibration     1          0.593              1.987              8.297
 Vibration     2          0.594              1.981              5.286
 Vibration     3          0.595              1.978              4.886
 Vibration     4          0.595              1.978              4.842
 Vibration     5          0.596              1.974              4.523
 Vibration     6          0.599              1.966              4.016
 Vibration     7          0.601              1.958              3.702
 Vibration     8          0.633              1.856              2.246
 Vibration     9          0.639              1.837              2.112
 Vibration    10          0.641              1.830              2.072
 Vibration    11          0.645              1.816              1.989
 Vibration    12          0.648              1.807              1.938
 Vibration    13          0.649              1.804              1.924
 Vibration    14          0.670              1.741              1.642
 Vibration    15          0.672              1.734              1.615
 Vibration    16          0.712              1.617              1.263
 Vibration    17          0.716              1.606              1.237
 Vibration    18          0.778              1.438              0.909
 Vibration    19          0.783              1.425              0.890
 Vibration    20          0.796              1.394              0.842
 Vibration    21          0.819              1.336              0.762
 Vibration    22          0.837              1.293              0.709
 Vibration    23          0.923              1.102              0.510
 Vibration    24          0.958              1.032              0.450

 Optimization completed.
    -- Stationary point found.
 Normal termination of Gaussian 16 at Sat Aug 22 14:18:33 2020.
 Gaussian 16:  ES64L-G16RevA.03 25-Dec-2016

 ----------------------------------------------------------------------
 # TD(NStates=10, Root=1) B3LYP/6-31G* scf=qc volume pop=NPA density=cu
 rrent Geom=AllCheck Guess=Read
 ----------------------------------------------------------------------

 Structure from the checkpoint file:  "azadicarboxylate_2_conf173.chk"
 -------------------
 Title Card Required
 -------------------
 Charge =  0 Multiplicity = 1

                         Standard orientation:
 ---------------------------------------------------------------------
 Center     Atomic      Atomic             Coordinates (Angstroms)
 Number     Number       Type             X           Y           Z
 ---------------------------------------------------------------------
      1          6           0       -4.480475   -1.468753   -0.364668
      2          6           0       -3.893569   -0.070832   -0.247947
      3          6           0       -4.571632    0.801737    0.800860
      4          8           0       -2.484919   -0.265397    0.127467
      5          6           0       -1.632646    0.694984   -0.214769
      6          8           0       -1.856487    1.721860   -0.806564
      7          7           0       -0.318544    0.418508    0.333382
      8          7           0        0.318543   -0.418504   -0.333378
      9          6           0        1.632645   -0.694981    0.214773
     10          8           0        1.856485   -1.721853    0.806573
     11          8           0        2.484920    0.265397   -0.127469
     12          6           0        3.893570    0.070832    0.247944
     13          6           0        4.571629   -0.801746   -0.800858
     14          6           0        4.480479    1.468752    0.364656
     15          1           0       -5.528951   -1.405484   -0.674981
     16          1           0       -4.435268   -1.990949    0.596942
     17          1           0       -3.934500   -2.059868   -1.105989
     18          1           0       -3.897140    0.435501   -1.217037
     19          1           0       -4.516361    0.331393    1.788574
     20          1           0       -5.627434    0.939844    0.542647
     21          1           0       -4.101264    1.787814    0.848742
     22          1           0        3.897141   -0.435496    1.217037
     23          1           0        4.516359   -0.331408   -1.788575
     24          1           0        4.101259   -1.787822   -0.848734
     25          1           0        5.627432   -0.939853   -0.542646
     26          1           0        4.435272    1.990942   -0.596956
     27          1           0        5.528955    1.405482    0.674968
     28          1           0        3.934506    2.059872    1.105975
 ---------------------------------------------------------------------

 SCF Done:  E(RB3LYP) =  -723.652576303     a.u. after    1 cycles

 Excitation energies and oscillator strengths:

 Excited State   1:      Singlet-A      2.9532 eV  419.83 nm  f=0.0000  <S**2>=0.000
      54 -> 55         0.70112
 This state for optimization and/or second-order correction.
 Total Energy, E(TD-HF/TD-DFT) =  -723.544047488
 Copying the excited state density for this state as the 1-particle RhoCI density.

 Excited State   2:      Singlet-A      5.0425 eV  245.88 nm  f=0.0699  <S**2>=0.000
      53 -> 55         0.69426

 Excited State   3:      Singlet-A      5.1706 eV  239.78 nm  f=0.0000  <S**2>=0.000
      50 -> 55         0.40322
      52 -> 55         0.56498

 Excited State   4:      Singlet-A      5.3671 eV  231.01 nm  f=0.0279  <S**2>=0.000
      51 -> 55         0.70176

 Excited State   5:      Singlet-A      5.3690 eV  230.93 nm  f=0.0000  <S**2>=0.000
      50 -> 55         0.57209
      52 -> 55        -0.40778

 Excited State   6:      Singlet-A      5.7192 eV  216.79 nm  f=0.0000  <S**2>=0.000
      53 -> 57        -0.17127
      54 -> 56         0.67178

 Excited State   7:      Singlet-A      5.7518 eV  215.56 nm  f=0.0177  <S**2>=0.000
      53 -> 56        -0.16821
      54 -> 57         0.67495

 Excited State   8:      Singlet-A      6.4623 eV  191.86 nm  f=0.0000  <S**2>=0.000
      44 -> 55         0.10103
      49 -> 55         0.69303

 Excited State   9:      Singlet-A      6.5415 eV  189.54 nm  f=0.0001  <S**2>=0.000
      45 -> 55         0.11015
      48 -> 55         0.69145

 Excited State  10:      Singlet-A      6.7820 eV  182.81 nm  f=0.0215  <S**2>=0.000
      45 -> 55        -0.15782
      47 -> 55         0.20559
      50 -> 57        -0.18541
      52 -> 57        -0.28635
      53 -> 56         0.51707
      54 -> 57         0.18614

 The electronic state is 1-A.
 Alpha  occ. eigenvalues --  -19.20791 -19.20791 -19.15364 -19.15364 -14.42058
 Alpha  occ. eigenvalues --  -14.42007 -10.34970 -10.34970 -10.26140 -10.26140
 Alpha  occ. eigenvalues --  -10.19071 -10.19071 -10.18929 -10.18929  -1.13480
 Alpha  occ. eigenvalues --   -1.12215  -1.05407  -1.03686  -1.03275  -0.82323
 Alpha  occ. eigenvalues --   -0.80614  -0.76560  -0.70537  -0.70528  -0.65851
 Alpha  occ. eigenvalues --   -0.62388  -0.57535  -0.56526  -0.55927  -0.50894
 Alpha  occ. eigenvalues --   -0.48887  -0.48173  -0.47658  -0.47010  -0.46066
 Alpha  occ. eigenvalues --   -0.44154  -0.42415  -0.41693  -0.41637  -0.40894
 Alpha  occ. eigenvalues --   -0.40364  -0.40010  -0.39195  -0.38916  -0.37751
 Alpha  occ. eigenvalues --   -0.37017  -0.36707  -0.34963  -0.34818  -0.31485
 Alpha  occ. eigenvalues --   -0.31398  -0.31217  -0.29936  -0.24864
 Alpha virt. eigenvalues --   -0.08009   0.00836   0.01086   0.08760   0.08870
 Alpha virt. eigenvalues --    0.10439   0.10747   0.13261   0.13303   0.14493
 Alpha virt. eigenvalues --    0.14501   0.16498   0.16501   0.16845   0.17160

 Mulliken charges:
               1
     1  C   -0.454290
     2  C    0.116694
     3  C   -0.460173
     4  O   -0.422416
     5  C    0.734852
     6  O   -0.419320
     7  N   -0.242824
     8  N   -0.242824
     9  C    0.734852
    10  O   -0.419320
    11  O   -0.422416
    12  C    0.116694
    13  C   -0.460173
    14  C   -0.454290
    15  H    0.154354
    16  H    0.164287
    17  H    0.167499
    18  H    0.168491
    19  H    0.161131
    20  H    0.155445
    21  H    0.176270
    22  H    0.168491
    23  H    0.161131
    24  H    0.176270
    25  H    0.155445
    26  H    0.164287
    27  H    0.154354
    28  H    0.167499
 Sum of Mulliken charges =  -0.00000

 Dipole moment (field-independent basis, Debye):
    X=              0.0000    Y=             -0.0000    Z=             -0.0000  Tot=              0.0000
 Quadrupole moment (field-independent basis, Debye-Ang):
   XX=            -51.3588   YY=            -89.4987   ZZ=            -82.6101
   XY=              5.4092   XZ=             -0.7807   YZ=              5.1072

 Summary of Natural Population Analysis:

                                       Natural Population
                Natural  -----------------------------------------------
    Atom  No    Charge         Core      Valence    Rydberg      Total
 -----------------------------------------------------------------------
      C    1   -0.69642      1.99939     4.68793    0.00909     6.69642
      C    2    0.08281      1.99912     3.90066    0.01740     5.91719
      C    3   -0.70463      1.99939     4.69670    0.00853     6.70463
      O    4   -0.53604      1.99971     6.52355    0.01277     8.53604
      C    5    0.92025      1.99950     3.02925    0.05099     5.07975
      O    6   -0.54883      1.99977     6.52846    0.02060     8.54883
      N    7   -0.21753      1.99938     5.19195    0.02620     7.21753
      N    8   -0.21753      1.99938     5.19195    0.02620     7.21753
      C    9    0.92025      1.99950     3.02925    0.05099     5.07975
      O   10   -0.54883      1.99977     6.52846    0.02060     8.54883
      O   11   -0.53604      1.99971     6.52355    0.01277     8.53604
      C   12    0.08281      1.99912     3.90066    0.01740     5.91719
      C   13   -0.70463      1.99939     4.69670    0.00853     6.70463
      C   14   -0.69642      1.99939     4.68793    0.00909     6.69642
      H   15    0.24080      0.00000     0.75853    0.00066     0.75920
      H   16    0.23961      0.00000     0.75912    0.00127     0.76039
      H   17    0.24684      0.00000     0.75220    0.00096     0.75316
      H   18    0.24382      0.00000     0.75351    0.00267     0.75618
      H   19    0.23722      0.00000     0.76142    0.00136     0.76278
      H   20    0.24210      0.00000     0.75717    0.00073     0.75790
      H   21    0.24998      0.00000     0.74889    0.00113     0.75002
      H   22    0.24382      0.00000     0.75351    0.00267     0.75618
      H   23    0.23722      0.00000     0.76142    0.00136     0.76278
      H   24    0.24998      0.00000     0.74889    0.00113     0.75002
      H   25    0.24210      0.00000     0.75717    0.00073     0.75790
      H   26    0.23961      0.00000     0.75912    0.00127     0.76039
      H   27    0.24080      0.00000     0.75853    0.00066     0.75920
      H   28    0.24684      0.00000     0.75220    0.00096     0.75316
 =======================================================================
   * Total *   -0.00000     27.99256    79.69868    0.30875   108.00000

 Normal termination of Gaussian 16 at Sat Aug 22 14:24:09 2020.
