 Gaussian 16, Revision A.03,

 ---------------------------------
 # opt=CalcAll B3LYP/6-31G* scf=qc
 ---------------------------------

 -------------------
 Title Card Required
 -------------------
 Symbolic Z-matrix:
 Charge =  0 Multiplicity = 1

 SCF Done:  E(RB3LYP) =  -1028.45407318     a.u. after   10 cycles
 SCF Done:  E(RB3LYP) =  -1028.47577036     a.u. after   23 cycles
 SCF Done:  E(RB3LYP) =  -1028.47886363     a.u. after   21 cycles
 SCF Done:  E(RB3LYP) =  -1028.48079551     a.u. after   19 cycles
 SCF Done:  E(RB3LYP) =  -1028.48148954     a.u. after   19 cycles
 SCF Done:  E(RB3LYP) =  -1028.48199674     a.u. after   19 cycles
 SCF Done:  E(RB3LYP) =  -1028.48257100     a.u. after   17 cycles
 SCF Done:  E(RB3LYP) =  -1028.48259866     a.u. after   17 cycles
 SCF Done:  E(RB3LYP) =  -1028.48262914     a.u. after   13 cycles
 SCF Done:  E(RB3LYP) =  -1028.48263357     a.u. after    6 cycles
 SCF Done:  E(RB3LYP) =  -1028.48263685     a.u. after    9 cycles
 SCF Done:  E(RB3LYP) =  -1028.48263703     a.u. after    4 cycles
 SCF Done:  E(RB3LYP) =  -1028.48263703     a.u. after    4 cycles
 Optimization completed on the basis of negligible forces.
    -- Stationary point found.
 Normal termination of Gaussian 16 at Sat Aug 22 17:19:27 2020.

 ----------------------------------------------------------------------
 # freq B3LYP/6-31G* scf=qc volume NMR pop=NPA density=current Geom=All
 Check Guess=Read
 ----------------------------------------------------------------------

 Structure from the checkpoint file:  "azadicarboxylate_4_conf222.chk"
 -------------------
 Title Card Required
 -------------------
 Charge =  0 Multiplicity = 1

 SCF Done:  E(RB3LYP) =  -1028.48263703     a.u. after    1 cycles

      1  C    Isotropic =    62.1428   Anisotropy =   173.1174

      2  C    Isotropic =   120.7382   Anisotropy =    39.6523

      3  O    Isotropic =   141.6635   Anisotropy =   138.4982

      4  C    Isotropic =    34.5873   Anisotropy =    77.2500

      5  O    Isotropic =   -18.6714   Anisotropy =   494.8934

      6  N    Isotropic =  -322.9230   Anisotropy =   674.5264

      7  N    Isotropic =  -322.8763   Anisotropy =   674.4909

      8  C    Isotropic =    34.5935   Anisotropy =    77.3522

      9  O    Isotropic =   -18.6684   Anisotropy =   495.0146

     10  O    Isotropic =   141.6673   Anisotropy =   138.3974

     11  C    Isotropic =   120.7375   Anisotropy =    39.6569

     12  C    Isotropic =    62.1418   Anisotropy =   173.1153

     13  C    Isotropic =    63.8930   Anisotropy =   161.6537

     14  C    Isotropic =    67.6151   Anisotropy =   166.7857

     15  C    Isotropic =    66.8726   Anisotropy =   170.9776

     16  C    Isotropic =    68.1514   Anisotropy =   165.6241

     17  C    Isotropic =    65.0781   Anisotropy =   156.2480

     18  C    Isotropic =    65.0778   Anisotropy =   156.2525

     19  C    Isotropic =    68.1512   Anisotropy =   165.6243

     20  C    Isotropic =    66.8726   Anisotropy =   170.9778

     21  C    Isotropic =    67.6156   Anisotropy =   166.7860

     22  C    Isotropic =    63.8906   Anisotropy =   161.6543

     23  H    Isotropic =    27.6665   Anisotropy =     5.4719

     24  H    Isotropic =    26.3850   Anisotropy =     2.4029

     25  H    Isotropic =    27.6671   Anisotropy =     5.4711

     26  H    Isotropic =    26.3846   Anisotropy =     2.4013

     27  H    Isotropic =    24.2862   Anisotropy =     7.5266

     28  H    Isotropic =    24.8327   Anisotropy =     4.9434

     29  H    Isotropic =    24.8663   Anisotropy =     4.3457

     30  H    Isotropic =    24.8892   Anisotropy =     4.6054

     31  H    Isotropic =    24.8649   Anisotropy =     6.7377

     32  H    Isotropic =    24.8646   Anisotropy =     6.7372

     33  H    Isotropic =    24.8891   Anisotropy =     4.6054

     34  H    Isotropic =    24.8663   Anisotropy =     4.3458

     35  H    Isotropic =    24.8325   Anisotropy =     4.9431

     36  H    Isotropic =    24.2861   Anisotropy =     7.5255

  Exact polarizability: 248.086  -2.226 183.694  43.618   8.083 126.379
 Approx polarizability: 296.659   0.885 342.208  79.420  14.835 203.847

                      1                      2                      3
                      A                      A                      A
 Frequencies --      7.1308                16.8128                24.3630
 Red. masses --      6.0470                 6.8317                 3.8958
 Frc consts  --      0.0002                 0.0011                 0.0014
 IR Inten    --      0.6305                 0.6493                 0.1859

                      4                      5                      6
                      A                      A                      A
 Frequencies --     26.4147                33.7894                47.8874
 Red. masses --      4.6855                 7.7064                 7.9523
 Frc consts  --      0.0019                 0.0052                 0.0107
 IR Inten    --      0.0000                 0.0000                 0.0000

                      7                      8                      9
                      A                      A                      A
 Frequencies --     53.7843                71.2023                82.3631
 Red. masses --      8.3476                 7.0678                 5.5989
 Frc consts  --      0.0142                 0.0211                 0.0224
 IR Inten    --      1.9850                 0.0000                 4.1801

                     10                     11                     12
                      A                      A                      A
 Frequencies --    130.7729               160.7320               196.6688
 Red. masses --      7.7222                 6.7439                 7.2268
 Frc consts  --      0.0778                 0.1027                 0.1647
 IR Inten    --      0.7484                 0.0000                 0.0000

                     13                     14                     15
                      A                      A                      A
 Frequencies --    217.3622               227.9634               246.2613
 Red. masses --      7.2789                 7.2293                 7.5541
 Frc consts  --      0.2026                 0.2213                 0.2699
 IR Inten    --      0.8017                 0.0001                26.8581

                     16                     17                     18
                      A                      A                      A
 Frequencies --    330.1473               353.6120               363.3828
 Red. masses --      5.9151                 2.8010                 4.3398
 Frc consts  --      0.3799                 0.2064                 0.3376
 IR Inten    --      4.0780                 0.0000                 0.0001

                     19                     20                     21
                      A                      A                      A
 Frequencies --    371.3115               417.0472               417.0621
 Red. masses --      2.1979                 2.9668                 2.9652
 Frc consts  --      0.1785                 0.3040                 0.3039
 IR Inten    --     21.1812                 0.0077                 0.1304

                     22                     23                     24
                      A                      A                      A
 Frequencies --    434.1114               482.2030               505.2207
 Red. masses --      5.5351                 4.1234                 4.6161
 Frc consts  --      0.6146                 0.5649                 0.6942
 IR Inten    --      0.0000                 5.6080                 0.0000

                     25                     26                     27
                      A                      A                      A
 Frequencies --    570.4925               601.1484               612.5772
 Red. masses --      6.5528                 7.7677                 5.1318
 Frc consts  --      1.2565                 1.6539                 1.1346
 IR Inten    --     27.9730                 0.0006                 0.0002

                     28                     29                     30
                      A                      A                      A
 Frequencies --    627.7910               635.7309               635.8365
 Red. masses --      6.6960                 6.2691                 6.5114
 Frc consts  --      1.5549                 1.4928                 1.5510
 IR Inten    --     33.1674                 0.0002                 3.4945

                     31                     32                     33
                      A                      A                      A
 Frequencies --    646.9375               713.3399               713.8045
 Red. masses --      5.9846                 1.8526                 1.7799
 Frc consts  --      1.4757                 0.5554                 0.5343
 IR Inten    --     16.2903                 0.0065                66.1090

                     34                     35                     36
                      A                      A                      A
 Frequencies --    771.0632               774.5380               810.9518
 Red. masses --      2.0107                 2.1139                10.5988
 Frc consts  --      0.7043                 0.7472                 4.1067
 IR Inten    --      0.0000                65.8822                26.9604

                     37                     38                     39
                      A                      A                      A
 Frequencies --    827.8700               839.1044               839.5151
 Red. masses --      5.0713                 3.9195                 3.8382
 Frc consts  --      2.0478                 1.6260                 1.5938
 IR Inten    --      0.0001                 0.0002                22.4042

                     40                     41                     42
                      A                      A                      A
 Frequencies --    863.8133               863.8393               879.5811
 Red. masses --      1.2473                 1.2477                 4.8964
 Frc consts  --      0.5484                 0.5486                 2.2319
 IR Inten    --      0.6897                 0.0515                88.2129

                     43                     44                     45
                      A                      A                      A
 Frequencies --    905.7810               939.4512               942.6531
 Red. masses --      5.5272                 1.4834                 1.5672
 Frc consts  --      2.6718                 0.7714                 0.8205
 IR Inten    --      0.0000                21.6679                 0.0001

                     46                     47                     48
                      A                      A                      A
 Frequencies --    973.8888               973.9217               976.5960
 Red. masses --      1.3712                 1.3573                 4.2091
 Frc consts  --      0.7663                 0.7585                 2.3652
 IR Inten    --      1.1017                 0.0571               173.9092

                     49                     50                     51
                      A                      A                      A
 Frequencies --    987.6270              1002.4722              1002.4789
 Red. masses --      3.4667                 1.2764                 1.2765
 Frc consts  --      1.9923                 0.7558                 0.7559
 IR Inten    --      0.0006                 0.1026                 0.0739

                     52                     53                     54
                      A                      A                      A
 Frequencies --   1018.7342              1019.3312              1021.6388
 Red. masses --      3.6287                 5.0323                 3.4080
 Frc consts  --      2.2188                 3.0807                 2.0958
 IR Inten    --     18.4745                 0.0001                13.2428

                     55                     56                     57
                      A                      A                      A
 Frequencies --   1023.3481              1058.9520              1058.9558
 Red. masses --      3.2945                 2.2332                 2.2319
 Frc consts  --      2.0328                 1.4755                 1.4746
 IR Inten    --      0.0001                 0.0006                 2.3010

                     58                     59                     60
                      A                      A                      A
 Frequencies --   1123.5355              1123.5863              1194.8971
 Red. masses --      1.5184                 1.5184                 1.1025
 Frc consts  --      1.1293                 1.1294                 0.9275
 IR Inten    --      0.0005                 3.8144                 0.0021

                     61                     62                     63
                      A                      A                      A
 Frequencies --   1194.9014              1215.7179              1216.2024
 Red. masses --      1.1025                 1.1510                 1.1417
 Frc consts  --      0.9275                 1.0023                 0.9950
 IR Inten    --      0.0088                38.8230                 0.0000

                     64                     65                     66
                      A                      A                      A
 Frequencies --   1239.9556              1240.1151              1248.0889
 Red. masses --      3.1302                 2.9608                 3.9002
 Frc consts  --      2.8355                 2.6828                 3.5796
 IR Inten    --    104.5345                 0.0190              1369.7126

                     67                     68                     69
                      A                      A                      A
 Frequencies --   1260.5161              1297.1948              1298.6697
 Red. masses --      3.6626                 1.4523                 1.5661
 Frc consts  --      3.4288                 1.4399                 1.5563
 IR Inten    --      0.0027               172.4276                 0.0009

                     70                     71                     72
                      A                      A                      A
 Frequencies --   1364.9112              1364.9184              1375.1561
 Red. masses --      4.2150                 4.2120                 1.2659
 Frc consts  --      4.6265                 4.6234                 1.4104
 IR Inten    --      0.0097                 5.4284                 6.7517

                     73                     74                     75
                      A                      A                      A
 Frequencies --   1375.2532              1415.2242              1416.7432
 Red. masses --      1.2668                 1.3481                 1.3635
 Frc consts  --      1.4117                 1.5908                 1.6125
 IR Inten    --      0.0004                 0.0006                39.5997

                     76                     77                     78
                      A                      A                      A
 Frequencies --   1504.7546              1504.7615              1518.4706
 Red. masses --      2.1970                 2.1971                 1.1176
 Frc consts  --      2.9310                 2.9312                 1.5183
 IR Inten    --      0.1813                13.7362                23.7857

                     79                     80                     81
                      A                      A                      A
 Frequencies --   1518.7312              1547.9504              1547.9893
 Red. masses --      1.1195                 2.2112                 2.2089
 Frc consts  --      1.5214                 3.1217                 3.1187
 IR Inten    --      0.0009                10.1406                 0.0054

                     82                     83                     84
                      A                      A                      A
 Frequencies --   1646.2365              1646.2474              1653.4721
 Red. masses --      5.4964                 5.4956                13.9749
 Frc consts  --      8.7764                 8.7752                22.5109
 IR Inten    --      1.6476                 0.0002                 0.0000

                     85                     86                     87
                      A                      A                      A
 Frequencies --   1666.1251              1666.1562              1832.8089
 Red. masses --      5.5125                 5.5114                12.2025
 Frc consts  --      9.0160                 9.0146                24.1510
 IR Inten    --      0.7915                 0.0003                 0.0007

                     88                     89                     90
                      A                      A                      A
 Frequencies --   1847.0849              3111.0721              3111.1277
 Red. masses --     12.1456                 1.0577                 1.0577
 Frc consts  --     24.4143                 6.0316                 6.0318
 IR Inten    --    474.6642                40.4163                 0.0368

                     91                     92                     93
                      A                      A                      A
 Frequencies --   3168.5287              3168.5415              3179.8532
 Red. masses --      1.1107                 1.1107                 1.0866
 Frc consts  --      6.5699                 6.5700                 6.4732
 IR Inten    --      0.0220                 7.6766                 0.5258

                     94                     95                     96
                      A                      A                      A
 Frequencies --   3179.8591              3187.6721              3187.6768
 Red. masses --      1.0866                 1.0877                 1.0877
 Frc consts  --      6.4732                 6.5122                 6.5122
 IR Inten    --      8.6967                 3.3856                 1.4732

                     97                     98                     99
                      A                      A                      A
 Frequencies --   3198.1228              3198.1317              3207.6737
 Red. masses --      1.0914                 1.0914                 1.0948
 Frc consts  --      6.5768                 6.5769                 6.6367
 IR Inten    --      4.4296                40.2691                48.1194

                    100                    101                    102
                      A                      A                      A
 Frequencies --   3207.6973              3215.1894              3215.2009
 Red. masses --      1.0947                 1.0965                 1.0965
 Frc consts  --      6.6367                 6.6785                 6.6785
 IR Inten    --      1.5326                11.8717                 4.5924

 - Thermochemistry -
 -------------------
 Temperature   298.150 Kelvin.  Pressure   1.00000 Atm.
 Atom     1 has atomic number  6 and mass  12.00000

 Molecular mass:   298.09536 amu.
 Principal axes and moments of inertia in atomic units:
                           1         2         3
     Eigenvalues --  1781.82559********************
           X            1.00000  -0.00154   0.00175
           Y            0.00145   0.99873   0.05042
           Z           -0.00183  -0.05041   0.99873
 This molecule is an asymmetric top.
 Rotational symmetry number  1.
 Warning -- assumption of classical behavior for rotation
           may cause significant error
 Rotational temperatures (Kelvin)      0.04861     0.00388     0.00382
 Rotational constants (GHZ):           1.01286     0.08082     0.07966
 Zero-point vibrational energy     729447.5 (Joules/Mol)
                                  174.34213 (Kcal/Mol)
 Warning -- explicit consideration of  27 degrees of freedom as
           vibrations may cause significant error
 Vibrational temperatures:     10.26    24.19    35.05    38.00    48.62
          (Kelvin)             68.90    77.38   102.44   118.50   188.15
                              231.26   282.96   312.74   327.99   354.32
                              475.01   508.77   522.83   534.23   600.04
                              600.06   624.59   693.78   726.90   820.81
                              864.92   881.36   903.25   914.67   914.83
                              930.80  1026.34  1027.01  1109.39  1114.39
                             1166.78  1191.12  1207.28  1207.87  1242.83
                             1242.87  1265.52  1303.22  1351.66  1356.27
                             1401.21  1401.26  1405.10  1420.98  1442.33
                             1442.34  1465.73  1466.59  1469.91  1472.37
                             1523.60  1523.60  1616.52  1616.59  1719.19
                             1719.20  1749.15  1749.84  1784.02  1784.25
                             1795.72  1813.60  1866.37  1868.50  1963.80
                             1963.81  1978.54  1978.68  2036.19  2038.38
                             2165.01  2165.02  2184.74  2185.12  2227.16
                             2227.21  2368.57  2368.58  2378.98  2397.18
                             2397.23  2637.00  2657.54  4476.14  4476.22
                             4558.81  4558.82  4575.10  4575.11  4586.35
                             4586.36  4601.39  4601.40  4615.13  4615.16
                             4625.94  4625.96

 Zero-point correction=                           0.277832 (Hartree/Particle)
 Thermal correction to Energy=                    0.297286
 Thermal correction to Enthalpy=                  0.298231
 Thermal correction to Gibbs Free Energy=         0.222951
 Sum of electronic and zero-point Energies=          -1028.204805
 Sum of electronic and thermal Energies=             -1028.185351
 Sum of electronic and thermal Enthalpies=           -1028.184406
 Sum of electronic and thermal Free Energies=        -1028.259686

                     E (Thermal)             CV                S
                      KCal/Mol        Cal/Mol-Kelvin    Cal/Mol-Kelvin
 Total                  186.550             71.328            158.439
 Electronic               0.000              0.000              0.000
 Translational            0.889              2.981             42.974
 Rotational               0.889              2.981             35.154
 Vibrational            184.773             65.366             80.312
 Vibration     1          0.593              1.987              8.683
 Vibration     2          0.593              1.986              6.979
 Vibration     3          0.593              1.985              6.242
 Vibration     4          0.593              1.985              6.082
 Vibration     5          0.594              1.983              5.594
 Vibration     6          0.595              1.978              4.903
 Vibration     7          0.596              1.976              4.673
 Vibration     8          0.598              1.968              4.120
 Vibration     9          0.600              1.961              3.834
 Vibration    10          0.612              1.923              2.935
 Vibration    11          0.622              1.891              2.541
 Vibration    12          0.636              1.845              2.164
 Vibration    13          0.646              1.815              1.981
 Vibration    14          0.651              1.798              1.895
 Vibration    15          0.661              1.769              1.757
 Vibration    16          0.713              1.615              1.259
 Vibration    17          0.730              1.568              1.150
 Vibration    18          0.737              1.548              1.108
 Vibration    19          0.743              1.531              1.074
 Vibration    20          0.780              1.433              0.902
 Vibration    21          0.780              1.433              0.902
 Vibration    22          0.795              1.396              0.845
 Vibration    23          0.838              1.290              0.704
 Vibration    24          0.860              1.238              0.645
 Vibration    25          0.927              1.095              0.503
 Vibration    26          0.959              1.029              0.448
 Vibration    27          0.972              1.005              0.429

 Optimization completed on the basis of negligible forces.
    -- Stationary point found.
 Normal termination of Gaussian 16 at Sat Aug 22 17:30:30 2020.
 Gaussian 16:  ES64L-G16RevA.03 25-Dec-2016

 ----------------------------------------------------------------------
 # TD(NStates=10, Root=1) B3LYP/6-31G* scf=qc volume pop=NPA density=cu
 rrent Geom=AllCheck Guess=Read
 ----------------------------------------------------------------------

 Structure from the checkpoint file:  "azadicarboxylate_4_conf223.chk"
 -------------------
 Title Card Required
 -------------------
 Charge =  0 Multiplicity = 1

                         Standard orientation:
 ---------------------------------------------------------------------
 Center     Atomic      Atomic             Coordinates (Angstroms)
 Number     Number       Type             X           Y           Z
 ---------------------------------------------------------------------
      1          6           0        4.717876   -0.149595   -0.677188
      2          6           0        3.542644   -0.261512   -1.610918
      3          8           0        2.291511   -0.500533   -0.880323
      4          6           0        1.614776    0.578436   -0.499004
      5          8           0        1.881773    1.738985   -0.690766
      6          7           0        0.488945    0.195244    0.329240
      7          7           0       -0.489280   -0.199535   -0.332080
      8          6           0       -1.615122   -0.582662    0.496203
      9          8           0       -1.883546   -1.743224    0.685889
     10          8           0       -2.290093    0.496471    0.880180
     11          6           0       -3.540980    0.257717    1.611282
     12          6           0       -4.717142    0.149633    0.678273
     13          6           0       -5.123448   -1.097303    0.183796
     14          6           0       -6.208390   -1.188939   -0.688134
     15          6           0       -6.896622   -0.036911   -1.074291
     16          6           0       -6.497258    1.209147   -0.586597
     17          6           0       -5.412923    1.300134    0.285613
     18          6           0        5.414834   -1.298216   -0.281119
     19          6           0        6.498304   -1.203667    0.591786
     20          6           0        6.895623    0.044109    1.076755
     21          6           0        6.206213    1.194281    0.687186
     22          6           0        5.122128    1.099081   -0.185429
     23          1           0        3.623957   -1.135583   -2.258877
     24          1           0        3.414065    0.637144   -2.216305
     25          1           0       -3.620456    1.130472    2.261241
     26          1           0       -3.413246   -0.642470    2.214569
     27          1           0       -4.579289   -1.990043    0.477888
     28          1           0       -6.517165   -2.160232   -1.064881
     29          1           0       -7.743211   -0.109888   -1.751779
     30          1           0       -7.031193    2.108011   -0.882656
     31          1           0       -5.103171    2.270680    0.666541
     32          1           0        5.106680   -2.270098   -0.659928
     33          1           0        7.033164   -2.101100    0.890502
     34          1           0        7.741539    0.119859    1.754778
     35          1           0        6.513394    2.166900    1.061808
     36          1           0        4.577039    1.990380   -0.482155
 ---------------------------------------------------------------------

 SCF Done:  E(RB3LYP) =  -1028.48263703     a.u. after    1 cycles

 Excitation energies and oscillator strengths:

 Excited State   1:      Singlet-A      2.9468 eV  420.74 nm  f=0.0000  <S**2>=0.000
      74 -> 79         0.29349
      78 -> 79         0.63710
 This state for optimization and/or second-order correction.
 Total Energy, E(TD-HF/TD-DFT) =  -1028.37434452
 Copying the excited state density for this state as the 1-particle RhoCI density.

 Excited State   2:      Singlet-A      4.2158 eV  294.09 nm  f=0.0050  <S**2>=0.000
      75 -> 79        -0.36577
      77 -> 79         0.60302

 Excited State   3:      Singlet-A      4.2632 eV  290.82 nm  f=0.0000  <S**2>=0.000
      74 -> 79        -0.38684
      76 -> 79         0.55576
      78 -> 79         0.20021

 Excited State   4:      Singlet-A      4.2701 eV  290.35 nm  f=0.0018  <S**2>=0.000
      75 -> 79         0.60384
      77 -> 79         0.36706

 Excited State   5:      Singlet-A      4.2779 eV  289.83 nm  f=0.0000  <S**2>=0.000
      74 -> 79         0.50721
      76 -> 79         0.43607
      78 -> 79        -0.22295

 Excited State   6:      Singlet-A      5.0812 eV  244.01 nm  f=0.1046  <S**2>=0.000
      73 -> 79         0.69301

 Excited State   7:      Singlet-A      5.2131 eV  237.83 nm  f=0.0000  <S**2>=0.000
      70 -> 79        -0.41084
      72 -> 79         0.54868

 Excited State   8:      Singlet-A      5.3849 eV  230.24 nm  f=0.0013  <S**2>=0.000
      74 -> 82        -0.10407
      74 -> 83        -0.19514
      75 -> 80        -0.14605
      75 -> 81        -0.21794
      75 -> 82         0.17529
      75 -> 83         0.13619
      76 -> 80         0.31761
      76 -> 81         0.20317
      77 -> 80        -0.14870
      77 -> 81        -0.22321
      77 -> 82        -0.17343
      77 -> 83        -0.13906
      78 -> 82         0.11851
      78 -> 83         0.22154

 Excited State   9:      Singlet-A      5.3849 eV  230.24 nm  f=0.0030  <S**2>=0.000
      74 -> 82        -0.19520
      74 -> 83         0.10441
      75 -> 80        -0.22569
      75 -> 81         0.14411
      75 -> 82        -0.13788
      75 -> 83         0.17223
      76 -> 80        -0.20748
      76 -> 81         0.31060
      77 -> 80        -0.22516
      77 -> 81         0.14464
      77 -> 82         0.13708
      77 -> 83        -0.17670
      78 -> 82         0.22192
      78 -> 83        -0.11833

 Excited State  10:      Singlet-A      5.4137 eV  229.02 nm  f=0.0590  <S**2>=0.000
      71 -> 79         0.69579

 The electronic state is 1-A.
 Alpha  occ. eigenvalues --  -19.21185 -19.21185 -19.15626 -19.15625 -14.42238
 Alpha  occ. eigenvalues --  -14.42187 -10.35193 -10.35193 -10.25869 -10.25868
 Alpha  occ. eigenvalues --  -10.20496 -10.20496 -10.19893 -10.19893 -10.19805
 Alpha  occ. eigenvalues --  -10.19804 -10.19695 -10.19695 -10.19612 -10.19612
 Alpha  occ. eigenvalues --  -10.19554 -10.19554  -1.13693  -1.12433  -1.05597
 Alpha  occ. eigenvalues --   -1.03892  -1.03488  -0.86339  -0.86259  -0.80986
 Alpha  occ. eigenvalues --   -0.78572  -0.76574  -0.75083  -0.75083  -0.71534
 Alpha  occ. eigenvalues --   -0.69589  -0.62324  -0.61430  -0.61326  -0.60201
 Alpha  occ. eigenvalues --   -0.58385  -0.56493  -0.55459  -0.52559  -0.52233
 Alpha  occ. eigenvalues --   -0.50904  -0.49420  -0.49246  -0.47846  -0.47499
 Alpha  occ. eigenvalues --   -0.46878  -0.46648  -0.45273  -0.43974  -0.43239
 Alpha  occ. eigenvalues --   -0.42950  -0.42446  -0.42234  -0.41154  -0.40858
 Alpha  occ. eigenvalues --   -0.39656  -0.37919  -0.37698  -0.36646  -0.36528
 Alpha  occ. eigenvalues --   -0.36194  -0.35980  -0.34587  -0.34586  -0.31751
 Alpha  occ. eigenvalues --   -0.31628  -0.31416  -0.30183  -0.26170  -0.25673
 Alpha  occ. eigenvalues --   -0.25651  -0.25618  -0.24641
 Alpha virt. eigenvalues --   -0.08139  -0.02006  -0.01866  -0.00710  -0.00709
 Alpha virt. eigenvalues --    0.00918   0.00924   0.08961   0.09009   0.11179
 Alpha virt. eigenvalues --    0.11301   0.12157   0.12553   0.13120   0.13160

 Mulliken charges:
               1
     1  C    0.149839
     2  C   -0.155802
     3  O   -0.407611
     4  C    0.735649
     5  O   -0.419666
     6  N   -0.240904
     7  N   -0.240940
     8  C    0.735660
     9  O   -0.419786
    10  O   -0.407647
    11  C   -0.155794
    12  C    0.149859
    13  C   -0.175361
    14  C   -0.129674
    15  C   -0.123342
    16  C   -0.128649
    17  C   -0.166961
    18  C   -0.166955
    19  C   -0.128650
    20  C   -0.123341
    21  C   -0.129674
    22  C   -0.175348
    23  H    0.170277
    24  H    0.184215
    25  H    0.170258
    26  H    0.184219
    27  H    0.160590
    28  H    0.138309
    29  H    0.136430
    30  H    0.136576
    31  H    0.136150
    32  H    0.136158
    33  H    0.136582
    34  H    0.136436
    35  H    0.138314
    36  H    0.160583
 Sum of Mulliken charges =  -0.00000

 Dipole moment (field-independent basis, Debye):
    X=              0.0044    Y=              0.0036    Z=              0.0043  Tot=              0.0071
 Quadrupole moment (field-independent basis, Debye-Ang):
   XX=            -86.9690   YY=           -123.9557   ZZ=           -118.5495
   XY=             -6.5502   XZ=              1.4840   YZ=              3.8886

 Summary of Natural Population Analysis:

                                       Natural Population
                Natural  -----------------------------------------------
    Atom  No    Charge         Core      Valence    Rydberg      Total
 -----------------------------------------------------------------------
      C    1   -0.09145      1.99901     4.07791    0.01454     6.09145
      C    2   -0.12502      1.99912     4.10688    0.01901     6.12502
      O    3   -0.52154      1.99973     6.50947    0.01234     8.52154
      C    4    0.92238      1.99950     3.02754    0.05058     5.07762
      O    5   -0.55447      1.99977     6.53405    0.02065     8.55447
      N    6   -0.21880      1.99938     5.19311    0.02631     7.21880
      N    7   -0.21879      1.99938     5.19310    0.02631     7.21879
      C    8    0.92231      1.99950     3.02761    0.05057     5.07769
      O    9   -0.55457      1.99977     6.53415    0.02065     8.55457
      O   10   -0.52158      1.99973     6.50951    0.01234     8.52158
      C   11   -0.12500      1.99912     4.10687    0.01901     6.12500
      C   12   -0.09144      1.99901     4.07790    0.01454     6.09144
      C   13   -0.21142      1.99903     4.19899    0.01340     6.21142
      C   14   -0.22939      1.99910     4.21644    0.01385     6.22939
      C   15   -0.22158      1.99910     4.20901    0.01347     6.22158
      C   16   -0.23038      1.99910     4.21745    0.01383     6.23038
      C   17   -0.21110      1.99903     4.19889    0.01318     6.21110
      C   18   -0.21110      1.99903     4.19889    0.01318     6.21110
      C   19   -0.23038      1.99910     4.21745    0.01383     6.23038
      C   20   -0.22158      1.99910     4.20901    0.01347     6.22158
      C   21   -0.22939      1.99910     4.21644    0.01385     6.22939
      C   22   -0.21141      1.99903     4.19898    0.01340     6.21141
      H   23    0.24153      0.00000     0.75727    0.00120     0.75847
      H   24    0.24268      0.00000     0.75517    0.00215     0.75732
      H   25    0.24152      0.00000     0.75728    0.00120     0.75848
      H   26    0.24269      0.00000     0.75516    0.00215     0.75731
      H   27    0.25150      0.00000     0.74708    0.00142     0.74850
      H   28    0.24067      0.00000     0.75849    0.00083     0.75933
      H   29    0.23897      0.00000     0.76021    0.00082     0.76103
      H   30    0.23985      0.00000     0.75931    0.00084     0.76015
      H   31    0.23765      0.00000     0.76129    0.00106     0.76235
      H   32    0.23766      0.00000     0.76128    0.00106     0.76234
      H   33    0.23985      0.00000     0.75930    0.00084     0.76015
      H   34    0.23897      0.00000     0.76021    0.00082     0.76103
      H   35    0.24068      0.00000     0.75849    0.00083     0.75932
      H   36    0.25150      0.00000     0.74708    0.00142     0.74850
 =======================================================================
   * Total *   -0.00000     43.98375   111.57728    0.43898   156.00000

 Normal termination of Gaussian 16 at Sat Aug 22 17:42:17 2020.
