 Gaussian 16, Revision A.03,

 ---------------------------------
 # opt=CalcAll B3LYP/6-31G* scf=qc
 ---------------------------------

 -------------------
 Title Card Required
 -------------------
 Symbolic Z-matrix:
 Charge =  0 Multiplicity = 1

 SCF Done:  E(RB3LYP) =  -723.616745218     a.u. after   10 cycles
 SCF Done:  E(RB3LYP) =  -723.642345811     a.u. after   21 cycles
 SCF Done:  E(RB3LYP) =  -723.648057068     a.u. after   23 cycles
 SCF Done:  E(RB3LYP) =  -723.648876257     a.u. after   13 cycles
 SCF Done:  E(RB3LYP) =  -723.648915659     a.u. after   17 cycles
 SCF Done:  E(RB3LYP) =  -723.648954021     a.u. after   13 cycles
 SCF Done:  E(RB3LYP) =  -723.648956243     a.u. after    5 cycles
 SCF Done:  E(RB3LYP) =  -723.648956255     a.u. after    3 cycles
 SCF Done:  E(RB3LYP) =  -723.648956270     a.u. after    3 cycles
 Optimization completed on the basis of negligible forces.
    -- Stationary point found.
 Normal termination of Gaussian 16 at Sat Aug 22 14:15:53 2020.

 ----------------------------------------------------------------------
 # freq B3LYP/6-31G* scf=qc volume NMR pop=NPA density=current Geom=All
 Check Guess=Read
 ----------------------------------------------------------------------

 Structure from the checkpoint file:  "azadicarboxylate_2_conf232.chk"
 -------------------
 Title Card Required
 -------------------
 Charge =  0 Multiplicity = 1

 SCF Done:  E(RB3LYP) =  -723.648956270     a.u. after    1 cycles

      1  C    Isotropic =   169.5413   Anisotropy =    27.8498

      2  C    Isotropic =   113.2233   Anisotropy =    71.9922

      3  C    Isotropic =   170.3774   Anisotropy =    27.9041

      4  O    Isotropic =   138.2924   Anisotropy =   150.9266

      5  C    Isotropic =    34.7528   Anisotropy =    70.9421

      6  O    Isotropic =   -27.6837   Anisotropy =   471.5987

      7  N    Isotropic =  -345.9826   Anisotropy =   701.0076

      8  N    Isotropic =  -330.9827   Anisotropy =   687.0151

      9  C    Isotropic =    35.4763   Anisotropy =    82.3865

     10  O    Isotropic =   -18.5310   Anisotropy =   472.7482

     11  O    Isotropic =   126.5733   Anisotropy =   139.0671

     12  C    Isotropic =   118.4740   Anisotropy =    63.2938

     13  C    Isotropic =   168.6620   Anisotropy =    31.0704

     14  C    Isotropic =   168.2622   Anisotropy =    30.1775

     15  H    Isotropic =    31.1877   Anisotropy =     8.4459

     16  H    Isotropic =    29.7401   Anisotropy =     5.3037

     17  H    Isotropic =    30.7055   Anisotropy =     8.1753

     18  H    Isotropic =    27.5963   Anisotropy =     4.2458

     19  H    Isotropic =    29.5801   Anisotropy =     5.6253

     20  H    Isotropic =    31.1318   Anisotropy =     8.3325

     21  H    Isotropic =    30.5757   Anisotropy =     8.2346

     22  H    Isotropic =    27.0207   Anisotropy =     2.7463

     23  H    Isotropic =    30.9021   Anisotropy =     6.7055

     24  H    Isotropic =    30.1294   Anisotropy =     7.3593

     25  H    Isotropic =    31.0977   Anisotropy =     8.5402

     26  H    Isotropic =    30.7371   Anisotropy =     6.4794

     27  H    Isotropic =    31.1047   Anisotropy =     8.3567

     28  H    Isotropic =    30.7775   Anisotropy =     8.7072

  Exact polarizability: 154.988  -0.058  98.017  -1.610   0.520  85.999
 Approx polarizability: 175.184  -3.279 155.189  -0.652   1.872 126.388

                      1                      2                      3
                      A                      A                      A
 Frequencies --      8.1411                36.8940                41.7757
 Red. masses --      4.0095                 3.4574                 6.9984
 Frc consts  --      0.0002                 0.0028                 0.0072
 IR Inten    --      0.4196                 1.1398                 0.4286

                      4                      5                      6
                      A                      A                      A
 Frequencies --     45.5857                67.9662                86.9051
 Red. masses --      4.1640                 5.3651                 4.8403
 Frc consts  --      0.0051                 0.0146                 0.0215
 IR Inten    --      0.6346                 0.3085                 0.2280

                      7                      8                      9
                      A                      A                      A
 Frequencies --    109.0854               172.4224               185.3093
 Red. masses --      3.4732                 5.9303                 4.0064
 Frc consts  --      0.0244                 0.1039                 0.0811
 IR Inten    --      0.2416                 0.4695                 2.2428

                     10                     11                     12
                      A                      A                      A
 Frequencies --    213.6368               222.9628               230.9184
 Red. masses --      3.0986                 1.0859                 1.0900
 Frc consts  --      0.0833                 0.0318                 0.0342
 IR Inten    --      8.5004                 0.8144                 0.0726

                     13                     14                     15
                      A                      A                      A
 Frequencies --    246.8209               250.1475               268.6666
 Red. masses --      3.1364                 1.0791                 1.6101
 Frc consts  --      0.1126                 0.0398                 0.0685
 IR Inten    --      3.5524                 0.1832                 2.2047

                     16                     17                     18
                      A                      A                      A
 Frequencies --    312.9077               348.1826               404.6761
 Red. masses --      3.0631                 2.7802                 3.6485
 Frc consts  --      0.1767                 0.1986                 0.3520
 IR Inten    --      3.7858                 1.0834                 5.1400

                     19                     20                     21
                      A                      A                      A
 Frequencies --    417.6518               427.1543               467.5527
 Red. masses --      3.5446                 3.3000                 3.4284
 Frc consts  --      0.3643                 0.3548                 0.4416
 IR Inten    --      8.4308                16.7403                 4.9826

                     22                     23                     24
                      A                      A                      A
 Frequencies --    485.2643               532.7995               640.5037
 Red. masses --      3.1599                 4.6573                 5.6892
 Frc consts  --      0.4384                 0.7790                 1.3751
 IR Inten    --      4.2371                 4.4872                 2.4516

                     25                     26                     27
                      A                      A                      A
 Frequencies --    668.5094               792.6337               815.4290
 Red. masses --      9.0571                 5.8253                 7.8071
 Frc consts  --      2.3848                 2.1563                 3.0585
 IR Inten    --      1.7469                30.8764                22.9750

                     28                     29                     30
                      A                      A                      A
 Frequencies --    840.7045               855.8131               904.6622
 Red. masses --      3.3700                 7.0984                 3.2940
 Frc consts  --      1.4034                 3.0632                 1.5884
 IR Inten    --     11.2075                 8.4332                49.2130

                     31                     32                     33
                      A                      A                      A
 Frequencies --    929.1876               949.9515               950.3697
 Red. masses --      3.1583                 1.2812                 1.2539
 Frc consts  --      1.6066                 0.6812                 0.6672
 IR Inten    --      1.4887                 1.3658                 0.6222

                     34                     35                     36
                      A                      A                      A
 Frequencies --    957.2579               962.1646               976.8141
 Red. masses --      1.3117                 1.3694                 4.9047
 Frc consts  --      0.7082                 0.7469                 2.7573
 IR Inten    --      0.4139                 2.7144                 8.9705

                     37                     38                     39
                      A                      A                      A
 Frequencies --    993.3373              1145.8234              1168.3086
 Red. masses --      8.7228                 1.8485                 1.9217
 Frc consts  --      5.0711                 1.4299                 1.5455
 IR Inten    --      1.3918               238.8716               114.8835

                     40                     41                     42
                      A                      A                      A
 Frequencies --   1171.5752              1175.1208              1218.5152
 Red. masses --      2.1505                 2.0295                 1.9572
 Frc consts  --      1.7391                 1.6512                 1.7121
 IR Inten    --     10.8666                 8.6196                40.0117

                     43                     44                     45
                      A                      A                      A
 Frequencies --   1219.0843              1254.0110              1290.6767
 Red. masses --      1.9352                 5.4985                 6.4045
 Frc consts  --      1.6945                 5.0944                 6.2859
 IR Inten    --     10.5940              1105.2309               259.7069

                     46                     47                     48
                      A                      A                      A
 Frequencies --   1383.6996              1391.3338              1399.9961
 Red. masses --      1.4041                 1.3206                 1.2518
 Frc consts  --      1.5839                 1.5062                 1.4455
 IR Inten    --      6.8506                 3.2529                 4.4339

                     49                     50                     51
                      A                      A                      A
 Frequencies --   1421.1911              1430.7027              1433.1871
 Red. masses --      1.3097                 1.3277                 1.3398
 Frc consts  --      1.5585                 1.6012                 1.6214
 IR Inten    --     22.7189                18.5437                16.8027

                     52                     53                     54
                      A                      A                      A
 Frequencies --   1445.0209              1448.5954              1511.1679
 Red. masses --      1.2416                 1.2592                 1.0482
 Frc consts  --      1.5275                 1.5568                 1.4103
 IR Inten    --     17.8691                 7.2275                 0.1180

                     55                     56                     57
                      A                      A                      A
 Frequencies --   1511.7682              1516.6331              1522.1957
 Red. masses --      1.0543                 1.0440                 1.0470
 Frc consts  --      1.4196                 1.4149                 1.4293
 IR Inten    --      1.8377                 1.1960                16.2841

                     58                     59                     60
                      A                      A                      A
 Frequencies --   1525.6710              1526.6563              1540.0681
 Red. masses --      1.0508                 1.0485                 1.0495
 Frc consts  --      1.4411                 1.4398                 1.4666
 IR Inten    --      3.6292                 0.0676                 9.6929

                     61                     62                     63
                      A                      A                      A
 Frequencies --   1546.6566              1660.1144              1829.6773
 Red. masses --      1.0540                13.9892                12.3994
 Frc consts  --      1.4855                22.7153                24.4568
 IR Inten    --      7.3196                 0.1641                64.1312

                     64                     65                     66
                      A                      A                      A
 Frequencies --   1846.3132              3058.3483              3062.4468
 Red. masses --     12.2579                 1.0354                 1.0374
 Frc consts  --     24.6194                 5.7062                 5.7322
 IR Inten    --    456.2526                11.0735                15.7611

                     67                     68                     69
                      A                      A                      A
 Frequencies --   3062.8347              3066.5714              3095.8527
 Red. masses --      1.0360                 1.0382                 1.0866
 Frc consts  --      5.7260                 5.7524                 6.1360
 IR Inten    --     15.9353                10.8969                19.8929

                     70                     71                     72
                      A                      A                      A
 Frequencies --   3098.4716              3126.4532              3127.4286
 Red. masses --      1.0875                 1.1029                 1.1016
 Frc consts  --      6.1512                 6.3516                 6.3480
 IR Inten    --      1.7320                 2.4090                11.3704

                     73                     74                     75
                      A                      A                      A
 Frequencies --   3130.1044              3136.2380              3139.3859
 Red. masses --      1.1020                 1.1017                 1.1027
 Frc consts  --      6.3613                 6.3844                 6.4033
 IR Inten    --     32.9433                40.1352                23.8990

                     76                     77                     78
                      A                      A                      A
 Frequencies --   3148.5718              3161.9617              3166.6512
 Red. masses --      1.1026                 1.1022                 1.1011
 Frc consts  --      6.4404                 6.4926                 6.5053
 IR Inten    --     15.2238                 1.9413                19.8418

 - Thermochemistry -
 -------------------
 Temperature   298.150 Kelvin.  Pressure   1.00000 Atm.
 Atom     1 has atomic number  6 and mass  12.00000

 Molecular mass:   202.09536 amu.
 Principal axes and moments of inertia in atomic units:
                           1         2         3
     Eigenvalues --  1046.326937385.150067797.50780
           X            1.00000  -0.00175  -0.00107
           Y            0.00175   0.99999  -0.00493
           Z            0.00107   0.00493   0.99999
 This molecule is an asymmetric top.
 Rotational symmetry number  1.
 Warning -- assumption of classical behavior for rotation
           may cause significant error
 Rotational temperatures (Kelvin)      0.08278     0.01173     0.01111
 Rotational constants (GHZ):           1.72483     0.24437     0.23145
 Zero-point vibrational energy     597749.1 (Joules/Mol)
                                  142.86547 (Kcal/Mol)
 Warning -- explicit consideration of  23 degrees of freedom as
           vibrations may cause significant error
 Vibrational temperatures:     11.71    53.08    60.11    65.59    97.79
          (Kelvin)            125.04   156.95   248.08   266.62   307.38
                              320.79   332.24   355.12   359.91   386.55
                              450.20   500.96   582.24   600.91   614.58
                              672.70   698.19   766.58   921.54   961.84
                             1140.42  1173.22  1209.59  1231.32  1301.61
                             1336.89  1366.77  1367.37  1377.28  1384.34
                             1405.42  1429.19  1648.58  1680.94  1685.64
                             1690.74  1753.17  1753.99  1804.24  1857.00
                             1990.84  2001.82  2014.28  2044.78  2058.46
                             2062.04  2079.06  2084.21  2174.23  2175.10
                             2182.10  2190.10  2195.10  2196.52  2215.81
                             2225.29  2388.53  2632.50  2656.43  4400.28
                             4406.18  4406.74  4412.11  4454.24  4458.01
                             4498.27  4499.67  4503.52  4512.35  4516.88
                             4530.09  4549.36  4556.10

 Zero-point correction=                           0.227671 (Hartree/Particle)
 Thermal correction to Energy=                    0.243938
 Thermal correction to Enthalpy=                  0.244882
 Thermal correction to Gibbs Free Energy=         0.180590
 Sum of electronic and zero-point Energies=           -723.421286
 Sum of electronic and thermal Energies=              -723.405018
 Sum of electronic and thermal Enthalpies=            -723.404074
 Sum of electronic and thermal Free Energies=         -723.468366

                     E (Thermal)             CV                S
                      KCal/Mol        Cal/Mol-Kelvin    Cal/Mol-Kelvin
 Total                  153.074             56.285            135.314
 Electronic               0.000              0.000              0.000
 Translational            0.889              2.981             41.815
 Rotational               0.889              2.981             32.466
 Vibrational            151.296             50.324             61.033
 Vibration     1          0.593              1.987              8.420
 Vibration     2          0.594              1.982              5.419
 Vibration     3          0.594              1.980              5.173
 Vibration     4          0.595              1.979              5.000
 Vibration     5          0.598              1.969              4.211
 Vibration     6          0.601              1.958              3.729
 Vibration     7          0.606              1.942              3.285
 Vibration     8          0.626              1.876              2.409
 Vibration     9          0.631              1.860              2.274
 Vibration    10          0.644              1.820              2.012
 Vibration    11          0.649              1.806              1.935
 Vibration    12          0.653              1.794              1.872
 Vibration    13          0.661              1.768              1.753
 Vibration    14          0.663              1.763              1.730
 Vibration    15          0.673              1.731              1.605
 Vibration    16          0.701              1.649              1.347
 Vibration    17          0.726              1.579              1.174
 Vibration    18          0.770              1.460              0.946
 Vibration    19          0.781              1.432              0.900
 Vibration    20          0.789              1.411              0.868
 Vibration    21          0.825              1.322              0.744
 Vibration    22          0.841              1.283              0.696
 Vibration    23          0.888              1.177              0.581

 Optimization completed on the basis of negligible forces.
    -- Stationary point found.
 Normal termination of Gaussian 16 at Sat Aug 22 14:20:57 2020.
 Gaussian 16:  ES64L-G16RevA.03 25-Dec-2016

 ----------------------------------------------------------------------
 # TD(NStates=10, Root=1) B3LYP/6-31G* scf=qc volume pop=NPA density=cu
 rrent Geom=AllCheck Guess=Read
 ----------------------------------------------------------------------

 Structure from the checkpoint file:  "azadicarboxylate_2_conf233.chk"
 -------------------
 Title Card Required
 -------------------
 Charge =  0 Multiplicity = 1

                         Standard orientation:
 ---------------------------------------------------------------------
 Center     Atomic      Atomic             Coordinates (Angstroms)
 Number     Number       Type             X           Y           Z
 ---------------------------------------------------------------------
      1          6           0        4.026380    0.946183    1.377883
      2          6           0        3.706077    0.973052   -0.112881
      3          6           0        4.633620    0.125864   -0.977527
      4          8           0        2.292812    0.631096   -0.357846
      5          6           0        1.844035   -0.582150   -0.059774
      6          8           0        2.430383   -1.522734    0.415559
      7          7           0        0.475315   -0.705688   -0.526015
      8          7           0       -0.361401   -0.448618    0.358457
      9          6           0       -1.725766   -0.697300   -0.089559
     10          8           0       -2.124508   -1.769857   -0.468708
     11          8           0       -2.425089    0.420373    0.096948
     12          6           0       -3.856005    0.366872   -0.226023
     13          6           0       -4.612939   -0.212184    0.963095
     14          6           0       -4.251488    1.793398   -0.574734
     15          1           0        5.018930    1.381512    1.539695
     16          1           0        4.024529   -0.074317    1.766805
     17          1           0        3.298522    1.541883    1.938112
     18          1           0        3.727621    2.007339   -0.467408
     19          1           0        4.642808   -0.915800   -0.649657
     20          1           0        5.652143    0.523949   -0.907184
     21          1           0        4.325307    0.166532   -2.027263
     22          1           0       -3.964399   -0.290424   -1.093476
     23          1           0       -4.461039    0.405462    1.854921
     24          1           0       -4.280033   -1.231965    1.174512
     25          1           0       -5.685634   -0.242086    0.741712
     26          1           0       -4.100181    2.459061    0.281760
     27          1           0       -5.309517    1.826923   -0.855617
     28          1           0       -3.658725    2.168642   -1.414527
 ---------------------------------------------------------------------

 SCF Done:  E(RB3LYP) =  -723.648956270     a.u. after    1 cycles

 Excitation energies and oscillator strengths:

 Excited State   1:      Singlet-A      2.7652 eV  448.38 nm  f=0.0003  <S**2>=0.000
      54 -> 55         0.70096
 This state for optimization and/or second-order correction.
 Total Energy, E(TD-HF/TD-DFT) =  -723.547338439
 Copying the excited state density for this state as the 1-particle RhoCI density.

 Excited State   2:      Singlet-A      4.7261 eV  262.34 nm  f=0.0004  <S**2>=0.000
      52 -> 55         0.31335
      53 -> 55         0.60351

 Excited State   3:      Singlet-A      4.9977 eV  248.08 nm  f=0.0681  <S**2>=0.000
      50 -> 55        -0.12267
      52 -> 55         0.59071
      53 -> 55        -0.32957

 Excited State   4:      Singlet-A      5.2984 eV  234.00 nm  f=0.0041  <S**2>=0.000
      50 -> 55         0.30688
      51 -> 55         0.62891

 Excited State   5:      Singlet-A      5.3793 eV  230.49 nm  f=0.0060  <S**2>=0.000
      50 -> 55         0.59366
      51 -> 55        -0.29693
      52 -> 55         0.17746

 Excited State   6:      Singlet-A      5.5911 eV  221.75 nm  f=0.0217  <S**2>=0.000
      53 -> 56         0.16920
      54 -> 56         0.66264

 Excited State   7:      Singlet-A      5.9225 eV  209.35 nm  f=0.0251  <S**2>=0.000
      50 -> 55        -0.11556
      54 -> 57         0.67140

 Excited State   8:      Singlet-A      6.3768 eV  194.43 nm  f=0.0001  <S**2>=0.000
      49 -> 55         0.68180

 Excited State   9:      Singlet-A      6.5066 eV  190.55 nm  f=0.0012  <S**2>=0.000
      44 -> 55         0.10367
      45 -> 55         0.12206
      48 -> 55         0.67366

 Excited State  10:      Singlet-A      6.7278 eV  184.29 nm  f=0.0113  <S**2>=0.000
      47 -> 55        -0.17533
      52 -> 56        -0.30654
      53 -> 56         0.56300
      54 -> 56        -0.16820

 The electronic state is 1-A.
 Alpha  occ. eigenvalues --  -19.20798 -19.20613 -19.15356 -19.15268 -14.41951
 Alpha  occ. eigenvalues --  -14.41740 -10.35049 -10.34720 -10.26571 -10.26088
 Alpha  occ. eigenvalues --  -10.19139 -10.18848 -10.18836 -10.18808  -1.13280
 Alpha  occ. eigenvalues --   -1.12066  -1.05548  -1.03635  -1.02892  -0.82300
 Alpha  occ. eigenvalues --   -0.80630  -0.76274  -0.70506  -0.70434  -0.66884
 Alpha  occ. eigenvalues --   -0.63047  -0.57433  -0.55755  -0.52289  -0.50766
 Alpha  occ. eigenvalues --   -0.50067  -0.48515  -0.47605  -0.46641  -0.46251
 Alpha  occ. eigenvalues --   -0.44357  -0.43134  -0.42680  -0.41414  -0.40633
 Alpha  occ. eigenvalues --   -0.40295  -0.39986  -0.39317  -0.38077  -0.37510
 Alpha  occ. eigenvalues --   -0.36910  -0.36474  -0.35412  -0.34813  -0.31523
 Alpha  occ. eigenvalues --   -0.31432  -0.30568  -0.30044  -0.24463
 Alpha virt. eigenvalues --   -0.08355   0.00728   0.02057   0.08592   0.08821
 Alpha virt. eigenvalues --    0.10478   0.10818   0.13301   0.13737   0.14505
 Alpha virt. eigenvalues --    0.14774   0.15565   0.16566   0.16934   0.17360

 Mulliken charges:
               1
     1  C   -0.470213
     2  C    0.129500
     3  C   -0.471936
     4  O   -0.432943
     5  C    0.732120
     6  O   -0.412019
     7  N   -0.227746
     8  N   -0.248710
     9  C    0.739176
    10  O   -0.414037
    11  O   -0.432577
    12  C    0.117554
    13  C   -0.459993
    14  C   -0.453340
    15  H    0.152949
    16  H    0.187712
    17  H    0.163753
    18  H    0.157259
    19  H    0.188005
    20  H    0.154829
    21  H    0.163610
    22  H    0.167153
    23  H    0.158852
    24  H    0.177305
    25  H    0.153478
    26  H    0.161670
    27  H    0.153914
    28  H    0.164673
 Sum of Mulliken charges =   0.00000

 Dipole moment (field-independent basis, Debye):
    X=              0.0340    Y=              3.6630    Z=             -0.0667  Tot=              3.6638
 Quadrupole moment (field-independent basis, Debye-Ang):
   XX=            -56.1889   YY=            -88.5517   ZZ=            -81.2339
   XY=              2.1501   XZ=             -1.2430   YZ=             -0.4092

 Summary of Natural Population Analysis:

                                       Natural Population
                Natural  -----------------------------------------------
    Atom  No    Charge         Core      Valence    Rydberg      Total
 -----------------------------------------------------------------------
      C    1   -0.70935      1.99939     4.70195    0.00801     6.70935
      C    2    0.08440      1.99912     3.89824    0.01824     5.91560
      C    3   -0.71048      1.99939     4.70299    0.00810     6.71048
      O    4   -0.53177      1.99972     6.52001    0.01204     8.53177
      C    5    0.91909      1.99952     3.02873    0.05266     5.08091
      O    6   -0.54556      1.99977     6.52532    0.02047     8.54556
      N    7   -0.21044      1.99939     5.18449    0.02656     7.21044
      N    8   -0.21597      1.99939     5.19040    0.02618     7.21597
      C    9    0.90404      1.99951     3.04466    0.05178     5.09596
      O   10   -0.54115      1.99977     6.52075    0.02062     8.54115
      O   11   -0.53784      1.99972     6.52556    0.01255     8.53784
      C   12    0.08156      1.99913     3.90187    0.01744     5.91844
      C   13   -0.70435      1.99940     4.69641    0.00855     6.70435
      C   14   -0.69576      1.99939     4.68732    0.00904     6.69576
      H   15    0.24091      0.00000     0.75836    0.00074     0.75909
      H   16    0.25230      0.00000     0.74630    0.00139     0.74770
      H   17    0.24345      0.00000     0.75548    0.00107     0.75655
      H   18    0.24533      0.00000     0.75301    0.00166     0.75467
      H   19    0.25216      0.00000     0.74645    0.00139     0.74784
      H   20    0.24246      0.00000     0.75681    0.00072     0.75754
      H   21    0.24332      0.00000     0.75563    0.00105     0.75668
      H   22    0.24281      0.00000     0.75458    0.00261     0.75719
      H   23    0.23593      0.00000     0.76271    0.00136     0.76407
      H   24    0.25066      0.00000     0.74834    0.00100     0.74934
      H   25    0.24054      0.00000     0.75868    0.00077     0.75946
      H   26    0.23814      0.00000     0.76057    0.00129     0.76186
      H   27    0.24036      0.00000     0.75898    0.00066     0.75964
      H   28    0.24521      0.00000     0.75379    0.00100     0.75479
 =======================================================================
   * Total *   -0.00000     27.99262    79.69841    0.30898   108.00000

 Normal termination of Gaussian 16 at Sat Aug 22 14:27:17 2020.
