 Gaussian 16, Revision A.03,

 ---------------------------------
 # opt=CalcAll B3LYP/6-31G* scf=qc
 ---------------------------------

 -------------------
 Title Card Required
 -------------------
 Symbolic Z-matrix:
 Charge =  0 Multiplicity = 1

 SCF Done:  E(RB3LYP) =  -802.252295159     a.u. after   10 cycles
 SCF Done:  E(RB3LYP) =  -802.271414320     a.u. after   15 cycles
 SCF Done:  E(RB3LYP) =  -802.279060914     a.u. after   21 cycles
 SCF Done:  E(RB3LYP) =  -802.280461588     a.u. after   21 cycles
 SCF Done:  E(RB3LYP) =  -802.280790976     a.u. after   19 cycles
 SCF Done:  E(RB3LYP) =  -802.280751863     a.u. after   13 cycles
 SCF Done:  E(RB3LYP) =  -802.281129397     a.u. after   15 cycles
 SCF Done:  E(RB3LYP) =  -802.281132830     a.u. after    9 cycles
 SCF Done:  E(RB3LYP) =  -802.281143252     a.u. after    7 cycles
 SCF Done:  E(RB3LYP) =  -802.281143846     a.u. after    5 cycles
 SCF Done:  E(RB3LYP) =  -802.281144099     a.u. after    3 cycles
 Optimization completed on the basis of negligible forces.
    -- Stationary point found.
 Normal termination of Gaussian 16 at Sat Aug 22 14:02:00 2020.

 ----------------------------------------------------------------------
 # freq B3LYP/6-31G* scf=qc volume NMR pop=NPA density=current Geom=All
 Check Guess=Read
 ----------------------------------------------------------------------

 Structure from the checkpoint file:  "azadicarboxylate_1_conf282.chk"
 -------------------
 Title Card Required
 -------------------
 Charge =  0 Multiplicity = 1

 SCF Done:  E(RB3LYP) =  -802.281144099     a.u. after    1 cycles

      1  C    Isotropic =   164.2270   Anisotropy =    35.8389

      2  C    Isotropic =   106.1549   Anisotropy =    74.9717

      3  C    Isotropic =   165.3115   Anisotropy =    35.4405

      4  C    Isotropic =   159.6192   Anisotropy =    41.2003

      5  O    Isotropic =   125.3153   Anisotropy =   128.3638

      6  C    Isotropic =    35.1491   Anisotropy =    79.3000

      7  O    Isotropic =   -24.5211   Anisotropy =   484.7496

      8  N    Isotropic =  -316.5759   Anisotropy =   661.9394

      9  N    Isotropic =  -316.5550   Anisotropy =   661.9217

     10  C    Isotropic =    35.1529   Anisotropy =    79.3432

     11  O    Isotropic =   -24.5243   Anisotropy =   484.8141

     12  O    Isotropic =   125.3188   Anisotropy =   128.3221

     13  C    Isotropic =   106.1556   Anisotropy =    74.9714

     14  C    Isotropic =   165.3134   Anisotropy =    35.4392

     15  C    Isotropic =   159.6193   Anisotropy =    41.2003

     16  C    Isotropic =   164.2273   Anisotropy =    35.8385

     17  H    Isotropic =    31.1121   Anisotropy =     7.8970

     18  H    Isotropic =    30.8319   Anisotropy =     7.3158

     19  H    Isotropic =    29.5434   Anisotropy =     6.3098

     20  H    Isotropic =    31.0637   Anisotropy =     7.7610

     21  H    Isotropic =    29.3932   Anisotropy =     6.6118

     22  H    Isotropic =    30.7936   Anisotropy =     7.3839

     23  H    Isotropic =    31.1368   Anisotropy =     7.5948

     24  H    Isotropic =    30.6735   Anisotropy =     7.2485

     25  H    Isotropic =    30.6799   Anisotropy =     7.4348

     26  H    Isotropic =    30.7938   Anisotropy =     7.3841

     27  H    Isotropic =    29.3932   Anisotropy =     6.6122

     28  H    Isotropic =    31.0637   Anisotropy =     7.7610

     29  H    Isotropic =    30.6736   Anisotropy =     7.2486

     30  H    Isotropic =    31.1369   Anisotropy =     7.5948

     31  H    Isotropic =    30.6800   Anisotropy =     7.4346

     32  H    Isotropic =    29.5434   Anisotropy =     6.3102

     33  H    Isotropic =    30.8319   Anisotropy =     7.3155

     34  H    Isotropic =    31.1121   Anisotropy =     7.8971

  Exact polarizability: 176.978   3.653 120.132  -1.842  -0.273 105.366
 Approx polarizability: 199.615  11.803 195.567  -3.278   0.507 152.423

                      1                      2                      3
                      A                      A                      A
 Frequencies --     11.4603                33.6582                45.0655
 Red. masses --      4.1838                 3.2130                 4.7569
 Frc consts  --      0.0003                 0.0021                 0.0057
 IR Inten    --      2.2151                 0.8425                 2.3996

                      4                      5                      6
                      A                      A                      A
 Frequencies --     54.0647                56.9937               108.2900
 Red. masses --      6.1285                 4.6615                 4.5015
 Frc consts  --      0.0106                 0.0089                 0.0311
 IR Inten    --      0.0000                 0.0000                 1.0510

                      7                      8                      9
                      A                      A                      A
 Frequencies --    111.1065               178.6995               197.9440
 Red. masses --      4.0123                 3.9130                 5.7029
 Frc consts  --      0.0292                 0.0736                 0.1317
 IR Inten    --      0.0000                 0.0000                 4.4090

                     10                     11                     12
                      A                      A                      A
 Frequencies --    198.6353               206.9089               207.1869
 Red. masses --      7.4991                 1.0527                 1.0822
 Frc consts  --      0.1743                 0.0266                 0.0274
 IR Inten    --      0.0072                 0.0000                 0.3516

                     13                     14                     15
                      A                      A                      A
 Frequencies --    211.4453               255.9344               256.6095
 Red. masses --      4.7898                 1.0374                 1.0320
 Frc consts  --      0.1262                 0.0400                 0.0400
 IR Inten    --     14.7954                 0.0000                 0.0895

                     16                     17                     18
                      A                      A                      A
 Frequencies --    268.7593               269.3095               316.5529
 Red. masses --      1.0672                 1.0793                 3.0694
 Frc consts  --      0.0454                 0.0461                 0.1812
 IR Inten    --      0.0001                 0.0923                16.5991

                     19                     20                     21
                      A                      A                      A
 Frequencies --    316.6665               342.9345               352.0026
 Red. masses --      2.9597                 2.7037                 2.5466
 Frc consts  --      0.1749                 0.1873                 0.1859
 IR Inten    --      0.0090                 0.0000                 3.0803

                     22                     23                     24
                      A                      A                      A
 Frequencies --    368.4917               374.6923               427.6609
 Red. masses --      3.0188                 3.9282                 2.7655
 Frc consts  --      0.2415                 0.3249                 0.2980
 IR Inten    --      0.0805                 0.0000                 8.0840

                     25                     26                     27
                      A                      A                      A
 Frequencies --    435.7764               462.8917               465.1120
 Red. masses --      2.8980                 3.6695                 2.7962
 Frc consts  --      0.3242                 0.4632                 0.3564
 IR Inten    --      0.0000                 0.0001                 0.0028

                     28                     29                     30
                      A                      A                      A
 Frequencies --    465.6072               550.1536               604.9131
 Red. masses --      3.1301                 3.7921                 8.2971
 Frc consts  --      0.3998                 0.6762                 1.7888
 IR Inten    --      7.4187                15.2717                 0.0000

                     31                     32                     33
                      A                      A                      A
 Frequencies --    661.8941               745.3450               772.8005
 Red. masses --     10.6112                 5.3584                 4.6316
 Frc consts  --      2.7390                 1.7539                 1.6297
 IR Inten    --     15.8042                 0.0000                12.8739

                     34                     35                     36
                      A                      A                      A
 Frequencies --    815.8450               845.2167               855.2114
 Red. masses --     12.0880                 3.3640                 4.2202
 Frc consts  --      4.7405                 1.4160                 1.8186
 IR Inten    --     33.1765                 0.0000               108.6939

                     37                     38                     39
                      A                      A                      A
 Frequencies --    865.8867               936.8789               936.9599
 Red. masses --      9.1701                 1.6315                 1.6298
 Frc consts  --      4.0509                 0.8438                 0.8430
 IR Inten    --      0.0000                 0.0000                 0.2444

                     40                     41                     42
                      A                      A                      A
 Frequencies --    937.8457               938.8739               971.4163
 Red. masses --      1.6260                 1.6314                 7.9004
 Frc consts  --      0.8426                 0.8473                 4.3925
 IR Inten    --      0.2082                 0.0000                16.8528

                     43                     44                     45
                      A                      A                      A
 Frequencies --    984.5574               984.5810               993.8112
 Red. masses --      1.2009                 1.1992                 9.7830
 Frc consts  --      0.6859                 0.6849                 5.6929
 IR Inten    --      0.0014                 0.2913                 0.0001

                     46                     47                     48
                      A                      A                      A
 Frequencies --   1066.2245              1066.2725              1073.2435
 Red. masses --      1.4087                 1.4091                 1.4581
 Frc consts  --      0.9436                 0.9439                 0.9895
 IR Inten    --      0.8631                 0.0000                 0.0000

                     49                     50                     51
                      A                      A                      A
 Frequencies --   1073.6928              1194.7983              1212.6317
 Red. masses --      1.4648                 2.4749                 2.2395
 Frc consts  --      0.9949                 2.0816                 1.9402
 IR Inten    --      4.8074              1056.0943                 0.0001

                     52                     53                     54
                      A                      A                      A
 Frequencies --   1285.5768              1285.9381              1286.2876
 Red. masses --      4.4764                 2.8114                 2.7571
 Frc consts  --      4.3589                 2.7391                 2.6877
 IR Inten    --    590.4598                 0.0302                45.3954

                     55                     56                     57
                      A                      A                      A
 Frequencies --   1290.3296              1305.0775              1305.3942
 Red. masses --      4.5457                 3.3091                 3.7462
 Frc consts  --      4.4591                 3.3207                 3.7612
 IR Inten    --      0.0002               195.2545                 0.0016

                     58                     59                     60
                      A                      A                      A
 Frequencies --   1427.3003              1427.3038              1430.1132
 Red. masses --      1.2713                 1.2714                 1.2782
 Frc consts  --      1.5259                 1.5260                 1.5402
 IR Inten    --     33.3177                 0.5633                39.5065

                     61                     62                     63
                      A                      A                      A
 Frequencies --   1430.3846              1455.3125              1455.5469
 Red. masses --      1.2804                 1.2312                 1.2309
 Frc consts  --      1.5435                 1.5363                 1.5365
 IR Inten    --      0.0000                24.3801                 0.0036

                     64                     65                     66
                      A                      A                      A
 Frequencies --   1500.1744              1500.1827              1518.7206
 Red. masses --      1.0461                 1.0461                 1.0462
 Frc consts  --      1.3872                 1.3871                 1.4217
 IR Inten    --      0.0046                 0.8087                 0.0029

                     67                     68                     69
                      A                      A                      A
 Frequencies --   1518.7440              1520.2147              1520.3320
 Red. masses --      1.0461                 1.0512                 1.0513
 Frc consts  --      1.4217                 1.4314                 1.4317
 IR Inten    --      0.9357                 0.0000                 1.0591

                     70                     71                     72
                      A                      A                      A
 Frequencies --   1526.0413              1526.2936              1532.2686
 Red. masses --      1.0629                 1.0627                 1.0530
 Frc consts  --      1.4584                 1.4586                 1.4567
 IR Inten    --     24.3063                 0.0002                 2.9640

                     73                     74                     75
                      A                      A                      A
 Frequencies --   1532.3111              1554.2767              1554.3004
 Red. masses --      1.0531                 1.0543                 1.0542
 Frc consts  --      1.4568                 1.5006                 1.5005
 IR Inten    --      0.0025                21.9729                 0.2866

                     76                     77                     78
                      A                      A                      A
 Frequencies --   1649.1274              1828.2162              1841.9726
 Red. masses --     13.9758                12.4541                12.3431
 Frc consts  --     22.3942                24.5254                24.6741
 IR Inten    --      0.0000                 0.0002               540.6665

                     79                     80                     81
                      A                      A                      A
 Frequencies --   3060.3797              3060.3835              3061.4950
 Red. masses --      1.0355                 1.0355                 1.0374
 Frc consts  --      5.7143                 5.7144                 5.7291
 IR Inten    --      2.5099                11.3332                 0.2600

                     82                     83                     84
                      A                      A                      A
 Frequencies --   3061.5119              3068.5052              3068.6076
 Red. masses --      1.0375                 1.0376                 1.0376
 Frc consts  --      5.7291                 5.7563                 5.7565
 IR Inten    --     35.1691                34.6238                 0.0039

                     85                     86                     87
                      A                      A                      A
 Frequencies --   3125.2293              3125.2607              3126.8965
 Red. masses --      1.1025                 1.1025                 1.1025
 Frc consts  --      6.3445                 6.3446                 6.3512
 IR Inten    --      0.0121                14.1958                22.5194

                     88                     89                     90
                      A                      A                      A
 Frequencies --   3126.9309              3138.1965              3138.2682
 Red. masses --      1.1025                 1.1026                 1.1025
 Frc consts  --      6.3513                 6.3976                 6.3977
 IR Inten    --      0.0398                82.6910                 0.0248

                     91                     92                     93
                      A                      A                      A
 Frequencies --   3139.9409              3139.9611              3164.8513
 Red. masses --      1.1034                 1.1034                 1.1011
 Frc consts  --      6.4096                 6.4098                 6.4980
 IR Inten    --      0.0057                48.3164                 1.3996

                     94                     95                     96
                      A                      A                      A
 Frequencies --   3164.8559              3167.9046              3167.9202
 Red. masses --      1.1011                 1.1004                 1.1004
 Frc consts  --      6.4980                 6.5064                 6.5064
 IR Inten    --      1.0529                26.0419                 0.4442

 - Thermochemistry -
 -------------------
 Temperature   298.150 Kelvin.  Pressure   1.00000 Atm.
 Atom     1 has atomic number  6 and mass  12.00000

 Molecular mass:   230.12666 amu.
 Principal axes and moments of inertia in atomic units:
                           1         2         3
     Eigenvalues --  1299.165099365.418839804.89100
           X            0.99997  -0.00727   0.00122
           Y            0.00727   0.99997  -0.00364
           Z           -0.00120   0.00365   0.99999
 This molecule is an asymmetric top.
 Rotational symmetry number  1.
 Warning -- assumption of classical behavior for rotation
           may cause significant error
 Rotational temperatures (Kelvin)      0.06667     0.00925     0.00883
 Rotational constants (GHZ):           1.38915     0.19270     0.18407
 Zero-point vibrational energy     742907.0 (Joules/Mol)
                                  177.55904 (Kcal/Mol)
 Warning -- explicit consideration of  30 degrees of freedom as
           vibrations may cause significant error
 Vibrational temperatures:     16.49    48.43    64.84    77.79    82.00
          (Kelvin)            155.81   159.86   257.11   284.80   285.79
                              297.70   298.10   304.22   368.23   369.20
                              386.68   387.48   455.45   455.61   493.41
                              506.45   530.18   539.10   615.31   626.99
                              666.00   669.19   669.90   791.55   870.34
                              952.32  1072.39  1111.89  1173.82  1216.08
                             1230.46  1245.82  1347.96  1348.08  1349.35
                             1350.83  1397.65  1416.56  1416.59  1429.87
                             1534.06  1534.13  1544.16  1544.80  1719.05
                             1744.71  1849.66  1850.18  1850.68  1856.50
                             1877.72  1878.17  2053.57  2053.57  2057.61
                             2058.00  2093.87  2094.21  2158.42  2158.43
                             2185.10  2185.13  2187.25  2187.42  2195.63
                             2196.00  2204.59  2204.65  2236.26  2236.29
                             2372.73  2630.40  2650.19  4403.20  4403.21
                             4404.81  4404.83  4414.89  4415.04  4496.51
                             4496.55  4498.91  4498.96  4515.16  4515.27
                             4517.67  4517.70  4553.52  4553.52  4557.91
                             4557.93

 Zero-point correction=                           0.282958 (Hartree/Particle)
 Thermal correction to Energy=                    0.301841
 Thermal correction to Enthalpy=                  0.302785
 Thermal correction to Gibbs Free Energy=         0.234290
 Sum of electronic and zero-point Energies=           -801.998186
 Sum of electronic and thermal Energies=              -801.979303
 Sum of electronic and thermal Enthalpies=            -801.978359
 Sum of electronic and thermal Free Energies=         -802.046854

                     E (Thermal)             CV                S
                      KCal/Mol        Cal/Mol-Kelvin    Cal/Mol-Kelvin
 Total                  189.408             68.261            144.159
 Electronic               0.000              0.000              0.000
 Translational            0.889              2.981             42.202
 Rotational               0.889              2.981             33.145
 Vibrational            187.631             62.299             68.812
 Vibration     1          0.593              1.987              7.740
 Vibration     2          0.594              1.983              5.601
 Vibration     3          0.595              1.979              5.023
 Vibration     4          0.596              1.976              4.663
 Vibration     5          0.596              1.975              4.559
 Vibration     6          0.606              1.943              3.299
 Vibration     7          0.607              1.940              3.249
 Vibration     8          0.629              1.869              2.342
 Vibration     9          0.637              1.843              2.152
 Vibration    10          0.637              1.842              2.146
 Vibration    11          0.641              1.830              2.071
 Vibration    12          0.641              1.830              2.068
 Vibration    13          0.643              1.823              2.031
 Vibration    14          0.666              1.753              1.689
 Vibration    15          0.666              1.752              1.685
 Vibration    16          0.673              1.731              1.604
 Vibration    17          0.674              1.730              1.601
 Vibration    18          0.703              1.642              1.328
 Vibration    19          0.704              1.642              1.327
 Vibration    20          0.722              1.590              1.198
 Vibration    21          0.729              1.571              1.157
 Vibration    22          0.741              1.537              1.086
 Vibration    23          0.746              1.524              1.061
 Vibration    24          0.789              1.410              0.866
 Vibration    25          0.796              1.392              0.840
 Vibration    26          0.821              1.332              0.758
 Vibration    27          0.823              1.327              0.751
 Vibration    28          0.823              1.326              0.750
 Vibration    29          0.905              1.139              0.544
 Vibration    30          0.963              1.021              0.441

 Optimization completed on the basis of negligible forces.
    -- Stationary point found.
 Normal termination of Gaussian 16 at Sat Aug 22 14:07:16 2020.
 Gaussian 16:  ES64L-G16RevA.03 25-Dec-2016

 ----------------------------------------------------------------------
 # TD(NStates=10, Root=1) B3LYP/6-31G* scf=qc volume pop=NPA density=cu
 rrent Geom=AllCheck Guess=Read
 ----------------------------------------------------------------------

 Structure from the checkpoint file:  "azadicarboxylate_1_conf283.chk"
 -------------------
 Title Card Required
 -------------------
 Charge =  0 Multiplicity = 1

                         Standard orientation:
 ---------------------------------------------------------------------
 Center     Atomic      Atomic             Coordinates (Angstroms)
 Number     Number       Type             X           Y           Z
 ---------------------------------------------------------------------
      1          6           0        4.203614    0.314153    1.425926
      2          6           0        3.930651   -0.196440    0.009316
      3          6           0        4.492743    0.729860   -1.071404
      4          6           0        4.432508   -1.629063   -0.170717
      5          8           0        2.461797   -0.348462   -0.183823
      6          6           0        1.645946    0.693858   -0.114932
      7          8           0        1.890467    1.856354    0.099543
      8          7           0        0.296977    0.283340   -0.467663
      9          7           0       -0.297113   -0.283614    0.468563
     10          6           0       -1.646087   -0.694108    0.115859
     11          8           0       -1.890818   -1.856776   -0.097449
     12          8           0       -2.461703    0.348485    0.183370
     13          6           0       -3.930548    0.196597   -0.009971
     14          6           0       -4.493130   -0.728407    1.071604
     15          6           0       -4.432113    1.629530    0.168389
     16          6           0       -4.203267   -0.315457   -1.426101
     17          1           0        5.283614    0.311273    1.610343
     18          1           0        3.730031   -0.340095    2.165423
     19          1           0        3.829698    1.330712    1.560926
     20          1           0        5.585616    0.750617   -0.997180
     21          1           0        4.117293    1.748511   -0.957972
     22          1           0        4.227191    0.361147   -2.067918
     23          1           0        5.520124   -1.660185   -0.047815
     24          1           0        4.184559   -2.004290   -1.168514
     25          1           0        3.979230   -2.293968    0.570985
     26          1           0       -4.227752   -0.358678    2.067788
     27          1           0       -4.117885   -1.747266    0.959371
     28          1           0       -5.585988   -0.748994    0.997119
     29          1           0       -4.184333    2.005776    1.165843
     30          1           0       -5.519691    1.660776    0.045173
     31          1           0       -3.978488    2.293528   -0.573913
     32          1           0       -3.829568   -1.332254   -1.559910
     33          1           0       -3.729327    0.337876   -2.166177
     34          1           0       -5.283218   -0.312508   -1.610804
 ---------------------------------------------------------------------

 SCF Done:  E(RB3LYP) =  -802.281144099     a.u. after    1 cycles

 Excitation energies and oscillator strengths:

 Excited State   1:      Singlet-A      2.9537 eV  419.76 nm  f=0.0000  <S**2>=0.000
      62 -> 63         0.70033
 This state for optimization and/or second-order correction.
 Total Energy, E(TD-HF/TD-DFT) =  -802.172596808
 Copying the excited state density for this state as the 1-particle RhoCI density.

 Excited State   2:      Singlet-A      4.9681 eV  249.56 nm  f=0.0911  <S**2>=0.000
      61 -> 63         0.69453

 Excited State   3:      Singlet-A      5.1186 eV  242.22 nm  f=0.0000  <S**2>=0.000
      60 -> 63         0.68881

 Excited State   4:      Singlet-A      5.4188 eV  228.80 nm  f=0.0134  <S**2>=0.000
      59 -> 63         0.70087

 Excited State   5:      Singlet-A      5.4424 eV  227.81 nm  f=0.0000  <S**2>=0.000
      58 -> 63         0.69874

 Excited State   6:      Singlet-A      5.6284 eV  220.28 nm  f=0.0000  <S**2>=0.000
      61 -> 65         0.17811
      62 -> 64         0.67149

 Excited State   7:      Singlet-A      5.6508 eV  219.41 nm  f=0.0152  <S**2>=0.000
      61 -> 64         0.17271
      62 -> 65         0.67495

 Excited State   8:      Singlet-A      6.5023 eV  190.68 nm  f=0.0000  <S**2>=0.000
      52 -> 63         0.16570
      57 -> 63         0.67443

 Excited State   9:      Singlet-A      6.5421 eV  189.52 nm  f=0.0007  <S**2>=0.000
      53 -> 63        -0.25464
      55 -> 63        -0.10066
      56 -> 63         0.63758

 Excited State  10:      Singlet-A      6.6808 eV  185.58 nm  f=0.0163  <S**2>=0.000
      55 -> 63        -0.12459
      60 -> 65         0.33931
      61 -> 64         0.55384
      62 -> 65        -0.19241

 The electronic state is 1-A.
 Alpha  occ. eigenvalues --  -19.20272 -19.20272 -19.15007 -19.15007 -14.41519
 Alpha  occ. eigenvalues --  -14.41468 -10.34707 -10.34707 -10.26929 -10.26929
 Alpha  occ. eigenvalues --  -10.18661 -10.18661 -10.18422 -10.18422 -10.18346
 Alpha  occ. eigenvalues --  -10.18346  -1.12905  -1.11575  -1.04776  -1.03377
 Alpha  occ. eigenvalues --   -1.02949  -0.83234  -0.82104  -0.76517  -0.70292
 Alpha  occ. eigenvalues --   -0.70276  -0.70184  -0.70183  -0.65332  -0.61863
 Alpha  occ. eigenvalues --   -0.56655  -0.52086  -0.51861  -0.50496  -0.48656
 Alpha  occ. eigenvalues --   -0.48060  -0.47623  -0.46326  -0.45420  -0.45395
 Alpha  occ. eigenvalues --   -0.43636  -0.43079  -0.42383  -0.42200  -0.40997
 Alpha  occ. eigenvalues --   -0.40063  -0.39213  -0.39050  -0.38504  -0.37658
 Alpha  occ. eigenvalues --   -0.37609  -0.36867  -0.36462  -0.35882  -0.35644
 Alpha  occ. eigenvalues --   -0.34702  -0.34593  -0.31073  -0.30985  -0.30462
 Alpha  occ. eigenvalues --   -0.29062  -0.24280
 Alpha virt. eigenvalues --   -0.07473   0.01085   0.01286   0.07954   0.08017
 Alpha virt. eigenvalues --    0.09052   0.09331   0.14240   0.14244   0.14779
 Alpha virt. eigenvalues --    0.14811   0.15682   0.15695   0.16195   0.16213

 Mulliken charges:
               1
     1  C   -0.467880
     2  C    0.295329
     3  C   -0.469222
     4  C   -0.452374
     5  O   -0.446072
     6  C    0.740039
     7  O   -0.425249
     8  N   -0.240991
     9  N   -0.241005
    10  C    0.740043
    11  O   -0.425305
    12  O   -0.446091
    13  C    0.295337
    14  C   -0.469222
    15  C   -0.452373
    16  C   -0.467877
    17  H    0.149241
    18  H    0.158830
    19  H    0.186195
    20  H    0.151319
    21  H    0.186346
    22  H    0.157539
    23  H    0.150184
    24  H    0.162435
    25  H    0.164377
    26  H    0.157539
    27  H    0.186349
    28  H    0.151313
    29  H    0.162437
    30  H    0.150181
    31  H    0.164371
    32  H    0.186197
    33  H    0.158822
    34  H    0.149236
 Sum of Mulliken charges =   0.00000

 Dipole moment (field-independent basis, Debye):
    X=              0.0013    Y=              0.0011    Z=             -0.0024  Tot=              0.0029
 Quadrupole moment (field-independent basis, Debye-Ang):
   XX=            -63.5596   YY=           -104.0421   ZZ=            -93.2156
   XY=             -6.3077   XZ=             -0.0580   YZ=             -1.1664

 Summary of Natural Population Analysis:

                                       Natural Population
                Natural  -----------------------------------------------
    Atom  No    Charge         Core      Valence    Rydberg      Total
 -----------------------------------------------------------------------
      C    1   -0.70336      1.99932     4.69496    0.00909     6.70336
      C    2    0.27974      1.99900     3.70255    0.01871     5.72026
      C    3   -0.70432      1.99932     4.69578    0.00922     6.70432
      C    4   -0.68686      1.99932     4.67729    0.01025     6.68686
      O    5   -0.54097      1.99970     6.52812    0.01315     8.54097
      C    6    0.92395      1.99951     3.02465    0.05189     5.07605
      O    7   -0.55436      1.99977     6.53427    0.02032     8.55436
      N    8   -0.22152      1.99939     5.19565    0.02648     7.22152
      N    9   -0.22152      1.99939     5.19565    0.02648     7.22152
      C   10    0.92392      1.99951     3.02468    0.05189     5.07608
      O   11   -0.55440      1.99977     6.53431    0.02032     8.55440
      O   12   -0.54099      1.99970     6.52814    0.01315     8.54099
      C   13    0.27975      1.99900     3.70255    0.01871     5.72025
      C   14   -0.70432      1.99932     4.69578    0.00922     6.70432
      C   15   -0.68686      1.99932     4.67728    0.01025     6.68686
      C   16   -0.70336      1.99932     4.69495    0.00909     6.70336
      H   17    0.23977      0.00000     0.75946    0.00077     0.76023
      H   18    0.24163      0.00000     0.75724    0.00112     0.75837
      H   19    0.25745      0.00000     0.74130    0.00125     0.74255
      H   20    0.24155      0.00000     0.75771    0.00074     0.75845
      H   21    0.25721      0.00000     0.74141    0.00138     0.74279
      H   22    0.24083      0.00000     0.75805    0.00112     0.75917
      H   23    0.23891      0.00000     0.76041    0.00068     0.76109
      H   24    0.24463      0.00000     0.75432    0.00105     0.75537
      H   25    0.24576      0.00000     0.75319    0.00104     0.75424
      H   26    0.24083      0.00000     0.75805    0.00112     0.75917
      H   27    0.25721      0.00000     0.74141    0.00138     0.74279
      H   28    0.24155      0.00000     0.75771    0.00074     0.75845
      H   29    0.24463      0.00000     0.75432    0.00105     0.75537
      H   30    0.23891      0.00000     0.76041    0.00068     0.76109
      H   31    0.24576      0.00000     0.75320    0.00104     0.75424
      H   32    0.25745      0.00000     0.74130    0.00125     0.74255
      H   33    0.24163      0.00000     0.75725    0.00112     0.75837
      H   34    0.23977      0.00000     0.75947    0.00077     0.76023
 =======================================================================
   * Total *    0.00000     31.99063    91.67281    0.33656   124.00000

 Normal termination of Gaussian 16 at Sat Aug 22 14:13:29 2020.
