 Gaussian 16, Revision A.03,

 ---------------------------------
 # opt=CalcAll B3LYP/6-31G* scf=qc
 ---------------------------------

 -------------------
 Title Card Required
 -------------------
 Symbolic Z-matrix:
 Charge =  0 Multiplicity = 1

 SCF Done:  E(RB3LYP) =  -1028.39368868     a.u. after   10 cycles
 SCF Done:  E(RB3LYP) =  -1028.42151466     a.u. after   19 cycles
 SCF Done:  E(RB3LYP) =  -1028.46058245     a.u. after   21 cycles
 SCF Done:  E(RB3LYP) =  -1028.47316812     a.u. after   19 cycles
 SCF Done:  E(RB3LYP) =  -1028.47796254     a.u. after   19 cycles
 SCF Done:  E(RB3LYP) =  -1028.47881813     a.u. after   21 cycles
 SCF Done:  E(RB3LYP) =  -1028.48037952     a.u. after   17 cycles
 SCF Done:  E(RB3LYP) =  -1028.48094192     a.u. after   19 cycles
 SCF Done:  E(RB3LYP) =  -1028.48001096     a.u. after   27 cycles
 SCF Done:  E(RB3LYP) =  -1028.48197264     a.u. after   15 cycles
 SCF Done:  E(RB3LYP) =  -1028.48256268     a.u. after   17 cycles
 SCF Done:  E(RB3LYP) =  -1028.48255508     a.u. after   15 cycles
 SCF Done:  E(RB3LYP) =  -1028.48264256     a.u. after   13 cycles
 SCF Done:  E(RB3LYP) =  -1028.48263529     a.u. after    9 cycles
 SCF Done:  E(RB3LYP) =  -1028.48264422     a.u. after    8 cycles
 SCF Done:  E(RB3LYP) =  -1028.48264430     a.u. after    2 cycles
 SCF Done:  E(RB3LYP) =  -1028.48264427     a.u. after    2 cycles
 SCF Done:  E(RB3LYP) =  -1028.48264429     a.u. after    2 cycles
 Optimization completed.
    -- Stationary point found.
 Normal termination of Gaussian 16 at Sat Aug 22 17:35:47 2020.

 ----------------------------------------------------------------------
 # freq B3LYP/6-31G* scf=qc volume NMR pop=NPA density=current Geom=All
 Check Guess=Read
 ----------------------------------------------------------------------

 Structure from the checkpoint file:  "azadicarboxylate_4_conf282.chk"
 -------------------
 Title Card Required
 -------------------
 Charge =  0 Multiplicity = 1

 SCF Done:  E(RB3LYP) =  -1028.48264429     a.u. after    1 cycles

      1  C    Isotropic =    62.1370   Anisotropy =   173.2444

      2  C    Isotropic =   120.6132   Anisotropy =    39.2006

      3  O    Isotropic =   140.7126   Anisotropy =   143.6574

      4  C    Isotropic =    34.5949   Anisotropy =    84.0931

      5  O    Isotropic =   -20.7343   Anisotropy =   493.4439

      6  N    Isotropic =  -323.1285   Anisotropy =   676.1751

      7  N    Isotropic =  -323.1287   Anisotropy =   676.1753

      8  C    Isotropic =    34.5948   Anisotropy =    84.0927

      9  O    Isotropic =   -20.7340   Anisotropy =   493.4432

     10  O    Isotropic =   140.7126   Anisotropy =   143.6576

     11  C    Isotropic =   120.6132   Anisotropy =    39.2006

     12  C    Isotropic =    62.1370   Anisotropy =   173.2444

     13  C    Isotropic =    63.9960   Anisotropy =   162.6069

     14  C    Isotropic =    67.7528   Anisotropy =   166.7884

     15  C    Isotropic =    66.9857   Anisotropy =   170.8777

     16  C    Isotropic =    68.2609   Anisotropy =   165.6446

     17  C    Isotropic =    65.0508   Anisotropy =   156.3657

     18  C    Isotropic =    65.0508   Anisotropy =   156.3658

     19  C    Isotropic =    68.2608   Anisotropy =   165.6446

     20  C    Isotropic =    66.9857   Anisotropy =   170.8778

     21  C    Isotropic =    67.7529   Anisotropy =   166.7884

     22  C    Isotropic =    63.9959   Anisotropy =   162.6068

     23  H    Isotropic =    27.6182   Anisotropy =     5.2400

     24  H    Isotropic =    26.4651   Anisotropy =     2.5910

     25  H    Isotropic =    27.6182   Anisotropy =     5.2400

     26  H    Isotropic =    26.4651   Anisotropy =     2.5909

     27  H    Isotropic =    24.4129   Anisotropy =     7.7483

     28  H    Isotropic =    24.9178   Anisotropy =     4.9764

     29  H    Isotropic =    24.9249   Anisotropy =     4.2168

     30  H    Isotropic =    24.9314   Anisotropy =     4.5484

     31  H    Isotropic =    24.9120   Anisotropy =     6.8237

     32  H    Isotropic =    24.9120   Anisotropy =     6.8237

     33  H    Isotropic =    24.9314   Anisotropy =     4.5484

     34  H    Isotropic =    24.9249   Anisotropy =     4.2169

     35  H    Isotropic =    24.9178   Anisotropy =     4.9764

     36  H    Isotropic =    24.4129   Anisotropy =     7.7483

  Exact polarizability: 220.054 -37.764 154.330 -16.620 -14.868 176.068
 Approx polarizability: 260.790 -67.076 266.717 -32.771 -44.497 317.050

                      1                      2                      3
                      A                      A                      A
 Frequencies --      7.0779                16.9795                22.7897
 Red. masses --      5.8667                 6.6463                 4.7589
 Frc consts  --      0.0002                 0.0011                 0.0015
 IR Inten    --      0.5855                 0.5294                 0.0000

                      4                      5                      6
                      A                      A                      A
 Frequencies --     25.5438                30.6325                49.6927
 Red. masses --      3.9121                 6.2030                 8.4614
 Frc consts  --      0.0015                 0.0034                 0.0123
 IR Inten    --      0.1676                 0.0000                 2.5543

                      7                      8                      9
                      A                      A                      A
 Frequencies --     68.3833                75.8075                85.3081
 Red. masses --      7.5649                 8.4814                 5.8698
 Frc consts  --      0.0208                 0.0287                 0.0252
 IR Inten    --      0.0000                 0.0000                 4.0704

                     10                     11                     12
                      A                      A                      A
 Frequencies --    132.5251               154.7547               214.7240
 Red. masses --      7.6711                 6.0160                 7.1011
 Frc consts  --      0.0794                 0.0849                 0.1929
 IR Inten    --      1.0814                 0.0000                 4.2948

                     13                     14                     15
                      A                      A                      A
 Frequencies --    224.5170               239.3095               251.1746
 Red. masses --      8.4060                 7.6609                 7.6345
 Frc consts  --      0.2497                 0.2585                 0.2838
 IR Inten    --      0.0000                 0.0000                16.0804

                     16                     17                     18
                      A                      A                      A
 Frequencies --    323.4304               328.8325               362.4914
 Red. masses --      6.1261                 6.1776                 2.2223
 Frc consts  --      0.3776                 0.3936                 0.1720
 IR Inten    --      0.0000                 4.6895                 0.0000

                     19                     20                     21
                      A                      A                      A
 Frequencies --    372.8474               416.9721               417.0116
 Red. masses --      2.1706                 2.9664                 2.9683
 Frc consts  --      0.1778                 0.3039                 0.3041
 IR Inten    --     20.9637                 0.1131                 0.0000

                     22                     23                     24
                      A                      A                      A
 Frequencies --    438.9080               481.5615               505.1207
 Red. masses --      5.9991                 4.1198                 4.4112
 Frc consts  --      0.6809                 0.5629                 0.6631
 IR Inten    --      0.0000                 5.4516                 0.0000

                     25                     26                     27
                      A                      A                      A
 Frequencies --    571.4081               577.3550               629.5965
 Red. masses --      6.5706                 6.9116                 6.2905
 Frc consts  --      1.2640                 1.3574                 1.4691
 IR Inten    --     26.8398                 0.0000                38.3006

                     28                     29                     30
                      A                      A                      A
 Frequencies --    635.5985               635.9615               641.7757
 Red. masses --      6.3308                 6.5418                 5.9086
 Frc consts  --      1.5069                 1.5589                 1.4338
 IR Inten    --      0.0000                 4.6699                 0.0000

                     31                     32                     33
                      A                      A                      A
 Frequencies --    646.2583               713.5785               713.6390
 Red. masses --      6.2608                 1.7858                 1.8136
 Frc consts  --      1.5406                 0.5358                 0.5442
 IR Inten    --      3.4229                65.5706                 0.0000

                     34                     35                     36
                      A                      A                      A
 Frequencies --    771.1862               774.4423               810.7126
 Red. masses --      2.0713                 2.1043                10.9964
 Frc consts  --      0.7258                 0.7436                 4.2583
 IR Inten    --      0.0000                66.2424                28.8613

                     37                     38                     39
                      A                      A                      A
 Frequencies --    827.7187               839.8100               839.8216
 Red. masses --      5.0926                 3.7662                 3.8810
 Frc consts  --      2.0557                 1.5650                 1.6128
 IR Inten    --      0.0000                 0.0000                25.8204

                     40                     41                     42
                      A                      A                      A
 Frequencies --    863.6233               863.6541               879.8839
 Red. masses --      1.2470                 1.2475                 4.7433
 Frc consts  --      0.5480                 0.5482                 2.1636
 IR Inten    --      0.0000                 0.4976                76.1499

                     43                     44                     45
                      A                      A                      A
 Frequencies --    907.5220               939.7932               943.3884
 Red. masses --      5.4894                 1.4829                 1.5778
 Frc consts  --      2.6637                 0.7717                 0.8273
 IR Inten    --      0.0000                19.4711                 0.0000

                     46                     47                     48
                      A                      A                      A
 Frequencies --    973.9061               973.9151               977.2095
 Red. masses --      1.3648                 1.3563                 4.2327
 Frc consts  --      0.7627                 0.7579                 2.3815
 IR Inten    --      0.6503                 0.0000               172.3799

                     49                     50                     51
                      A                      A                      A
 Frequencies --    989.8676              1002.2863              1002.2926
 Red. masses --      3.8169                 1.2786                 1.2775
 Frc consts  --      2.2035                 0.7568                 0.7562
 IR Inten    --      0.0000                 0.0000                 0.2253

                     52                     53                     54
                      A                      A                      A
 Frequencies --   1018.7100              1019.1513              1021.2909
 Red. masses --      3.6806                 4.2619                 3.9788
 Frc consts  --      2.2504                 2.6082                 2.4451
 IR Inten    --      0.0000                13.7418                 0.0000

                     55                     56                     57
                      A                      A                      A
 Frequencies --   1022.4762              1059.0077              1059.0121
 Red. masses --      3.0274                 2.2311                 2.2316
 Frc consts  --      1.8648                 1.4743                 1.4746
 IR Inten    --     19.9253                 1.9341                 0.0000

                     58                     59                     60
                      A                      A                      A
 Frequencies --   1123.5326              1123.7083              1194.8632
 Red. masses --      1.5181                 1.5188                 1.1025
 Frc consts  --      1.1290                 1.1300                 0.9274
 IR Inten    --      0.0000                 3.7905                 0.0000

                     61                     62                     63
                      A                      A                      A
 Frequencies --   1194.8664              1215.7952              1216.2746
 Red. masses --      1.1025                 1.1513                 1.1413
 Frc consts  --      0.9274                 1.0026                 0.9948
 IR Inten    --      0.0158                37.2939                 0.0000

                     64                     65                     66
                      A                      A                      A
 Frequencies --   1239.7407              1240.0880              1247.1155
 Red. masses --      3.2256                 3.0059                 3.7522
 Frc consts  --      2.9209                 2.7235                 3.4383
 IR Inten    --    144.0666                 0.0000              1210.2179

                     67                     68                     69
                      A                      A                      A
 Frequencies --   1255.9760              1298.5677              1300.0312
 Red. masses --      3.5890                 1.4625                 1.5569
 Frc consts  --      3.3357                 1.4530                 1.5504
 IR Inten    --      0.0000               165.0896                 0.0000

                     70                     71                     72
                      A                      A                      A
 Frequencies --   1365.1768              1365.1858              1375.4144
 Red. masses --      4.1418                 4.1367                 1.2675
 Frc consts  --      4.5480                 4.5425                 1.4128
 IR Inten    --      0.0000                 5.5300                 6.0015

                     73                     74                     75
                      A                      A                      A
 Frequencies --   1375.4923              1417.4146              1417.9035
 Red. masses --      1.2681                 1.3573                 1.3605
 Frc consts  --      1.4136                 1.6067                 1.6116
 IR Inten    --      0.0000                 0.0000                43.8332

                     76                     77                     78
                      A                      A                      A
 Frequencies --   1504.8714              1504.8809              1516.7204
 Red. masses --      2.1984                 2.1983                 1.1170
 Frc consts  --      2.9333                 2.9332                 1.5140
 IR Inten    --      0.0000                14.0223                22.7440

                     79                     80                     81
                      A                      A                      A
 Frequencies --   1516.9385              1548.0294              1548.0698
 Red. masses --      1.1185                 2.2127                 2.2109
 Frc consts  --      1.5164                 3.1242                 3.1218
 IR Inten    --      0.0000                 9.3544                 0.0000

                     82                     83                     84
                      A                      A                      A
 Frequencies --   1646.4592              1646.4671              1647.9295
 Red. masses --      5.5578                 5.5011                13.5876
 Frc consts  --      8.8768                 8.7863                21.7405
 IR Inten    --      0.0000                 1.6308                 0.0000

                     85                     86                     87
                      A                      A                      A
 Frequencies --   1666.1560              1666.1853              1832.0100
 Red. masses --      5.5108                 5.5093                12.1403
 Frc consts  --      9.0136                 9.0115                24.0069
 IR Inten    --      1.0182                 0.0000                 0.0000

                     88                     89                     90
                      A                      A                      A
 Frequencies --   1844.8685              3107.2513              3107.3098
 Red. masses --     12.1211                 1.0575                 1.0575
 Frc consts  --     24.3066                 6.0159                 6.0161
 IR Inten    --    470.4932                43.6437                 0.0000

                     91                     92                     93
                      A                      A                      A
 Frequencies --   3165.0884              3165.0944              3179.9363
 Red. masses --      1.1108                 1.1108                 1.0864
 Frc consts  --      6.5561                 6.5562                 6.4727
 IR Inten    --      0.0001                 8.9778                 0.0001

                     94                     95                     96
                      A                      A                      A
 Frequencies --   3179.9427              3187.5797              3187.5821
 Red. masses --      1.0864                 1.0878                 1.0878
 Frc consts  --      6.4727                 6.5119                 6.5119
 IR Inten    --      8.9100                 5.2953                 0.0000

                     97                     98                     99
                      A                      A                      A
 Frequencies --   3198.1404              3198.1499              3207.8302
 Red. masses --      1.0914                 1.0914                 1.0949
 Frc consts  --      6.5771                 6.5771                 6.6379
 IR Inten    --      0.0000                45.4905                48.6432

                    100                    101                    102
                      A                      A                      A
 Frequencies --   3207.8517              3215.3889              3215.3897
 Red. masses --      1.0948                 1.0964                 1.0964
 Frc consts  --      6.6379                 6.6783                 6.6784
 IR Inten    --      0.0000                15.3606                 0.0266

 - Thermochemistry -
 -------------------
 Temperature   298.150 Kelvin.  Pressure   1.00000 Atm.
 Atom     1 has atomic number  6 and mass  12.00000

 Molecular mass:   298.09536 amu.
 Principal axes and moments of inertia in atomic units:
                           1         2         3
     Eigenvalues --  2239.18011********************
           X            0.99999  -0.00332  -0.00024
           Y            0.00333   0.99973   0.02290
           Z            0.00016  -0.02290   0.99974
 This molecule is an asymmetric top.
 Rotational symmetry number  1.
 Warning -- assumption of classical behavior for rotation
           may cause significant error
 Rotational temperatures (Kelvin)      0.03868     0.00438     0.00432
 Rotational constants (GHZ):           0.80598     0.09136     0.09000
 Zero-point vibrational energy     729551.7 (Joules/Mol)
                                  174.36704 (Kcal/Mol)
 Warning -- explicit consideration of  26 degrees of freedom as
           vibrations may cause significant error
 Vibrational temperatures:     10.18    24.43    32.79    36.75    44.07
          (Kelvin)             71.50    98.39   109.07   122.74   190.67
                              222.66   308.94   323.03   344.31   361.38
                              465.34   473.12   521.54   536.44   599.93
                              599.99   631.49   692.86   726.76   822.13
                              830.69   905.85   914.48   915.01   923.37
                              929.82  1026.68  1026.77  1109.57  1114.25
                             1166.43  1190.90  1208.30  1208.32  1242.56
                             1242.61  1265.96  1305.72  1352.15  1357.33
                             1401.23  1401.25  1405.99  1424.20  1442.07
                             1442.08  1465.70  1466.33  1469.41  1471.12
                             1523.68  1523.68  1616.51  1616.77  1719.14
                             1719.15  1749.26  1749.95  1783.71  1784.21
                             1794.32  1807.07  1868.35  1870.46  1964.18
                             1964.20  1978.91  1979.03  2039.34  2040.05
                             2165.17  2165.19  2182.22  2182.54  2227.27
                             2227.33  2368.89  2368.90  2371.00  2397.23
                             2397.27  2635.85  2654.35  4470.64  4470.73
                             4553.86  4553.86  4575.22  4575.23  4586.22
                             4586.22  4601.41  4601.42  4615.35  4615.38
                             4626.23  4626.23

 Zero-point correction=                           0.277872 (Hartree/Particle)
 Thermal correction to Energy=                    0.297263
 Thermal correction to Enthalpy=                  0.298207
 Thermal correction to Gibbs Free Energy=         0.223182
 Sum of electronic and zero-point Energies=          -1028.204773
 Sum of electronic and thermal Energies=             -1028.185382
 Sum of electronic and thermal Enthalpies=           -1028.184437
 Sum of electronic and thermal Free Energies=        -1028.259462

                     E (Thermal)             CV                S
                      KCal/Mol        Cal/Mol-Kelvin    Cal/Mol-Kelvin
 Total                  186.535             71.295            157.903
 Electronic               0.000              0.000              0.000
 Translational            0.889              2.981             42.974
 Rotational               0.889              2.981             35.138
 Vibrational            184.758             65.333             79.792
 Vibration     1          0.593              1.987              8.698
 Vibration     2          0.593              1.986              6.959
 Vibration     3          0.593              1.985              6.375
 Vibration     4          0.593              1.985              6.148
 Vibration     5          0.594              1.984              5.788
 Vibration     6          0.595              1.978              4.830
 Vibration     7          0.598              1.969              4.199
 Vibration     8          0.599              1.965              3.997
 Vibration     9          0.601              1.959              3.765
 Vibration    10          0.613              1.921              2.909
 Vibration    11          0.620              1.897              2.613
 Vibration    12          0.645              1.819              2.003
 Vibration    13          0.649              1.804              1.922
 Vibration    14          0.657              1.780              1.808
 Vibration    15          0.663              1.761              1.722
 Vibration    16          0.708              1.629              1.293
 Vibration    17          0.712              1.618              1.266
 Vibration    18          0.736              1.550              1.111
 Vibration    19          0.744              1.528              1.068
 Vibration    20          0.780              1.433              0.902
 Vibration    21          0.780              1.433              0.902
 Vibration    22          0.799              1.385              0.830
 Vibration    23          0.838              1.291              0.706
 Vibration    24          0.860              1.239              0.645
 Vibration    25          0.928              1.093              0.502
 Vibration    26          0.934              1.080              0.490

 Optimization completed.
    -- Stationary point found.
 Normal termination of Gaussian 16 at Sat Aug 22 17:43:58 2020.
 Gaussian 16:  ES64L-G16RevA.03 25-Dec-2016

 ----------------------------------------------------------------------
 # TD(NStates=10, Root=1) B3LYP/6-31G* scf=qc volume pop=NPA density=cu
 rrent Geom=AllCheck Guess=Read
 ----------------------------------------------------------------------

 Structure from the checkpoint file:  "azadicarboxylate_4_conf283.chk"
 -------------------
 Title Card Required
 -------------------
 Charge =  0 Multiplicity = 1

                         Standard orientation:
 ---------------------------------------------------------------------
 Center     Atomic      Atomic             Coordinates (Angstroms)
 Number     Number       Type             X           Y           Z
 ---------------------------------------------------------------------
      1          6           0       -4.464485   -0.548631   -0.494845
      2          6           0       -3.427568   -1.418273   -1.153870
      3          8           0       -2.087888   -0.824370   -1.071036
      4          6           0       -1.360779   -1.156973   -0.008541
      5          8           0       -1.657242   -1.890111    0.902615
      6          7           0       -0.023361   -0.610924   -0.118664
      7          7           0        0.023361    0.610926    0.118645
      8          6           0        1.360779    1.156975    0.008522
      9          8           0        1.657245    1.890105   -0.902640
     10          8           0        2.087884    0.824381    1.071022
     11          6           0        3.427563    1.418285    1.153856
     12          6           0        4.464484    0.548635    0.494847
     13          6           0        4.794238    0.729322   -0.855205
     14          6           0        5.751279   -0.084958   -1.460634
     15          6           0        6.386491   -1.086968   -0.724046
     16          6           0        6.062280   -1.273887    0.621204
     17          6           0        5.106072   -0.458771    1.226274
     18          6           0       -5.106075    0.458786   -1.226256
     19          6           0       -6.062279    1.273895   -0.621172
     20          6           0       -6.386487    1.086956    0.724077
     21          6           0       -5.751274    0.084935    1.460649
     22          6           0       -4.794236   -0.729337    0.855205
     23          1           0       -3.598427   -1.504207   -2.228189
     24          1           0       -3.383162   -2.411907   -0.704065
     25          1           0        3.598417    1.504232    2.228175
     26          1           0        3.383159    2.411913    0.704039
     27          1           0        4.290002    1.502143   -1.427948
     28          1           0        6.001817    0.063729   -2.507459
     29          1           0        7.133386   -1.719453   -1.196439
     30          1           0        6.554991   -2.051288    1.198747
     31          1           0        4.854614   -0.603903    2.274451
     32          1           0       -4.854619    0.603933   -2.274431
     33          1           0       -6.554991    2.051305   -1.198702
     34          1           0       -7.133381    1.719435    1.196480
     35          1           0       -6.001809   -0.063767    2.507472
     36          1           0       -4.289999   -1.502166    1.427936
 ---------------------------------------------------------------------

 SCF Done:  E(RB3LYP) =  -1028.48264429     a.u. after    1 cycles

 Excitation energies and oscillator strengths:

 Excited State   1:      Singlet-A      2.9382 eV  421.98 nm  f=0.0000  <S**2>=0.000
      74 -> 79         0.32127
      78 -> 79         0.62266
 This state for optimization and/or second-order correction.
 Total Energy, E(TD-HF/TD-DFT) =  -1028.37466813
 Copying the excited state density for this state as the 1-particle RhoCI density.

 Excited State   2:      Singlet-A      4.1469 eV  298.98 nm  f=0.0221  <S**2>=0.000
      75 -> 79         0.38144
      77 -> 79         0.59402

 Excited State   3:      Singlet-A      4.1648 eV  297.69 nm  f=0.0000  <S**2>=0.000
      74 -> 79         0.39152
      76 -> 79         0.53548
      78 -> 79        -0.23856

 Excited State   4:      Singlet-A      4.1873 eV  296.10 nm  f=0.0071  <S**2>=0.000
      75 -> 79         0.59427
      77 -> 79        -0.38205

 Excited State   5:      Singlet-A      4.2006 eV  295.16 nm  f=0.0000  <S**2>=0.000
      74 -> 79         0.48419
      76 -> 79        -0.45932
      78 -> 79        -0.22852

 Excited State   6:      Singlet-A      5.0293 eV  246.52 nm  f=0.1242  <S**2>=0.000
      73 -> 79         0.68785

 Excited State   7:      Singlet-A      5.0982 eV  243.19 nm  f=0.0000  <S**2>=0.000
      70 -> 79         0.20537
      72 -> 79         0.66305

 Excited State   8:      Singlet-A      5.4001 eV  229.60 nm  f=0.0021  <S**2>=0.000
      71 -> 79        -0.21114
      74 -> 82        -0.21371
      75 -> 81        -0.20148
      75 -> 83        -0.24506
      76 -> 80         0.36672
      77 -> 81         0.28831
      77 -> 83        -0.17666
      78 -> 82         0.23655

 Excited State   9:      Singlet-A      5.4006 eV  229.57 nm  f=0.0000  <S**2>=0.000
      74 -> 83        -0.22486
      75 -> 80        -0.23385
      75 -> 82        -0.25050
      76 -> 81         0.36806
      77 -> 80         0.30520
      77 -> 82        -0.19554
      78 -> 83         0.24868

 Excited State  10:      Singlet-A      5.4073 eV  229.29 nm  f=0.0075  <S**2>=0.000
      71 -> 79         0.66226
      76 -> 80         0.11282

 The electronic state is 1-A.
 Alpha  occ. eigenvalues --  -19.21193 -19.21193 -19.15633 -19.15633 -14.42159
 Alpha  occ. eigenvalues --  -14.42108 -10.35176 -10.35175 -10.25862 -10.25862
 Alpha  occ. eigenvalues --  -10.20411 -10.20411 -10.19802 -10.19802 -10.19714
 Alpha  occ. eigenvalues --  -10.19714 -10.19600 -10.19600 -10.19520 -10.19520
 Alpha  occ. eigenvalues --  -10.19460 -10.19460  -1.13690  -1.12437  -1.05511
 Alpha  occ. eigenvalues --   -1.03882  -1.03509  -0.86254  -0.86173  -0.80936
 Alpha  occ. eigenvalues --   -0.78507  -0.76491  -0.74992  -0.74991  -0.71411
 Alpha  occ. eigenvalues --   -0.69589  -0.62132  -0.61354  -0.61254  -0.60207
 Alpha  occ. eigenvalues --   -0.58695  -0.56363  -0.55311  -0.52483  -0.52157
 Alpha  occ. eigenvalues --   -0.50654  -0.49688  -0.49046  -0.47992  -0.47295
 Alpha  occ. eigenvalues --   -0.46721  -0.46677  -0.45017  -0.44214  -0.43172
 Alpha  occ. eigenvalues --   -0.42915  -0.42441  -0.42211  -0.40796  -0.40772
 Alpha  occ. eigenvalues --   -0.39804  -0.37963  -0.37696  -0.36462  -0.36444
 Alpha  occ. eigenvalues --   -0.35956  -0.35950  -0.34510  -0.34508  -0.32042
 Alpha  occ. eigenvalues --   -0.31575  -0.31081  -0.30204  -0.26010  -0.25584
 Alpha  occ. eigenvalues --   -0.25544  -0.25525  -0.24710
 Alpha virt. eigenvalues --   -0.08273  -0.01792  -0.01645  -0.00609  -0.00607
 Alpha virt. eigenvalues --    0.00878   0.01000   0.09021   0.09052   0.11234
 Alpha virt. eigenvalues --    0.11303   0.12211   0.12384   0.13162   0.13252

 Mulliken charges:
               1
     1  C    0.150154
     2  C   -0.156305
     3  O   -0.408266
     4  C    0.736549
     5  O   -0.422193
     6  N   -0.235811
     7  N   -0.235810
     8  C    0.736548
     9  O   -0.422192
    10  O   -0.408265
    11  C   -0.156305
    12  C    0.150154
    13  C   -0.174610
    14  C   -0.129703
    15  C   -0.123617
    16  C   -0.128594
    17  C   -0.166855
    18  C   -0.166855
    19  C   -0.128594
    20  C   -0.123617
    21  C   -0.129703
    22  C   -0.174610
    23  H    0.170614
    24  H    0.183671
    25  H    0.170614
    26  H    0.183671
    27  H    0.160368
    28  H    0.137626
    29  H    0.135730
    30  H    0.136022
    31  H    0.135221
    32  H    0.135221
    33  H    0.136022
    34  H    0.135730
    35  H    0.137626
    36  H    0.160368
 Sum of Mulliken charges =  -0.00000

 Dipole moment (field-independent basis, Debye):
    X=              0.0000    Y=              0.0000    Z=              0.0000  Tot=              0.0000
 Quadrupole moment (field-independent basis, Debye-Ang):
   XX=            -92.7027   YY=           -123.3003   ZZ=           -117.5132
   XY=             -4.7141   XZ=              4.3618   YZ=              5.7425

 Summary of Natural Population Analysis:

                                       Natural Population
                Natural  -----------------------------------------------
    Atom  No    Charge         Core      Valence    Rydberg      Total
 -----------------------------------------------------------------------
      C    1   -0.09156      1.99901     4.07806    0.01449     6.09156
      C    2   -0.12347      1.99912     4.10523    0.01912     6.12347
      O    3   -0.52193      1.99973     6.50992    0.01228     8.52193
      C    4    0.91933      1.99950     3.03088    0.05029     5.08067
      O    5   -0.55653      1.99977     6.53610    0.02066     8.55653
      N    6   -0.21130      1.99938     5.18564    0.02628     7.21130
      N    7   -0.21130      1.99938     5.18564    0.02628     7.21130
      C    8    0.91933      1.99950     3.03088    0.05029     5.08067
      O    9   -0.55653      1.99977     6.53610    0.02066     8.55653
      O   10   -0.52193      1.99973     6.50992    0.01228     8.52193
      C   11   -0.12347      1.99912     4.10523    0.01912     6.12347
      C   12   -0.09156      1.99901     4.07806    0.01449     6.09156
      C   13   -0.21173      1.99903     4.19934    0.01335     6.21173
      C   14   -0.22914      1.99910     4.21620    0.01384     6.22914
      C   15   -0.22256      1.99910     4.20998    0.01347     6.22256
      C   16   -0.23043      1.99910     4.21750    0.01384     6.23043
      C   17   -0.21154      1.99903     4.19934    0.01317     6.21154
      C   18   -0.21154      1.99903     4.19934    0.01317     6.21154
      C   19   -0.23043      1.99910     4.21750    0.01384     6.23043
      C   20   -0.22256      1.99910     4.20998    0.01347     6.22256
      C   21   -0.22914      1.99910     4.21620    0.01384     6.22914
      C   22   -0.21173      1.99903     4.19934    0.01335     6.21173
      H   23    0.24163      0.00000     0.75722    0.00114     0.75837
      H   24    0.24196      0.00000     0.75584    0.00221     0.75804
      H   25    0.24163      0.00000     0.75722    0.00114     0.75837
      H   26    0.24196      0.00000     0.75584    0.00221     0.75804
      H   27    0.25161      0.00000     0.74704    0.00135     0.74839
      H   28    0.24030      0.00000     0.75886    0.00084     0.75970
      H   29    0.23867      0.00000     0.76051    0.00082     0.76133
      H   30    0.23959      0.00000     0.75957    0.00085     0.76041
      H   31    0.23712      0.00000     0.76182    0.00106     0.76288
      H   32    0.23712      0.00000     0.76182    0.00106     0.76288
      H   33    0.23959      0.00000     0.75957    0.00085     0.76041
      H   34    0.23867      0.00000     0.76051    0.00082     0.76133
      H   35    0.24030      0.00000     0.75886    0.00084     0.75970
      H   36    0.25161      0.00000     0.74704    0.00135     0.74839
 =======================================================================
   * Total *   -0.00000     43.98374   111.57814    0.43813   156.00000

 Normal termination of Gaussian 16 at Sat Aug 22 17:52:02 2020.
