 Gaussian 16, Revision A.03,

 ---------------------------------
 # opt=CalcAll B3LYP/6-31G* scf=qc
 ---------------------------------

 -------------------
 Title Card Required
 -------------------
 Symbolic Z-matrix:
 Charge =  0 Multiplicity = 1

 SCF Done:  E(RB3LYP) =  -838.695836085     a.u. after   10 cycles
 SCF Done:  E(RB3LYP) =  -838.718364326     a.u. after   15 cycles
 SCF Done:  E(RB3LYP) =  -838.729578781     a.u. after   19 cycles
 SCF Done:  E(RB3LYP) =  -838.752249253     a.u. after   17 cycles
 SCF Done:  E(RB3LYP) =  -838.760163711     a.u. after   19 cycles
 SCF Done:  E(RB3LYP) =  -838.762725534     a.u. after   13 cycles
 SCF Done:  E(RB3LYP) =  -838.763236050     a.u. after   15 cycles
 SCF Done:  E(RB3LYP) =  -838.763298546     a.u. after    9 cycles
 SCF Done:  E(RB3LYP) =  -838.763303596     a.u. after    5 cycles
 SCF Done:  E(RB3LYP) =  -838.763303691     a.u. after    2 cycles
 Optimization completed.
    -- Stationary point found.
 Normal termination of Gaussian 16 at Sat Aug 22 18:37:51 2020.

 ----------------------------------------------------------------------
 # freq B3LYP/6-31G* scf=qc volume NMR pop=NPA density=current Geom=All
 Check Guess=Read
 ----------------------------------------------------------------------

 Structure from the checkpoint file:  "azadicarboxylate_5_conf32.chk"
 -------------------
 Title Card Required
 -------------------
 Charge =  0 Multiplicity = 1

 SCF Done:  E(RB3LYP) =  -838.763303691     a.u. after    1 cycles

      1  C    Isotropic =    36.1876   Anisotropy =    78.9016

      2  O    Isotropic =     1.5196   Anisotropy =   439.5909

      3  N    Isotropic =  -355.6863   Anisotropy =   733.5141

      4  N    Isotropic =  -355.6687   Anisotropy =   733.4969

      5  C    Isotropic =    36.1884   Anisotropy =    78.9049

      6  O    Isotropic =     1.5231   Anisotropy =   439.5779

      7  N    Isotropic =   147.7178   Anisotropy =    67.2309

      8  C    Isotropic =   146.8769   Anisotropy =    25.8893

      9  C    Isotropic =   162.9264   Anisotropy =     6.6645

     10  C    Isotropic =   164.0873   Anisotropy =     3.7891

     11  C    Isotropic =   163.1584   Anisotropy =     6.6818

     12  C    Isotropic =   145.5416   Anisotropy =    24.4752

     13  N    Isotropic =   147.7220   Anisotropy =    67.2290

     14  C    Isotropic =   145.5421   Anisotropy =    24.4730

     15  C    Isotropic =   163.1585   Anisotropy =     6.6819

     16  C    Isotropic =   164.0873   Anisotropy =     3.7891

     17  C    Isotropic =   162.9265   Anisotropy =     6.6647

     18  C    Isotropic =   146.8774   Anisotropy =    25.8890

     19  H    Isotropic =    27.8457   Anisotropy =     6.2739

     20  H    Isotropic =    29.6060   Anisotropy =     8.0926

     21  H    Isotropic =    30.3978   Anisotropy =     7.2348

     22  H    Isotropic =    30.6545   Anisotropy =     9.3541

     23  H    Isotropic =    30.3846   Anisotropy =     9.4000

     24  H    Isotropic =    30.6706   Anisotropy =     7.7918

     25  H    Isotropic =    30.4461   Anisotropy =     7.1506

     26  H    Isotropic =    30.8208   Anisotropy =     9.2392

     27  H    Isotropic =    28.9553   Anisotropy =     9.6453

     28  H    Isotropic =    29.5165   Anisotropy =     7.6246

     29  H    Isotropic =    28.9555   Anisotropy =     9.6460

     30  H    Isotropic =    29.5166   Anisotropy =     7.6245

     31  H    Isotropic =    30.4461   Anisotropy =     7.1505

     32  H    Isotropic =    30.8209   Anisotropy =     9.2392

     33  H    Isotropic =    30.3847   Anisotropy =     9.4001

     34  H    Isotropic =    30.6706   Anisotropy =     7.7918

     35  H    Isotropic =    30.3978   Anisotropy =     7.2348

     36  H    Isotropic =    30.6546   Anisotropy =     9.3541

     37  H    Isotropic =    27.8457   Anisotropy =     6.2737

     38  H    Isotropic =    29.6060   Anisotropy =     8.0926

  Exact polarizability: 215.829   2.662 150.474   3.490   3.394 113.712
 Approx polarizability: 242.230   9.971 234.928   6.558  12.675 182.348

                      1                      2                      3
                      A                      A                      A
 Frequencies --     13.5769                33.9646                42.5020
 Red. masses --      5.0874                 4.3837                 4.7325
 Frc consts  --      0.0006                 0.0030                 0.0050
 IR Inten    --      3.5194                 2.6658                 0.0000

                      4                      5                      6
                      A                      A                      A
 Frequencies --     49.8918                51.6998                59.2056
 Red. masses --      3.4349                 4.4773                 4.5385
 Frc consts  --      0.0050                 0.0071                 0.0094
 IR Inten    --      2.5797                 0.0000                 2.2675

                      7                      8                      9
                      A                      A                      A
 Frequencies --     81.4428               179.5059               187.2036
 Red. masses --      5.3812                 2.8510                 3.6974
 Frc consts  --      0.0210                 0.0541                 0.0763
 IR Inten    --      0.0000                 0.0000                 4.1167

                     10                     11                     12
                      A                      A                      A
 Frequencies --    207.4202               219.5517               253.6992
 Red. masses --      4.1014                 7.8736                 2.2440
 Frc consts  --      0.1040                 0.2236                 0.0851
 IR Inten    --      5.6868                 0.0000                 0.0000

                     13                     14                     15
                      A                      A                      A
 Frequencies --    262.9832               298.7661               315.8495
 Red. masses --      2.3628                 2.5350                 2.8986
 Frc consts  --      0.0963                 0.1333                 0.1704
 IR Inten    --      3.6417                 0.0000                25.7304

                     16                     17                     18
                      A                      A                      A
 Frequencies --    364.7216               379.6642               390.1224
 Red. masses --      6.0992                 4.0647                 1.7558
 Frc consts  --      0.4780                 0.3452                 0.1574
 IR Inten    --      0.0000                 2.5042                 0.0000

                     19                     20                     21
                      A                      A                      A
 Frequencies --    394.6934               446.9786               451.0156
 Red. masses --      1.9020                 3.3756                 2.9410
 Frc consts  --      0.1746                 0.3973                 0.3525
 IR Inten    --      6.0632                 0.0000                 1.0235

                     22                     23                     24
                      A                      A                      A
 Frequencies --    475.2999               525.3245               536.9866
 Red. masses --      3.3303                 2.0091                 2.3541
 Frc consts  --      0.4433                 0.3267                 0.3999
 IR Inten    --      0.0000                 9.9323                 0.0000

                     25                     26                     27
                      A                      A                      A
 Frequencies --    577.2945               598.4279               626.9288
 Red. masses --      6.2601                 5.0147                 3.5335
 Frc consts  --      1.2292                 1.0581                 0.8183
 IR Inten    --     20.1507                 0.0000                11.0394

                     28                     29                     30
                      A                      A                      A
 Frequencies --    685.5189               747.9752               795.4934
 Red. masses --      3.7247                 5.3673                11.7375
 Frc consts  --      1.0313                 1.7692                 4.3762
 IR Inten    --      0.0000                 3.2774                19.9513

                     31                     32                     33
                      A                      A                      A
 Frequencies --    823.2441               823.7447               836.2745
 Red. masses --      1.5125                 1.4936                 3.2412
 Frc consts  --      0.6039                 0.5971                 1.3355
 IR Inten    --      0.0000                 0.6804                 0.0000

                     34                     35                     36
                      A                      A                      A
 Frequencies --    844.6544               869.7295               869.7600
 Red. masses --      3.0815                 1.4047                 1.3974
 Frc consts  --      1.2953                 0.6261                 0.6228
 IR Inten    --      5.7945                 0.0077                17.8319

                     37                     38                     39
                      A                      A                      A
 Frequencies --    893.9782               912.0652               922.8674
 Red. masses --      3.3200                 2.5228                 3.2231
 Frc consts  --      1.5633                 1.2365                 1.6173
 IR Inten    --      0.0000                 8.5479                 0.0000

                     40                     41                     42
                      A                      A                      A
 Frequencies --    972.2900               976.6454               978.6477
 Red. masses --      2.8018                 1.6951                 1.3450
 Frc consts  --      1.5605                 0.9526                 0.7590
 IR Inten    --      5.0361                 0.0000                 5.9423

                     43                     44                     45
                      A                      A                      A
 Frequencies --    981.7364              1035.1892              1041.6028
 Red. masses --      2.4800                 2.7352                 2.5588
 Frc consts  --      1.4083                 1.7270                 1.6357
 IR Inten    --      0.0000                 0.0000                78.0949

                     46                     47                     48
                      A                      A                      A
 Frequencies --   1049.6153              1056.0374              1084.6344
 Red. masses --      2.1379                 2.2626                 1.7048
 Frc consts  --      1.3877                 1.4866                 1.1816
 IR Inten    --      0.0000                 5.1863                 0.0000

                     49                     50                     51
                      A                      A                      A
 Frequencies --   1084.9026              1156.1370              1159.4275
 Red. masses --      1.7141                 2.2432                 2.1513
 Frc consts  --      1.1887                 1.7666                 1.7039
 IR Inten    --      0.5433                 0.0000                22.3939

                     52                     53                     54
                      A                      A                      A
 Frequencies --   1168.6833              1169.8954              1195.7363
 Red. masses --      1.8652                 1.9975                 1.2473
 Frc consts  --      1.5009                 1.6108                 1.0507
 IR Inten    --      0.0002                97.7109                 2.4950

                     55                     56                     57
                      A                      A                      A
 Frequencies --   1195.7999              1263.4486              1264.2343
 Red. masses --      1.2487                 1.7708                 1.8038
 Frc consts  --      1.0520                 1.6655                 1.6986
 IR Inten    --      0.0006               306.7031                 0.0014

                     58                     59                     60
                      A                      A                      A
 Frequencies --   1288.3661              1293.8969              1301.8962
 Red. masses --      2.2454                 1.7764                 1.2759
 Frc consts  --      2.1959                 1.7522                 1.2741
 IR Inten    --    293.6946                 0.0000                38.4118

                     61                     62                     63
                      A                      A                      A
 Frequencies --   1304.1487              1323.6951              1323.8028
 Red. masses --      1.3965                 1.2078                 1.2033
 Frc consts  --      1.3994                 1.2468                 1.2424
 IR Inten    --      0.0000                 0.0120                39.7964

                     64                     65                     66
                      A                      A                      A
 Frequencies --   1372.6789              1372.7293              1398.4460
 Red. masses --      1.2874                 1.2874                 1.3966
 Frc consts  --      1.4292                 1.4294                 1.6093
 IR Inten    --      0.9809                 0.0002                 0.0000

                     67                     68                     69
                      A                      A                      A
 Frequencies --   1398.5081              1401.7832              1401.9198
 Red. masses --      1.3914                 1.4480                 1.4589
 Frc consts  --      1.6033                 1.6765                 1.6893
 IR Inten    --      3.3451                 0.0000                 5.4014

                     70                     71                     72
                      A                      A                      A
 Frequencies --   1405.7019              1405.7752              1424.5739
 Red. masses --      1.4425                 1.4406                 1.3423
 Frc consts  --      1.6794                 1.6774                 1.6049
 IR Inten    --      8.5206                 0.0019                 0.0001

                     73                     74                     75
                      A                      A                      A
 Frequencies --   1425.7645              1480.7549              1484.8249
 Red. masses --      1.3446                 2.8297                 2.9864
 Frc consts  --      1.6105                 3.6556                 3.8793
 IR Inten    --     17.6749               415.7745                 0.0004

                     76                     77                     78
                      A                      A                      A
 Frequencies --   1507.8009              1507.8031              1514.7439
 Red. masses --      1.0934                 1.0934                 1.0857
 Frc consts  --      1.4647                 1.4646                 1.4677
 IR Inten    --      0.0037                 1.9183                 8.4510

                     79                     80                     81
                      A                      A                      A
 Frequencies --   1514.7452              1518.5348              1518.9874
 Red. masses --      1.0856                 1.0947                 1.0959
 Frc consts  --      1.4676                 1.4873                 1.4899
 IR Inten    --      2.2345                 4.8732                 0.0001

                     82                     83                     84
                      A                      A                      A
 Frequencies --   1519.5018              1519.5697              1534.0240
 Red. masses --      1.0957                 1.0893                 1.1004
 Frc consts  --      1.4906                 1.4819                 1.5257
 IR Inten    --      0.0032                22.3548                 6.2927

                     85                     86                     87
                      A                      A                      A
 Frequencies --   1534.1159              1653.6893              1776.2984
 Red. masses --      1.1016                13.7993                11.6187
 Frc consts  --      1.5275                22.2339                21.5992
 IR Inten    --      0.0000                 0.0000                 0.0000

                     88                     89                     90
                      A                      A                      A
 Frequencies --   1797.9601              3013.8172              3013.8299
 Red. masses --     11.6766                 1.0732                 1.0732
 Frc consts  --     22.2396                 5.7434                 5.7434
 IR Inten    --    845.0033                 0.0046                25.5229

                     91                     92                     93
                      A                      A                      A
 Frequencies --   3017.2023              3017.3363              3025.3791
 Red. masses --      1.0730                 1.0730                 1.0691
 Frc consts  --      5.7554                 5.7556                 5.7654
 IR Inten    --     83.9624                 0.0012                80.8968

                     94                     95                     96
                      A                      A                      A
 Frequencies --   3025.4616              3045.5074              3045.5100
 Red. masses --      1.0692                 1.0609                 1.0609
 Frc consts  --      5.7662                 5.7974                 5.7975
 IR Inten    --      0.0030                53.6565                 0.0003

                     97                     98                     99
                      A                      A                      A
 Frequencies --   3047.5312              3047.5582              3082.0761
 Red. masses --      1.0617                 1.0617                 1.0934
 Frc consts  --      5.8097                 5.8096                 6.1197
 IR Inten    --      0.0221                41.8943               108.1428

                    100                    101                    102
                      A                      A                      A
 Frequencies --   3082.2260              3088.9675              3088.9782
 Red. masses --      1.0933                 1.1037                 1.1036
 Frc consts  --      6.1197                 6.2046                 6.2045
 IR Inten    --      0.0004                 0.0077                65.2469

                    103                    104                    105
                      A                      A                      A
 Frequencies --   3094.1654              3094.2084              3147.2751
 Red. masses --      1.1049                 1.1049                 1.0920
 Frc consts  --      6.2326                 6.2329                 6.3731
 IR Inten    --      0.0113               125.1780                11.9889

                    106                    107                    108
                      A                      A                      A
 Frequencies --   3147.6412              3156.4602              3156.4745
 Red. masses --      1.0921                 1.0916                 1.0916
 Frc consts  --      6.3750                 6.4078                 6.4078
 IR Inten    --      0.0021                 7.3121                 0.1769

 - Thermochemistry -
 -------------------
 Temperature   298.150 Kelvin.  Pressure   1.00000 Atm.
 Atom     1 has atomic number  6 and mass  12.00000

 Molecular mass:   252.15863 amu.
 Principal axes and moments of inertia in atomic units:
                           1         2         3
     Eigenvalues --  1497.57169********************
           X            0.99997   0.00749   0.00039
           Y           -0.00749   0.99995  -0.00723
           Z           -0.00044   0.00723   0.99997
 This molecule is an asymmetric top.
 Rotational symmetry number  1.
 Warning -- assumption of classical behavior for rotation
           may cause significant error
 Rotational temperatures (Kelvin)      0.05784     0.00802     0.00724
 Rotational constants (GHZ):           1.20511     0.16709     0.15087
 Zero-point vibrational energy     864597.0 (Joules/Mol)
                                  206.64365 (Kcal/Mol)
 Warning -- explicit consideration of  26 degrees of freedom as
           vibrations may cause significant error
 Vibrational temperatures:     19.53    48.87    61.15    71.78    74.38
          (Kelvin)             85.18   117.18   258.27   269.34   298.43
                              315.89   365.02   378.37   429.86   454.44
                              524.75   546.25   561.30   567.88   643.10
                              648.91   683.85   755.82   772.60   830.60
                              861.00   902.01   986.31  1076.17  1144.54
                             1184.46  1185.18  1203.21  1215.27  1251.35
                             1251.39  1286.24  1312.26  1327.80  1398.91
                             1405.17  1408.06  1412.50  1489.41  1498.63
                             1510.16  1519.40  1560.55  1560.93  1663.42
                             1668.16  1681.47  1683.22  1720.40  1720.49
                             1817.82  1818.95  1853.67  1861.63  1873.14
                             1876.38  1904.50  1904.66  1974.98  1975.05
                             2012.05  2012.14  2016.85  2017.05  2022.49
                             2022.60  2049.64  2051.36  2130.48  2136.33
                             2169.39  2169.39  2179.38  2179.38  2184.83
                             2185.48  2186.22  2186.32  2207.12  2207.25
                             2379.29  2555.70  2586.86  4336.21  4336.23
                             4341.08  4341.27  4352.85  4352.96  4381.81
                             4381.81  4384.72  4384.76  4434.42  4434.64
                             4444.34  4444.35  4451.81  4451.88  4528.23
                             4528.75  4541.44  4541.46

 Zero-point correction=                           0.329308 (Hartree/Particle)
 Thermal correction to Energy=                    0.346543
 Thermal correction to Enthalpy=                  0.347487
 Thermal correction to Gibbs Free Energy=         0.281092
 Sum of electronic and zero-point Energies=           -838.433996
 Sum of electronic and thermal Energies=              -838.416760
 Sum of electronic and thermal Enthalpies=            -838.415816
 Sum of electronic and thermal Free Energies=         -838.482211

                     E (Thermal)             CV                S
                      KCal/Mol        Cal/Mol-Kelvin    Cal/Mol-Kelvin
 Total                  217.459             64.774            139.740
 Electronic               0.000              0.000              0.000
 Translational            0.889              2.981             42.475
 Rotational               0.889              2.981             33.625
 Vibrational            215.682             58.812             63.640
 Vibration     1          0.593              1.986              7.404
 Vibration     2          0.594              1.983              5.583
 Vibration     3          0.595              1.980              5.139
 Vibration     4          0.595              1.978              4.822
 Vibration     5          0.596              1.977              4.751
 Vibration     6          0.597              1.974              4.483
 Vibration     7          0.600              1.962              3.856
 Vibration     8          0.629              1.867              2.334
 Vibration     9          0.632              1.857              2.255
 Vibration    10          0.641              1.829              2.066
 Vibration    11          0.647              1.811              1.963
 Vibration    12          0.665              1.757              1.705
 Vibration    13          0.670              1.741              1.642
 Vibration    14          0.692              1.676              1.424
 Vibration    15          0.703              1.643              1.332
 Vibration    16          0.738              1.545              1.102
 Vibration    17          0.750              1.514              1.041
 Vibration    18          0.758              1.491              1.000
 Vibration    19          0.762              1.482              0.982
 Vibration    20          0.806              1.368              0.805
 Vibration    21          0.810              1.359              0.793
 Vibration    22          0.832              1.305              0.723
 Vibration    23          0.880              1.194              0.598
 Vibration    24          0.892              1.168              0.572
 Vibration    25          0.934              1.080              0.490
 Vibration    26          0.956              1.035              0.452

 Optimization completed.
    -- Stationary point found.
 Normal termination of Gaussian 16 at Sat Aug 22 18:47:51 2020.
 Gaussian 16:  ES64L-G16RevA.03 25-Dec-2016

 ----------------------------------------------------------------------
 # TD(NStates=10, Root=1) B3LYP/6-31G* scf=qc volume pop=NPA density=cu
 rrent Geom=AllCheck Guess=Read
 ----------------------------------------------------------------------

 Structure from the checkpoint file:  "azadicarboxylate_5_conf33.chk"
 -------------------
 Title Card Required
 -------------------
 Charge =  0 Multiplicity = 1

                         Standard orientation:
 ---------------------------------------------------------------------
 Center     Atomic      Atomic             Coordinates (Angstroms)
 Number     Number       Type             X           Y           Z
 ---------------------------------------------------------------------
      1          6           0       -1.514277    0.958853    0.085775
      2          8           0       -1.295270    2.148313    0.251512
      3          7           0       -0.466528   -0.009865    0.411364
      4          7           0        0.466451    0.010017   -0.410910
      5          6           0        1.514186   -0.958725   -0.085313
      6          8           0        1.295054   -2.148208   -0.250726
      7          7           0        2.692236   -0.389403    0.266636
      8          6           0        3.862754   -1.237741    0.506144
      9          6           0        5.058027   -0.755048   -0.324906
     10          6           0        5.328661    0.739007   -0.089277
     11          6           0        4.061929    1.570118   -0.343580
     12          6           0        2.880240    1.049641    0.485134
     13          7           0       -2.692203    0.389513   -0.266549
     14          6           0       -2.880029   -1.049503   -0.485387
     15          6           0       -4.061810   -1.570274    0.343010
     16          6           0       -5.328578   -0.739227    0.088672
     17          6           0       -5.058126    0.754802    0.324679
     18          6           0       -3.862760    1.237794   -0.506062
     19          1           0        3.579938   -2.262231    0.261176
     20          1           0        4.111103   -1.199121    1.577817
     21          1           0        4.845696   -0.930402   -1.387832
     22          1           0        5.939997   -1.354626   -0.067854
     23          1           0        6.146928    1.085332   -0.731777
     24          1           0        5.659094    0.889015    0.949388
     25          1           0        3.794218    1.523710   -1.407361
     26          1           0        4.233051    2.625239   -0.097913
     27          1           0        1.958488    1.574566    0.230003
     28          1           0        3.070593    1.218012    1.556273
     29          1           0       -1.958270   -1.574395   -0.230209
     30          1           0       -3.070178   -1.217662   -1.556597
     31          1           0       -3.794285   -1.524073    1.406847
     32          1           0       -4.232790   -2.625357    0.097082
     33          1           0       -6.146922   -1.085771    0.730955
     34          1           0       -5.658818   -0.889037   -0.950082
     35          1           0       -4.845993    0.929941    1.387679
     36          1           0       -5.940112    1.354353    0.067611
     37          1           0       -3.580079    2.262256   -0.260816
     38          1           0       -4.110924    1.199391   -1.577786
 ---------------------------------------------------------------------

 SCF Done:  E(RB3LYP) =  -838.763303691     a.u. after    1 cycles

 Excitation energies and oscillator strengths:

 Excited State   1:      Singlet-A      2.6143 eV  474.25 nm  f=0.0000  <S**2>=0.000
      66 -> 69         0.10190
      68 -> 69         0.69568
 This state for optimization and/or second-order correction.
 Total Energy, E(TD-HF/TD-DFT) =  -838.667229855
 Copying the excited state density for this state as the 1-particle RhoCI density.

 Excited State   2:      Singlet-A      3.8373 eV  323.11 nm  f=0.0000  <S**2>=0.000
      66 -> 69         0.69850

 Excited State   3:      Singlet-A      3.8420 eV  322.71 nm  f=0.0054  <S**2>=0.000
      67 -> 69         0.70258

 Excited State   4:      Singlet-A      4.3213 eV  286.91 nm  f=0.0372  <S**2>=0.000
      65 -> 69         0.69390

 Excited State   5:      Singlet-A      4.9883 eV  248.55 nm  f=0.0000  <S**2>=0.000
      64 -> 69         0.68327
      68 -> 70        -0.11668

 Excited State   6:      Singlet-A      5.7585 eV  215.31 nm  f=0.0624  <S**2>=0.000
      65 -> 70        -0.18550
      68 -> 71         0.66774

 Excited State   7:      Singlet-A      5.8121 eV  213.32 nm  f=0.0000  <S**2>=0.000
      64 -> 69         0.13354
      65 -> 71        -0.18643
      68 -> 70         0.65568

 Excited State   8:      Singlet-A      6.3564 eV  195.05 nm  f=0.0041  <S**2>=0.000
      59 -> 69        -0.25229
      61 -> 69        -0.33691
      63 -> 69         0.54625

 Excited State   9:      Singlet-A      6.4500 eV  192.22 nm  f=0.0000  <S**2>=0.000
      60 -> 69        -0.13037
      62 -> 69         0.69125

 Excited State  10:      Singlet-A      6.4564 eV  192.03 nm  f=0.0460  <S**2>=0.000
      59 -> 69         0.27880
      61 -> 69         0.45315
      63 -> 69         0.44301

 The electronic state is 1-A.
 Alpha  occ. eigenvalues --  -19.12058 -19.12058 -14.40289 -14.40238 -14.37102
 Alpha  occ. eigenvalues --  -14.37102 -10.30828 -10.30828 -10.22641 -10.22641
 Alpha  occ. eigenvalues --  -10.22163 -10.22163 -10.19170 -10.19170 -10.19158
 Alpha  occ. eigenvalues --  -10.19158 -10.19126 -10.19126  -1.08170  -1.04536
 Alpha  occ. eigenvalues --   -1.00731  -0.94838  -0.94694  -0.81215  -0.80580
 Alpha  occ. eigenvalues --   -0.77502  -0.76845  -0.74974  -0.69168  -0.66835
 Alpha  occ. eigenvalues --   -0.64272  -0.63569  -0.60227  -0.58719  -0.55485
 Alpha  occ. eigenvalues --   -0.54440  -0.53059  -0.49334  -0.47879  -0.47607
 Alpha  occ. eigenvalues --   -0.46684  -0.46381  -0.45362  -0.44893  -0.43986
 Alpha  occ. eigenvalues --   -0.43871  -0.43078  -0.42845  -0.41774  -0.41306
 Alpha  occ. eigenvalues --   -0.39995  -0.39639  -0.38477  -0.37977  -0.36311
 Alpha  occ. eigenvalues --   -0.36115  -0.36039  -0.34425  -0.33965  -0.33418
 Alpha  occ. eigenvalues --   -0.33258  -0.33003  -0.32872  -0.29754  -0.26812
 Alpha  occ. eigenvalues --   -0.24592  -0.24477  -0.22314
 Alpha virt. eigenvalues --   -0.06905   0.03440   0.03489   0.08904   0.08904
 Alpha virt. eigenvalues --    0.10939   0.11009   0.12638   0.12827   0.14020
 Alpha virt. eigenvalues --    0.14302   0.14494   0.14542   0.15627   0.15867

 Mulliken charges:
               1
     1  C    0.700768
     2  O   -0.468471
     3  N   -0.281279
     4  N   -0.281288
     5  C    0.700787
     6  O   -0.468476
     7  N   -0.404803
     8  C   -0.148016
     9  C   -0.264481
    10  C   -0.269328
    11  C   -0.263916
    12  C   -0.149020
    13  N   -0.404789
    14  C   -0.149027
    15  C   -0.263915
    16  C   -0.269328
    17  C   -0.264481
    18  C   -0.148016
    19  H    0.190291
    20  H    0.147042
    21  H    0.148400
    22  H    0.142588
    23  H    0.142528
    24  H    0.132884
    25  H    0.147782
    26  H    0.144366
    27  H    0.207643
    28  H    0.145013
    29  H    0.207651
    30  H    0.145011
    31  H    0.147784
    32  H    0.144366
    33  H    0.142528
    34  H    0.132883
    35  H    0.148401
    36  H    0.142588
    37  H    0.190290
    38  H    0.147041
 Sum of Mulliken charges =  -0.00000

 Dipole moment (field-independent basis, Debye):
    X=              0.0003    Y=             -0.0001    Z=             -0.0012  Tot=              0.0012
 Quadrupole moment (field-independent basis, Debye-Ang):
   XX=            -75.5559   YY=           -115.9593   ZZ=           -106.2935
   XY=              4.2997   XZ=              3.3911   YZ=             -1.6521

 Summary of Natural Population Analysis:

                                       Natural Population
                Natural  -----------------------------------------------
    Atom  No    Charge         Core      Valence    Rydberg      Total
 -----------------------------------------------------------------------
      C    1    0.79567      1.99934     3.15822    0.04676     5.20433
      O    2   -0.57188      1.99979     6.55353    0.01856     8.57188
      N    3   -0.24952      1.99941     5.22389    0.02622     7.24952
      N    4   -0.24954      1.99941     5.22391    0.02622     7.24954
      C    5    0.79567      1.99934     3.15823    0.04676     5.20433
      O    6   -0.57188      1.99979     6.55353    0.01856     8.57188
      N    7   -0.47116      1.99928     5.45900    0.01288     7.47116
      C    8   -0.25924      1.99932     4.24372    0.01620     6.25924
      C    9   -0.47141      1.99932     4.46068    0.01141     6.47141
      C   10   -0.46519      1.99933     4.45433    0.01154     6.46519
      C   11   -0.47064      1.99932     4.45982    0.01150     6.47064
      C   12   -0.26142      1.99930     4.24605    0.01606     6.26142
      N   13   -0.47116      1.99928     5.45900    0.01288     7.47116
      C   14   -0.26142      1.99930     4.24606    0.01606     6.26142
      C   15   -0.47064      1.99932     4.45982    0.01150     6.47064
      C   16   -0.46519      1.99933     4.45433    0.01154     6.46519
      C   17   -0.47141      1.99932     4.46068    0.01141     6.47141
      C   18   -0.25924      1.99932     4.24372    0.01620     6.25924
      H   19    0.26763      0.00000     0.73035    0.00202     0.73237
      H   20    0.22462      0.00000     0.77335    0.00202     0.77538
      H   21    0.23641      0.00000     0.76172    0.00188     0.76359
      H   22    0.24547      0.00000     0.75340    0.00113     0.75453
      H   23    0.24433      0.00000     0.75455    0.00111     0.75567
      H   24    0.22658      0.00000     0.77147    0.00195     0.77342
      H   25    0.23597      0.00000     0.76196    0.00206     0.76403
      H   26    0.24634      0.00000     0.75256    0.00110     0.75366
      H   27    0.27381      0.00000     0.72383    0.00236     0.72619
      H   28    0.22363      0.00000     0.77408    0.00229     0.77637
      H   29    0.27381      0.00000     0.72383    0.00236     0.72619
      H   30    0.22363      0.00000     0.77408    0.00229     0.77637
      H   31    0.23597      0.00000     0.76196    0.00206     0.76403
      H   32    0.24634      0.00000     0.75256    0.00110     0.75366
      H   33    0.24433      0.00000     0.75455    0.00111     0.75567
      H   34    0.22658      0.00000     0.77147    0.00195     0.77342
      H   35    0.23641      0.00000     0.76172    0.00188     0.76359
      H   36    0.24547      0.00000     0.75340    0.00113     0.75453
      H   37    0.26763      0.00000     0.73035    0.00202     0.73237
      H   38    0.22462      0.00000     0.77335    0.00202     0.77538
 =======================================================================
   * Total *    0.00000     35.98882    99.63306    0.37812   136.00000

 Normal termination of Gaussian 16 at Sat Aug 22 18:59:28 2020.
