 Gaussian 16, Revision A.03,

 ---------------------------------
 # opt=CalcAll B3LYP/6-31G* scf=qc
 ---------------------------------

 -------------------
 Title Card Required
 -------------------
 Symbolic Z-matrix:
 Charge =  0 Multiplicity = 1

 SCF Done:  E(RB3LYP) =  -723.607442449     a.u. after    9 cycles
 SCF Done:  E(RB3LYP) =  -723.638868175     a.u. after   21 cycles
 SCF Done:  E(RB3LYP) =  -723.644740198     a.u. after   17 cycles
 SCF Done:  E(RB3LYP) =  -723.645578511     a.u. after   13 cycles
 SCF Done:  E(RB3LYP) =  -723.645635356     a.u. after   13 cycles
 SCF Done:  E(RB3LYP) =  -723.644898116     a.u. after   21 cycles
 SCF Done:  E(RB3LYP) =  -723.645658732     a.u. after   10 cycles
 SCF Done:  E(RB3LYP) =  -723.645697812     a.u. after   13 cycles
 SCF Done:  E(RB3LYP) =  -723.645723749     a.u. after   15 cycles
 SCF Done:  E(RB3LYP) =  -723.645730996     a.u. after    9 cycles
 SCF Done:  E(RB3LYP) =  -723.645732050     a.u. after    5 cycles
 SCF Done:  E(RB3LYP) =  -723.645733052     a.u. after    9 cycles
 SCF Done:  E(RB3LYP) =  -723.645733438     a.u. after    6 cycles
 SCF Done:  E(RB3LYP) =  -723.645733470     a.u. after    3 cycles
 Optimization completed.
    -- Stationary point found.
 Normal termination of Gaussian 16 at Sat Aug 22 14:27:24 2020.

 ----------------------------------------------------------------------
 # freq B3LYP/6-31G* scf=qc volume NMR pop=NPA density=current Geom=All
 Check Guess=Read
 ----------------------------------------------------------------------

 Structure from the checkpoint file:  "azadicarboxylate_2_conf252.chk"
 -------------------
 Title Card Required
 -------------------
 Charge =  0 Multiplicity = 1

 SCF Done:  E(RB3LYP) =  -723.645733470     a.u. after    1 cycles

      1  C    Isotropic =   169.6083   Anisotropy =    27.8532

      2  C    Isotropic =   113.4267   Anisotropy =    72.0323

      3  C    Isotropic =   170.6310   Anisotropy =    27.5410

      4  O    Isotropic =   139.6095   Anisotropy =   141.0696

      5  C    Isotropic =    35.4615   Anisotropy =    80.2756

      6  O    Isotropic =   -27.4295   Anisotropy =   483.6534

      7  N    Isotropic =  -318.0654   Anisotropy =   663.4148

      8  N    Isotropic =  -318.0641   Anisotropy =   663.4142

      9  C    Isotropic =    35.4616   Anisotropy =    80.2783

     10  O    Isotropic =   -27.4294   Anisotropy =   483.6555

     11  O    Isotropic =   139.6095   Anisotropy =   141.0670

     12  C    Isotropic =   113.4269   Anisotropy =    72.0322

     13  C    Isotropic =   169.6084   Anisotropy =    27.8533

     14  C    Isotropic =   170.6311   Anisotropy =    27.5407

     15  H    Isotropic =    31.2053   Anisotropy =     8.5158

     16  H    Isotropic =    29.7441   Anisotropy =     5.3579

     17  H    Isotropic =    30.7058   Anisotropy =     8.1155

     18  H    Isotropic =    27.6554   Anisotropy =     4.3234

     19  H    Isotropic =    29.6056   Anisotropy =     5.5882

     20  H    Isotropic =    31.1616   Anisotropy =     8.3637

     21  H    Isotropic =    30.6470   Anisotropy =     8.1622

     22  H    Isotropic =    27.6555   Anisotropy =     4.3234

     23  H    Isotropic =    29.7442   Anisotropy =     5.3579

     24  H    Isotropic =    30.7058   Anisotropy =     8.1155

     25  H    Isotropic =    31.2054   Anisotropy =     8.5158

     26  H    Isotropic =    29.6056   Anisotropy =     5.5883

     27  H    Isotropic =    31.1616   Anisotropy =     8.3637

     28  H    Isotropic =    30.6470   Anisotropy =     8.1622

  Exact polarizability: 152.667  -0.001  94.196  -3.103  -0.001  89.527
 Approx polarizability: 173.851  -0.003 156.808  -9.040  -0.008 126.731

                      1                      2                      3
                      A                      A                      A
 Frequencies --     11.9962                32.2491                48.6674
 Red. masses --      4.0073                 3.7891                 4.7290
 Frc consts  --      0.0003                 0.0023                 0.0066
 IR Inten    --      0.0516                 1.2412                 1.1405

                      4                      5                      6
                      A                      A                      A
 Frequencies --     55.3290                61.3335               110.9030
 Red. masses --      6.9940                 4.7774                 3.6604
 Frc consts  --      0.0126                 0.0106                 0.0265
 IR Inten    --      0.6151                 0.0955                 0.6632

                      7                      8                      9
                      A                      A                      A
 Frequencies --    112.4108               179.6526               195.7143
 Red. masses --      3.4040                 3.9438                 6.9285
 Frc consts  --      0.0253                 0.0750                 0.1564
 IR Inten    --      0.0040                 1.1634                 5.7783

                     10                     11                     12
                      A                      A                      A
 Frequencies --    208.0651               231.7439               231.8372
 Red. masses --      5.7069                 1.0935                 1.0973
 Frc consts  --      0.1456                 0.0346                 0.0348
 IR Inten    --      4.5890                 0.0004                 0.1589

                     13                     14                     15
                      A                      A                      A
 Frequencies --    246.5835               250.4342               251.3728
 Red. masses --      6.0750                 1.0597                 1.1237
 Frc consts  --      0.2176                 0.0392                 0.0418
 IR Inten    --      4.5668                 0.0424                 0.5056

                     16                     17                     18
                      A                      A                      A
 Frequencies --    313.3397               358.0000               407.6244
 Red. masses --      3.2518                 2.4626                 3.4739
 Frc consts  --      0.1881                 0.1860                 0.3401
 IR Inten    --      1.4402                 1.1050                13.6454

                     19                     20                     21
                      A                      A                      A
 Frequencies --    414.9762               430.1541               474.5680
 Red. masses --      3.6020                 3.7988                 3.5300
 Frc consts  --      0.3655                 0.4141                 0.4684
 IR Inten    --      0.6251                11.6078                29.5159

                     22                     23                     24
                      A                      A                      A
 Frequencies --    483.8928               573.7515               619.8007
 Red. masses --      2.9630                 9.1329                 5.6882
 Frc consts  --      0.4088                 1.7714                 1.2875
 IR Inten    --      0.3700                 1.2678                 1.0287

                     25                     26                     27
                      A                      A                      A
 Frequencies --    654.6586               791.5173               809.2789
 Red. masses --      4.3843                 5.7772                 4.6143
 Frc consts  --      1.1071                 2.1325                 1.7806
 IR Inten    --      3.5517                39.1228                 1.1170

                     28                     29                     30
                      A                      A                      A
 Frequencies --    815.1241               856.3886               907.0917
 Red. masses --     10.8616                 6.4113                 3.2342
 Frc consts  --      4.2520                 2.7704                 1.5679
 IR Inten    --     32.1506                 0.9121                41.4034

                     31                     32                     33
                      A                      A                      A
 Frequencies --    923.3864               950.0055               950.0584
 Red. masses --      3.2784                 1.2760                 1.2760
 Frc consts  --      1.6469                 0.6785                 0.6786
 IR Inten    --      0.1664                 0.0386                 2.6734

                     34                     35                     36
                      A                      A                      A
 Frequencies --    957.2051               957.3491               962.0453
 Red. masses --      1.3409                 1.3178                 4.0785
 Frc consts  --      0.7239                 0.7116                 2.2240
 IR Inten    --      1.1776                 0.0353                 4.2545

                     37                     38                     39
                      A                      A                      A
 Frequencies --    989.2827              1166.5219              1169.4696
 Red. masses --      6.7936                 1.9929                 1.9120
 Frc consts  --      3.9173                 1.5978                 1.5407
 IR Inten    --     10.2180               275.5374                32.4200

                     40                     41                     42
                      A                      A                      A
 Frequencies --   1171.6486              1171.8460              1218.7859
 Red. masses --      2.1536                 2.1275                 1.9282
 Frc consts  --      1.7418                 1.7213                 1.6875
 IR Inten    --     23.3663                 2.2940                 8.5868

                     43                     44                     45
                      A                      A                      A
 Frequencies --   1219.0746              1237.1901              1283.1407
 Red. masses --      1.9358                 5.6132                 5.4741
 Frc consts  --      1.6950                 5.0621                 5.3102
 IR Inten    --      7.1952              1121.7900               205.6890

                     46                     47                     48
                      A                      A                      A
 Frequencies --   1391.4236              1391.4480              1419.4836
 Red. masses --      1.3201                 1.3202                 1.2785
 Frc consts  --      1.5058                 1.5060                 1.5178
 IR Inten    --      0.2668                 6.3310                23.1380

                     49                     50                     51
                      A                      A                      A
 Frequencies --   1420.9923              1430.5835              1430.6246
 Red. masses --      1.3211                 1.3284                 1.3281
 Frc consts  --      1.5717                 1.6017                 1.6015
 IR Inten    --     12.5307                 1.2983                36.3089

                     52                     53                     54
                      A                      A                      A
 Frequencies --   1444.7092              1445.0224              1511.1369
 Red. masses --      1.2418                 1.2409                 1.0481
 Frc consts  --      1.5271                 1.5266                 1.4102
 IR Inten    --     30.8611                 5.2466                 0.0110

                     55                     56                     57
                      A                      A                      A
 Frequencies --   1511.1916              1522.1786              1522.3822
 Red. masses --      1.0482                 1.0467                 1.0471
 Frc consts  --      1.4103                 1.4289                 1.4298
 IR Inten    --      0.2459                10.1007                22.7504

                     58                     59                     60
                      A                      A                      A
 Frequencies --   1526.8498              1526.9021              1546.8193
 Red. masses --      1.0485                 1.0484                 1.0538
 Frc consts  --      1.4401                 1.4402                 1.4856
 IR Inten    --      0.1063                 0.0879                12.6084

                     61                     62                     63
                      A                      A                      A
 Frequencies --   1546.9003              1654.7209              1833.2973
 Red. masses --      1.0540                13.9758                12.0952
 Frc consts  --      1.4860                22.5464                23.9514
 IR Inten    --      1.6928                 0.2212                65.5719

                     64                     65                     66
                      A                      A                      A
 Frequencies --   1850.3360              3062.4020              3062.4161
 Red. masses --     12.0609                 1.0374                 1.0374
 Frc consts  --     24.3294                 5.7323                 5.7324
 IR Inten    --    466.7268                 1.2305                30.9179

                     67                     68                     69
                      A                      A                      A
 Frequencies --   3066.4787              3066.5421              3095.3431
 Red. masses --      1.0383                 1.0383                 1.0866
 Frc consts  --      5.7525                 5.7526                 6.1337
 IR Inten    --     21.7001                 0.7425                 2.8878

                     70                     71                     72
                      A                      A                      A
 Frequencies --   3095.4835              3127.1848              3127.2299
 Red. masses --      1.0866                 1.1016                 1.1016
 Frc consts  --      6.1343                 6.3472                 6.3474
 IR Inten    --     36.7590                 0.7482                23.7993

                     73                     74                     75
                      A                      A                      A
 Frequencies --   3129.9839              3130.0751              3162.2917
 Red. masses --      1.1020                 1.1019                 1.1021
 Frc consts  --      6.3606                 6.3608                 6.4935
 IR Inten    --     63.0800                 0.6514                 0.3080

                     76                     77                     78
                      A                      A                      A
 Frequencies --   3162.2968              3166.8876              3166.9759
 Red. masses --      1.1021                 1.1010                 1.1010
 Frc consts  --      6.4935                 6.5059                 6.5062
 IR Inten    --      3.5031                 3.0681                35.8247

 - Thermochemistry -
 -------------------
 Temperature   298.150 Kelvin.  Pressure   1.00000 Atm.
 Atom     1 has atomic number  6 and mass  12.00000

 Molecular mass:   202.09536 amu.
 Principal axes and moments of inertia in atomic units:
                           1         2         3
     Eigenvalues --   988.076257253.756397349.93991
           X            0.99999   0.00000   0.00392
           Y           -0.00000   1.00000   0.00019
           Z           -0.00392  -0.00019   0.99999
 This molecule is an asymmetric top.
 Rotational symmetry number  1.
 Warning -- assumption of classical behavior for rotation
           may cause significant error
 Rotational temperatures (Kelvin)      0.08766     0.01194     0.01178
 Rotational constants (GHZ):           1.82652     0.24880     0.24555
 Zero-point vibrational energy     598216.9 (Joules/Mol)
                                  142.97728 (Kcal/Mol)
 Warning -- explicit consideration of  24 degrees of freedom as
           vibrations may cause significant error
 Vibrational temperatures:     17.26    46.40    70.02    79.61    88.25
          (Kelvin)            159.56   161.73   258.48   281.59   299.36
                              333.43   333.56   354.78   360.32   361.67
                              450.83   515.08   586.48   597.06   618.90
                              682.80   696.21   825.50   891.75   941.91
                             1138.82  1164.37  1172.78  1232.15  1305.10
                             1328.55  1366.85  1366.92  1377.20  1377.41
                             1384.17  1423.36  1678.36  1682.61  1685.74
                             1686.02  1753.56  1753.98  1780.04  1846.15
                             2001.95  2001.98  2042.32  2044.49  2058.29
                             2058.35  2078.61  2079.06  2174.19  2174.27
                             2190.08  2190.37  2196.80  2196.87  2225.53
                             2225.64  2380.77  2637.71  2662.22  4406.11
                             4406.13  4411.98  4412.07  4453.51  4453.71
                             4499.32  4499.39  4503.35  4503.48  4549.83
                             4549.84  4556.44  4556.57

 Zero-point correction=                           0.227849 (Hartree/Particle)
 Thermal correction to Energy=                    0.244017
 Thermal correction to Enthalpy=                  0.244961
 Thermal correction to Gibbs Free Energy=         0.181533
 Sum of electronic and zero-point Energies=           -723.417885
 Sum of electronic and thermal Energies=              -723.401716
 Sum of electronic and thermal Enthalpies=            -723.400772
 Sum of electronic and thermal Free Energies=         -723.464201

                     E (Thermal)             CV                S
                      KCal/Mol        Cal/Mol-Kelvin    Cal/Mol-Kelvin
 Total                  153.123             56.275            133.497
 Electronic               0.000              0.000              0.000
 Translational            0.889              2.981             41.815
 Rotational               0.889              2.981             32.332
 Vibrational            151.346             50.313             59.349
 Vibration     1          0.593              1.987              7.649
 Vibration     2          0.594              1.983              5.686
 Vibration     3          0.595              1.978              4.871
 Vibration     4          0.596              1.975              4.617
 Vibration     5          0.597              1.973              4.414
 Vibration     6          0.607              1.940              3.253
 Vibration     7          0.607              1.939              3.227
 Vibration     8          0.629              1.867              2.332
 Vibration     9          0.636              1.846              2.173
 Vibration    10          0.641              1.828              2.061
 Vibration    11          0.653              1.792              1.865
 Vibration    12          0.653              1.792              1.865
 Vibration    13          0.661              1.768              1.755
 Vibration    14          0.663              1.762              1.728
 Vibration    15          0.663              1.760              1.721
 Vibration    16          0.701              1.648              1.345
 Vibration    17          0.733              1.559              1.131
 Vibration    18          0.772              1.454              0.935
 Vibration    19          0.778              1.438              0.909
 Vibration    20          0.791              1.405              0.858
 Vibration    21          0.831              1.306              0.725
 Vibration    22          0.840              1.286              0.700
 Vibration    23          0.930              1.088              0.497
 Vibration    24          0.980              0.990              0.417

 Optimization completed.
    -- Stationary point found.
 Normal termination of Gaussian 16 at Sat Aug 22 14:31:48 2020.
 Gaussian 16:  ES64L-G16RevA.03 25-Dec-2016

 ----------------------------------------------------------------------
 # TD(NStates=10, Root=1) B3LYP/6-31G* scf=qc volume pop=NPA density=cu
 rrent Geom=AllCheck Guess=Read
 ----------------------------------------------------------------------

 Structure from the checkpoint file:  "azadicarboxylate_2_conf253.chk"
 -------------------
 Title Card Required
 -------------------
 Charge =  0 Multiplicity = 1

                         Standard orientation:
 ---------------------------------------------------------------------
 Center     Atomic      Atomic             Coordinates (Angstroms)
 Number     Number       Type             X           Y           Z
 ---------------------------------------------------------------------
      1          6           0       -4.202095    0.152993   -1.383857
      2          6           0       -3.665846    0.903621   -0.169508
      3          6           0       -4.417644    0.630856    1.129100
      4          8           0       -2.218337    0.676933   -0.004182
      5          6           0       -1.767124   -0.540120    0.276960
      6          8           0       -2.378367   -1.568844    0.426600
      7          7           0       -0.336482   -0.481544    0.523791
      8          7           0        0.336494   -0.481885   -0.523575
      9          6           0        1.767136   -0.540296   -0.276693
     10          8           0        2.378391   -1.569102   -0.425719
     11          8           0        2.218332    0.676926    0.003743
     12          6           0        3.665829    0.903723    0.169007
     13          6           0        4.202021    0.153815    1.383826
     14          6           0        4.417698    0.630203   -1.129400
     15          1           0       -5.225394    0.486917   -1.589419
     16          1           0       -4.213986   -0.925322   -1.211435
     17          1           0       -3.591142    0.365423   -2.267060
     18          1           0       -3.679561    1.977681   -0.374845
     19          1           0       -4.430615   -0.435167    1.365774
     20          1           0       -5.451501    0.978696    1.024524
     21          1           0       -3.959334    1.175387    1.961094
     22          1           0        3.679526    1.977904    0.373713
     23          1           0        4.213933   -0.924600    1.212039
     24          1           0        3.591017    0.366759    2.266870
     25          1           0        5.225306    0.487870    1.589248
     26          1           0        4.430685   -0.435958   -1.365449
     27          1           0        5.451548    0.978107   -1.024973
     28          1           0        3.959430    1.174244   -1.961738
 ---------------------------------------------------------------------

 SCF Done:  E(RB3LYP) =  -723.645733470     a.u. after    1 cycles

 Excitation energies and oscillator strengths:

 Excited State   1:      Singlet-A      2.9397 eV  421.76 nm  f=0.0039  <S**2>=0.000
      53 -> 55        -0.11092
      54 -> 55         0.69819
 This state for optimization and/or second-order correction.
 Total Energy, E(TD-HF/TD-DFT) =  -723.537703120
 Copying the excited state density for this state as the 1-particle RhoCI density.

 Excited State   2:      Singlet-A      5.0004 eV  247.95 nm  f=0.0597  <S**2>=0.000
      53 -> 55         0.68691
      54 -> 55         0.10621

 Excited State   3:      Singlet-A      5.0989 eV  243.16 nm  f=0.0004  <S**2>=0.000
      52 -> 55         0.69299

 Excited State   4:      Singlet-A      5.4462 eV  227.65 nm  f=0.0037  <S**2>=0.000
      51 -> 55         0.70295

 Excited State   5:      Singlet-A      5.4527 eV  227.38 nm  f=0.0018  <S**2>=0.000
      50 -> 55         0.70132

 Excited State   6:      Singlet-A      5.5834 eV  222.06 nm  f=0.0000  <S**2>=0.000
      52 -> 57        -0.16881
      53 -> 56         0.10272
      54 -> 56         0.66802

 Excited State   7:      Singlet-A      5.6427 eV  219.73 nm  f=0.0177  <S**2>=0.000
      52 -> 56        -0.16591
      54 -> 57         0.67622

 Excited State   8:      Singlet-A      6.5772 eV  188.51 nm  f=0.0107  <S**2>=0.000
      45 -> 55        -0.12929
      47 -> 55        -0.10409
      49 -> 55         0.67431

 Excited State   9:      Singlet-A      6.6275 eV  187.08 nm  f=0.0000  <S**2>=0.000
      44 -> 55        -0.17270
      48 -> 55         0.66239

 Excited State  10:      Singlet-A      6.7558 eV  183.52 nm  f=0.0217  <S**2>=0.000
      52 -> 56         0.48674
      53 -> 57        -0.46050
      54 -> 57         0.18196

 The electronic state is 1-A.
 Alpha  occ. eigenvalues --  -19.20738 -19.20738 -19.15225 -19.15224 -14.41802
 Alpha  occ. eigenvalues --  -14.41751 -10.34936 -10.34935 -10.26501 -10.26501
 Alpha  occ. eigenvalues --  -10.18831 -10.18831 -10.18736 -10.18736  -1.13252
 Alpha  occ. eigenvalues --   -1.11970  -1.05161  -1.03606  -1.03223  -0.82140
 Alpha  occ. eigenvalues --   -0.80449  -0.76237  -0.70389  -0.70386  -0.66947
 Alpha  occ. eigenvalues --   -0.64194  -0.58464  -0.52647  -0.51959  -0.50818
 Alpha  occ. eigenvalues --   -0.50186  -0.49314  -0.47958  -0.46807  -0.45947
 Alpha  occ. eigenvalues --   -0.44617  -0.43215  -0.42785  -0.41768  -0.40948
 Alpha  occ. eigenvalues --   -0.40468  -0.39358  -0.38883  -0.37727  -0.37350
 Alpha  occ. eigenvalues --   -0.36448  -0.36411  -0.35430  -0.35222  -0.31397
 Alpha  occ. eigenvalues --   -0.31382  -0.30169  -0.30021  -0.24442
 Alpha virt. eigenvalues --   -0.07704   0.00690   0.01136   0.08647   0.08653
 Alpha virt. eigenvalues --    0.10569   0.10671   0.13696   0.13858   0.14801
 Alpha virt. eigenvalues --    0.14816   0.15657   0.15707   0.17154   0.17383

 Mulliken charges:
               1
     1  C   -0.470193
     2  C    0.129872
     3  C   -0.471655
     4  O   -0.432625
     5  C    0.737034
     6  O   -0.415364
     7  N   -0.243329
     8  N   -0.243330
     9  C    0.737033
    10  O   -0.415367
    11  O   -0.432626
    12  C    0.129873
    13  C   -0.470194
    14  C   -0.471654
    15  H    0.152308
    16  H    0.188018
    17  H    0.164051
    18  H    0.156876
    19  H    0.187785
    20  H    0.154483
    21  H    0.162744
    22  H    0.156875
    23  H    0.188017
    24  H    0.164051
    25  H    0.152308
    26  H    0.187785
    27  H    0.154482
    28  H    0.162743
 Sum of Mulliken charges =  -0.00000

 Dipole moment (field-independent basis, Debye):
    X=             -0.0001    Y=              3.8512    Z=             -0.0010  Tot=              3.8512
 Quadrupole moment (field-independent basis, Debye-Ang):
   XX=            -57.5270   YY=            -88.2741   ZZ=            -80.4437
   XY=              0.0010   XZ=              2.8823   YZ=              0.0023

 Summary of Natural Population Analysis:

                                       Natural Population
                Natural  -----------------------------------------------
    Atom  No    Charge         Core      Valence    Rydberg      Total
 -----------------------------------------------------------------------
      C    1   -0.70929      1.99939     4.70192    0.00798     6.70929
      C    2    0.08488      1.99912     3.89773    0.01827     5.91512
      C    3   -0.71036      1.99939     4.70287    0.00810     6.71036
      O    4   -0.53324      1.99972     6.52152    0.01199     8.53324
      C    5    0.92025      1.99951     3.02795    0.05229     5.07975
      O    6   -0.54536      1.99977     6.52511    0.02049     8.54536
      N    7   -0.22599      1.99939     5.19991    0.02669     7.22599
      N    8   -0.22599      1.99939     5.19991    0.02669     7.22599
      C    9    0.92025      1.99951     3.02795    0.05229     5.07975
      O   10   -0.54537      1.99977     6.52511    0.02049     8.54537
      O   11   -0.53324      1.99972     6.52152    0.01199     8.53324
      C   12    0.08488      1.99912     3.89773    0.01827     5.91512
      C   13   -0.70929      1.99939     4.70192    0.00798     6.70929
      C   14   -0.71036      1.99939     4.70287    0.00810     6.71036
      H   15    0.24048      0.00000     0.75878    0.00075     0.75952
      H   16    0.25250      0.00000     0.74615    0.00135     0.74750
      H   17    0.24367      0.00000     0.75527    0.00106     0.75633
      H   18    0.24524      0.00000     0.75307    0.00168     0.75476
      H   19    0.25207      0.00000     0.74646    0.00146     0.74793
      H   20    0.24231      0.00000     0.75696    0.00073     0.75769
      H   21    0.24283      0.00000     0.75611    0.00106     0.75717
      H   22    0.24524      0.00000     0.75307    0.00168     0.75476
      H   23    0.25250      0.00000     0.74615    0.00135     0.74750
      H   24    0.24367      0.00000     0.75527    0.00106     0.75633
      H   25    0.24048      0.00000     0.75878    0.00075     0.75952
      H   26    0.25207      0.00000     0.74646    0.00146     0.74793
      H   27    0.24231      0.00000     0.75696    0.00073     0.75769
      H   28    0.24283      0.00000     0.75611    0.00106     0.75717
 =======================================================================
   * Total *   -0.00000     27.99259    79.69964    0.30778   108.00000

 Normal termination of Gaussian 16 at Sat Aug 22 14:36:58 2020.
