 Gaussian 16, Revision A.03,

 ---------------------------------
 # opt=CalcAll B3LYP/6-31G* scf=qc
 ---------------------------------

 -------------------
 Title Card Required
 -------------------
 Symbolic Z-matrix:
 Charge =  0 Multiplicity = 1

 SCF Done:  E(RB3LYP) =  -802.246784869     a.u. after    9 cycles
 SCF Done:  E(RB3LYP) =  -802.270563182     a.u. after   25 cycles
 SCF Done:  E(RB3LYP) =  -802.279050811     a.u. after   23 cycles
 SCF Done:  E(RB3LYP) =  -802.280454892     a.u. after   19 cycles
 SCF Done:  E(RB3LYP) =  -802.280610200     a.u. after   13 cycles
 SCF Done:  E(RB3LYP) =  -802.280616532     a.u. after    7 cycles
 SCF Done:  E(RB3LYP) =  -802.280617222     a.u. after    5 cycles
 SCF Done:  E(RB3LYP) =  -802.280617475     a.u. after    5 cycles
 Optimization completed.
    -- Stationary point found.
 Normal termination of Gaussian 16 at Sat Aug 22 13:57:10 2020.

 ----------------------------------------------------------------------
 # freq B3LYP/6-31G* scf=qc volume NMR pop=NPA density=current Geom=All
 Check Guess=Read
 ----------------------------------------------------------------------

 Structure from the checkpoint file:  "azadicarboxylate_1_conf52.chk"
 -------------------
 Title Card Required
 -------------------
 Charge =  0 Multiplicity = 1

 SCF Done:  E(RB3LYP) =  -802.280617475     a.u. after    1 cycles

      1  C    Isotropic =   164.2362   Anisotropy =    35.9507

      2  C    Isotropic =   106.2398   Anisotropy =    74.8533

      3  C    Isotropic =   165.3005   Anisotropy =    35.5112

      4  C    Isotropic =   159.5611   Anisotropy =    41.0474

      5  O    Isotropic =   126.5898   Anisotropy =   126.9833

      6  C    Isotropic =    35.3561   Anisotropy =    80.5496

      7  O    Isotropic =   -25.0058   Anisotropy =   483.8950

      8  N    Isotropic =  -317.3109   Anisotropy =   661.6669

      9  N    Isotropic =  -317.3192   Anisotropy =   661.6726

     10  C    Isotropic =    35.3551   Anisotropy =    80.5351

     11  O    Isotropic =   -25.0042   Anisotropy =   483.8734

     12  O    Isotropic =   126.5893   Anisotropy =   126.9977

     13  C    Isotropic =   106.2395   Anisotropy =    74.8534

     14  C    Isotropic =   164.2360   Anisotropy =    35.9509

     15  C    Isotropic =   159.5610   Anisotropy =    41.0475

     16  C    Isotropic =   165.3000   Anisotropy =    35.5115

     17  H    Isotropic =    31.1103   Anisotropy =     7.9638

     18  H    Isotropic =    30.8439   Anisotropy =     7.3204

     19  H    Isotropic =    29.5106   Anisotropy =     6.4613

     20  H    Isotropic =    31.0600   Anisotropy =     7.7983

     21  H    Isotropic =    29.3733   Anisotropy =     6.6755

     22  H    Isotropic =    30.8011   Anisotropy =     7.3539

     23  H    Isotropic =    31.1252   Anisotropy =     7.5229

     24  H    Isotropic =    30.6943   Anisotropy =     7.1284

     25  H    Isotropic =    30.7173   Anisotropy =     7.2818

     26  H    Isotropic =    30.8439   Anisotropy =     7.3204

     27  H    Isotropic =    29.5106   Anisotropy =     6.4612

     28  H    Isotropic =    31.1103   Anisotropy =     7.9638

     29  H    Isotropic =    30.7173   Anisotropy =     7.2817

     30  H    Isotropic =    31.1252   Anisotropy =     7.5229

     31  H    Isotropic =    30.6943   Anisotropy =     7.1285

     32  H    Isotropic =    29.3733   Anisotropy =     6.6754

     33  H    Isotropic =    30.8010   Anisotropy =     7.3539

     34  H    Isotropic =    31.0600   Anisotropy =     7.7983

  Exact polarizability: 172.568   0.001 121.217  -3.957  -0.001 106.948
 Approx polarizability: 204.054   0.003 185.780 -10.216  -0.002 156.562

                      1                      2                      3
                      A                      A                      A
 Frequencies --      9.1729                31.2681                39.8490
 Red. masses --      3.7805                 3.6772                 4.3775
 Frc consts  --      0.0002                 0.0021                 0.0041
 IR Inten    --      0.0492                 1.1919                 0.7857

                      4                      5                      6
                      A                      A                      A
 Frequencies --     51.1111                57.1507               108.9710
 Red. masses --      6.1120                 4.4457                 4.4146
 Frc consts  --      0.0094                 0.0086                 0.0309
 IR Inten    --      0.6108                 0.0139                 0.9663

                      7                      8                      9
                      A                      A                      A
 Frequencies --    110.7425               179.9368               183.1463
 Red. masses --      4.0107                 4.0451                 5.3146
 Frc consts  --      0.0290                 0.0772                 0.1050
 IR Inten    --      0.0045                 1.0645                 5.4386

                     10                     11                     12
                      A                      A                      A
 Frequencies --    201.7233               206.6022               207.3040
 Red. masses --      3.9802                 1.0498                 1.1677
 Frc consts  --      0.0954                 0.0264                 0.0296
 IR Inten    --      1.6494                 0.0040                 0.0493

                     13                     14                     15
                      A                      A                      A
 Frequencies --    230.3512               255.0017               255.8142
 Red. masses --      6.7321                 1.0428                 1.0379
 Frc consts  --      0.2105                 0.0400                 0.0400
 IR Inten    --      1.6742                 0.0612                 0.0126

                     16                     17                     18
                      A                      A                      A
 Frequencies --    269.4212               269.8309               314.2302
 Red. masses --      1.0698                 1.0770                 3.0162
 Frc consts  --      0.0458                 0.0462                 0.1755
 IR Inten    --      0.0002                 0.0730                 1.6796

                     19                     20                     21
                      A                      A                      A
 Frequencies --    317.5388               326.0114               347.2346
 Red. masses --      3.0542                 4.0728                 2.5590
 Frc consts  --      0.1814                 0.2550                 0.1818
 IR Inten    --      5.7775                15.5563                 0.2152

                     22                     23                     24
                      A                      A                      A
 Frequencies --    352.4261               398.9116               427.2416
 Red. masses --      2.5604                 2.7117                 2.7316
 Frc consts  --      0.1874                 0.2542                 0.2938
 IR Inten    --      2.8851                 0.3247                 2.4322

                     25                     26                     27
                      A                      A                      A
 Frequencies --    439.7443               460.6793               464.2229
 Red. masses --      2.8471                 3.1226                 2.9610
 Frc consts  --      0.3244                 0.3904                 0.3760
 IR Inten    --      2.4211                14.9484                 0.1565

                     28                     29                     30
                      A                      A                      A
 Frequencies --    469.4806               575.0138               605.7436
 Red. masses --      3.2520                 5.5103                 9.7042
 Frc consts  --      0.4223                 1.0735                 2.0979
 IR Inten    --     17.3474                 3.3473                 0.7003

                     31                     32                     33
                      A                      A                      A
 Frequencies --    623.0678               760.4084               769.4507
 Red. masses --      6.4945                 5.3313                 4.7276
 Frc consts  --      1.4855                 1.8163                 1.6491
 IR Inten    --      4.4400                24.0687                 0.4378

                     34                     35                     36
                      A                      A                      A
 Frequencies --    814.2185               845.6034               856.9883
 Red. masses --     11.7696                 3.6496                 4.4481
 Frc consts  --      4.5972                 1.5376                 1.9248
 IR Inten    --     31.8622                82.4176                 0.8312

                     37                     38                     39
                      A                      A                      A
 Frequencies --    867.5324               936.6940               936.8247
 Red. masses --      7.3719                 1.6320                 1.6308
 Frc consts  --      3.2689                 0.8437                 0.8433
 IR Inten    --      2.0199                 0.0007                 0.2459

                     40                     41                     42
                      A                      A                      A
 Frequencies --    937.5597               938.8953               969.0885
 Red. masses --      1.6270                 1.6341                 7.9306
 Frc consts  --      0.8426                 0.8487                 4.3881
 IR Inten    --      0.0672                 0.0438                 1.9956

                     43                     44                     45
                      A                      A                      A
 Frequencies --    984.4804               984.5111               993.4686
 Red. masses --      1.2014                 1.1991                 9.7310
 Frc consts  --      0.6860                 0.6848                 5.6587
 IR Inten    --      0.0070                 0.2763                16.0793

                     46                     47                     48
                      A                      A                      A
 Frequencies --   1066.2905              1066.3073              1073.0087
 Red. masses --      1.4087                 1.4088                 1.4577
 Frc consts  --      0.9437                 0.9437                 0.9889
 IR Inten    --      0.7601                 0.0078                 2.7727

                     49                     50                     51
                      A                      A                      A
 Frequencies --   1073.4306              1189.8419              1213.4835
 Red. masses --      1.4641                 2.7201                 2.1996
 Frc consts  --      0.9940                 2.2689                 1.9084
 IR Inten    --      2.6725               968.7051               119.3071

                     52                     53                     54
                      A                      A                      A
 Frequencies --   1273.0249              1286.1019              1286.1801
 Red. masses --      4.5575                 2.7328                 2.7269
 Frc consts  --      4.3516                 2.6632                 2.6578
 IR Inten    --    417.4564                 0.0606                31.3898

                     55                     56                     57
                      A                      A                      A
 Frequencies --   1295.3700              1302.2443              1310.5746
 Red. masses --      3.3999                 2.9611                 5.7161
 Frc consts  --      3.3613                 2.9586                 5.7846
 IR Inten    --    144.2854                72.4222                80.3472

                     58                     59                     60
                      A                      A                      A
 Frequencies --   1427.4829              1427.5227              1429.9059
 Red. masses --      1.2711                 1.2710                 1.2785
 Frc consts  --      1.5260                 1.5261                 1.5402
 IR Inten    --      0.9850                33.6301                17.8842

                     61                     62                     63
                      A                      A                      A
 Frequencies --   1430.2623              1455.2827              1455.6542
 Red. masses --      1.2815                 1.2310                 1.2308
 Frc consts  --      1.5446                 1.5361                 1.5366
 IR Inten    --     17.7713                24.1041                 1.7807

                     64                     65                     66
                      A                      A                      A
 Frequencies --   1500.2234              1500.2411              1518.5540
 Red. masses --      1.0461                 1.0461                 1.0461
 Frc consts  --      1.3872                 1.3873                 1.4213
 IR Inten    --      0.0577                 0.8003                 0.3178

                     67                     68                     69
                      A                      A                      A
 Frequencies --   1518.9769              1520.2142              1520.3532
 Red. masses --      1.0462                 1.0511                 1.0511
 Frc consts  --      1.4222                 1.4313                 1.4315
 IR Inten    --      0.7144                 0.0174                 0.9446

                     70                     71                     72
                      A                      A                      A
 Frequencies --   1526.0510              1526.3389              1532.2940
 Red. masses --      1.0630                 1.0627                 1.0531
 Frc consts  --      1.4585                 1.4588                 1.4568
 IR Inten    --     12.6391                11.0131                 0.2194

                     73                     74                     75
                      A                      A                      A
 Frequencies --   1532.3443              1554.2512              1554.3425
 Red. masses --      1.0531                 1.0543                 1.0541
 Frc consts  --      1.4569                 1.5005                 1.5005
 IR Inten    --      2.9422                22.4124                 0.0039

                     76                     77                     78
                      A                      A                      A
 Frequencies --   1653.2343              1829.8637              1846.5638
 Red. masses --     13.9854                12.4035                12.4138
 Frc consts  --     22.5212                24.4699                24.9393
 IR Inten    --      0.5649                59.6197               508.9378

                     79                     80                     81
                      A                      A                      A
 Frequencies --   3060.0437              3060.0646              3061.4511
 Red. masses --      1.0354                 1.0355                 1.0375
 Frc consts  --      5.7126                 5.7127                 5.7294
 IR Inten    --      3.7295                10.8602                 2.6095

                     82                     83                     84
                      A                      A                      A
 Frequencies --   3061.4661              3068.3317              3068.4514
 Red. masses --      1.0375                 1.0378                 1.0377
 Frc consts  --      5.7295                 5.7564                 5.7566
 IR Inten    --     33.1984                19.7471                13.2064

                     85                     86                     87
                      A                      A                      A
 Frequencies --   3124.9890              3125.0197              3126.7154
 Red. masses --      1.1025                 1.1025                 1.1025
 Frc consts  --      6.3436                 6.3437                 6.3505
 IR Inten    --      0.3781                13.5706                21.4313

                     88                     89                     90
                      A                      A                      A
 Frequencies --   3126.7617              3137.8572              3137.9942
 Red. masses --      1.1025                 1.1027                 1.1027
 Frc consts  --      6.3506                 6.3969                 6.3977
 IR Inten    --      0.2935                79.3719                 1.1350

                     91                     92                     93
                      A                      A                      A
 Frequencies --   3138.8400              3138.8497              3165.4854
 Red. masses --      1.1032                 1.1033                 1.1010
 Frc consts  --      6.4037                 6.4043                 6.5001
 IR Inten    --      1.0124                54.0154                 0.6959

                     94                     95                     96
                      A                      A                      A
 Frequencies --   3165.4858              3168.5713              3168.6235
 Red. masses --      1.1010                 1.1003                 1.1003
 Frc consts  --      6.5001                 6.5088                 6.5090
 IR Inten    --      1.9212                 2.3494                21.5714

 - Thermochemistry -
 -------------------
 Temperature   298.150 Kelvin.  Pressure   1.00000 Atm.
 Atom     1 has atomic number  6 and mass  12.00000

 Molecular mass:   230.12666 amu.
 Principal axes and moments of inertia in atomic units:
                           1         2         3
     Eigenvalues --  1610.698418645.208189306.80722
           X            0.99999  -0.00000   0.00412
           Y            0.00000   1.00000   0.00000
           Z           -0.00412  -0.00000   0.99999
 This molecule is an asymmetric top.
 Rotational symmetry number  1.
 Warning -- assumption of classical behavior for rotation
           may cause significant error
 Rotational temperatures (Kelvin)      0.05377     0.01002     0.00931
 Rotational constants (GHZ):           1.12047     0.20876     0.19392
 Zero-point vibrational energy     742794.2 (Joules/Mol)
                                  177.53206 (Kcal/Mol)
 Warning -- explicit consideration of  30 degrees of freedom as
           vibrations may cause significant error
 Vibrational temperatures:     13.20    44.99    57.33    73.54    82.23
          (Kelvin)            156.78   159.33   258.89   263.51   290.23
                              297.25   298.26   331.42   366.89   368.06
                              387.64   388.23   452.11   456.87   469.06
                              499.59   507.06   573.94   614.71   632.69
                              662.81   667.91   675.48   827.32   871.53
                              896.46  1094.06  1107.07  1171.48  1216.63
                             1233.02  1248.19  1347.69  1347.88  1348.94
                             1350.86  1394.30  1416.45  1416.49  1429.38
                             1534.15  1534.18  1543.82  1544.43  1711.92
                             1745.93  1831.60  1850.41  1850.53  1863.75
                             1873.64  1885.62  2053.83  2053.89  2057.32
                             2057.83  2093.83  2094.36  2158.49  2158.51
                             2184.86  2185.47  2187.25  2187.45  2195.65
                             2196.06  2204.63  2204.70  2236.22  2236.35
                             2378.64  2632.77  2656.79  4402.72  4402.75
                             4404.75  4404.77  4414.64  4414.82  4496.16
                             4496.21  4498.65  4498.71  4514.68  4514.87
                             4516.09  4516.10  4554.43  4554.43  4558.87
                             4558.94

 Zero-point correction=                           0.282915 (Hartree/Particle)
 Thermal correction to Energy=                    0.301829
 Thermal correction to Enthalpy=                  0.302774
 Thermal correction to Gibbs Free Energy=         0.233786
 Sum of electronic and zero-point Energies=           -801.997702
 Sum of electronic and thermal Energies=              -801.978788
 Sum of electronic and thermal Enthalpies=            -801.977844
 Sum of electronic and thermal Free Energies=         -802.046831

                     E (Thermal)             CV                S
                      KCal/Mol        Cal/Mol-Kelvin    Cal/Mol-Kelvin
 Total                  189.401             68.278            145.196
 Electronic               0.000              0.000              0.000
 Translational            0.889              2.981             42.202
 Rotational               0.889              2.981             33.227
 Vibrational            187.623             62.316             69.767
 Vibration     1          0.593              1.987              8.183
 Vibration     2          0.594              1.983              5.747
 Vibration     3          0.594              1.981              5.267
 Vibration     4          0.595              1.977              4.774
 Vibration     5          0.596              1.975              4.553
 Vibration     6          0.606              1.942              3.287
 Vibration     7          0.607              1.941              3.256
 Vibration     8          0.629              1.867              2.329
 Vibration     9          0.631              1.863              2.296
 Vibration    10          0.639              1.837              2.117
 Vibration    11          0.641              1.830              2.073
 Vibration    12          0.641              1.829              2.067
 Vibration    13          0.652              1.795              1.876
 Vibration    14          0.665              1.754              1.696
 Vibration    15          0.666              1.753              1.690
 Vibration    16          0.674              1.729              1.600
 Vibration    17          0.674              1.729              1.597
 Vibration    18          0.702              1.647              1.340
 Vibration    19          0.704              1.640              1.323
 Vibration    20          0.710              1.623              1.280
 Vibration    21          0.725              1.581              1.179
 Vibration    22          0.729              1.570              1.155
 Vibration    23          0.765              1.472              0.967
 Vibration    24          0.789              1.411              0.868
 Vibration    25          0.800              1.384              0.827
 Vibration    26          0.819              1.337              0.764
 Vibration    27          0.822              1.329              0.754
 Vibration    28          0.827              1.318              0.739
 Vibration    29          0.931              1.085              0.495
 Vibration    30          0.964              1.020              0.440

 Optimization completed on the basis of negligible forces.
    -- Stationary point found.
 Normal termination of Gaussian 16 at Sat Aug 22 14:02:03 2020.
 Gaussian 16:  ES64L-G16RevA.03 25-Dec-2016

 ----------------------------------------------------------------------
 # TD(NStates=10, Root=1) B3LYP/6-31G* scf=qc volume pop=NPA density=cu
 rrent Geom=AllCheck Guess=Read
 ----------------------------------------------------------------------

 Structure from the checkpoint file:  "azadicarboxylate_1_conf53.chk"
 -------------------
 Title Card Required
 -------------------
 Charge =  0 Multiplicity = 1

                         Standard orientation:
 ---------------------------------------------------------------------
 Center     Atomic      Atomic             Coordinates (Angstroms)
 Number     Number       Type             X           Y           Z
 ---------------------------------------------------------------------
      1          6           0        4.227956    0.209086    1.263586
      2          6           0        3.673938   -0.602964    0.090685
      3          6           0        4.375753   -0.285437   -1.231682
      4          6           0        3.705350   -2.101796    0.389814
      5          8           0        2.215031   -0.337406   -0.046359
      6          6           0        1.760005    0.877498   -0.324311
      7          8           0        2.362723    1.907940   -0.498162
      8          7           0        0.322145    0.818605   -0.532677
      9          7           0       -0.322081    0.818363    0.532656
     10          6           0       -1.759940    0.877398    0.324324
     11          8           0       -2.362587    1.907871    0.498240
     12          8           0       -2.215055   -0.337463    0.046327
     13          6           0       -3.673981   -0.602918   -0.090697
     14          6           0       -4.227975    0.209226   -1.263546
     15          6           0       -3.705500   -2.101732   -0.389899
     16          6           0       -4.375745   -0.285409    1.231702
     17          1           0        5.270493   -0.076842    1.441897
     18          1           0        3.657285    0.001991    2.174991
     19          1           0        4.190499    1.280386    1.058182
     20          1           0        5.426649   -0.587957   -1.165177
     21          1           0        4.334979    0.781527   -1.458145
     22          1           0        3.913689   -0.842045   -2.054034
     23          1           0        4.740816   -2.433817    0.518290
     24          1           0        3.257554   -2.670636   -0.431116
     25          1           0        3.152408   -2.325000    1.307582
     26          1           0       -3.657339    0.002139   -2.174974
     27          1           0       -4.190445    1.280514   -1.058091
     28          1           0       -5.270534   -0.076628   -1.441848
     29          1           0       -3.152598   -2.324928   -1.307694
     30          1           0       -4.740991   -2.433680   -0.518364
     31          1           0       -3.257719   -2.670642    0.430990
     32          1           0       -4.334894    0.781542    1.458215
     33          1           0       -3.913698   -0.842087    2.054015
     34          1           0       -5.426662   -0.587856    1.165206
 ---------------------------------------------------------------------

 SCF Done:  E(RB3LYP) =  -802.280617475     a.u. after    1 cycles

 Excitation energies and oscillator strengths:

 Excited State   1:      Singlet-A      2.9389 eV  421.87 nm  f=0.0036  <S**2>=0.000
      61 -> 63        -0.10923
      62 -> 63         0.69837
 This state for optimization and/or second-order correction.
 Total Energy, E(TD-HF/TD-DFT) =  -802.172614145
 Copying the excited state density for this state as the 1-particle RhoCI density.

 Excited State   2:      Singlet-A      5.0011 eV  247.91 nm  f=0.0624  <S**2>=0.000
      61 -> 63         0.68627
      62 -> 63         0.10475

 Excited State   3:      Singlet-A      5.1099 eV  242.64 nm  f=0.0004  <S**2>=0.000
      60 -> 63         0.69246

 Excited State   4:      Singlet-A      5.4396 eV  227.93 nm  f=0.0037  <S**2>=0.000
      59 -> 63         0.70142

 Excited State   5:      Singlet-A      5.4465 eV  227.64 nm  f=0.0020  <S**2>=0.000
      58 -> 63         0.70002

 Excited State   6:      Singlet-A      5.5857 eV  221.97 nm  f=0.0000  <S**2>=0.000
      60 -> 65        -0.16616
      61 -> 64         0.10078
      62 -> 64         0.66904

 Excited State   7:      Singlet-A      5.6468 eV  219.57 nm  f=0.0177  <S**2>=0.000
      60 -> 64        -0.16288
      62 -> 65         0.67690

 Excited State   8:      Singlet-A      6.5189 eV  190.19 nm  f=0.0135  <S**2>=0.000
      53 -> 63        -0.15932
      55 -> 63         0.13755
      57 -> 63         0.66264

 Excited State   9:      Singlet-A      6.5688 eV  188.75 nm  f=0.0000  <S**2>=0.000
      52 -> 63         0.20611
      54 -> 63        -0.11890
      56 -> 63         0.65065

 Excited State  10:      Singlet-A      6.7620 eV  183.35 nm  f=0.0199  <S**2>=0.000
      60 -> 64         0.48267
      61 -> 65        -0.46445
      62 -> 65         0.17855

 The electronic state is 1-A.
 Alpha  occ. eigenvalues --  -19.20338 -19.20338 -19.15012 -19.15012 -14.41551
 Alpha  occ. eigenvalues --  -14.41500 -10.34723 -10.34722 -10.27020 -10.27020
 Alpha  occ. eigenvalues --  -10.18845 -10.18845 -10.18495 -10.18495 -10.18398
 Alpha  occ. eigenvalues --  -10.18398  -1.12927  -1.11604  -1.04835  -1.03371
 Alpha  occ. eigenvalues --   -1.03005  -0.83305  -0.82209  -0.76551  -0.70418
 Alpha  occ. eigenvalues --   -0.70401  -0.70249  -0.70249  -0.65487  -0.61729
 Alpha  occ. eigenvalues --   -0.56803  -0.52159  -0.51936  -0.50406  -0.48738
 Alpha  occ. eigenvalues --   -0.48081  -0.47768  -0.46344  -0.45587  -0.45488
 Alpha  occ. eigenvalues --   -0.43903  -0.42849  -0.42564  -0.42250  -0.41079
 Alpha  occ. eigenvalues --   -0.40132  -0.39698  -0.38778  -0.38648  -0.37768
 Alpha  occ. eigenvalues --   -0.37727  -0.36898  -0.36669  -0.35725  -0.35672
 Alpha  occ. eigenvalues --   -0.34859  -0.34675  -0.31081  -0.31066  -0.29972
 Alpha  occ. eigenvalues --   -0.29779  -0.24198
 Alpha virt. eigenvalues --   -0.07474   0.00933   0.01392   0.07858   0.07902
 Alpha virt. eigenvalues --    0.09058   0.09119   0.14061   0.14067   0.14659
 Alpha virt. eigenvalues --    0.14697   0.15624   0.15635   0.16081   0.16143

 Mulliken charges:
               1
     1  C   -0.467575
     2  C    0.295159
     3  C   -0.469071
     4  C   -0.452164
     5  O   -0.447831
     6  C    0.741761
     7  O   -0.419344
     8  N   -0.244550
     9  N   -0.244547
    10  C    0.741763
    11  O   -0.419324
    12  O   -0.447823
    13  C    0.295155
    14  C   -0.467575
    15  C   -0.452164
    16  C   -0.469072
    17  H    0.149117
    18  H    0.158279
    19  H    0.187307
    20  H    0.151439
    21  H    0.186988
    22  H    0.156825
    23  H    0.150633
    24  H    0.160795
    25  H    0.162214
    26  H    0.158280
    27  H    0.187306
    28  H    0.149118
    29  H    0.162215
    30  H    0.150634
    31  H    0.160796
    32  H    0.186987
    33  H    0.156826
    34  H    0.151441
 Sum of Mulliken charges =  -0.00000

 Dipole moment (field-independent basis, Debye):
    X=             -0.0005    Y=             -4.2900    Z=              0.0000  Tot=              4.2900
 Quadrupole moment (field-independent basis, Debye-Ang):
   XX=            -70.8857   YY=           -103.2210   ZZ=            -93.6784
   XY=             -0.0010   XZ=              2.6573   YZ=              0.0001

 Summary of Natural Population Analysis:

                                       Natural Population
                Natural  -----------------------------------------------
    Atom  No    Charge         Core      Valence    Rydberg      Total
 -----------------------------------------------------------------------
      C    1   -0.70333      1.99932     4.69491    0.00911     6.70333
      C    2    0.27913      1.99900     3.70317    0.01870     5.72087
      C    3   -0.70429      1.99932     4.69575    0.00922     6.70429
      C    4   -0.68657      1.99932     4.67703    0.01022     6.68657
      O    5   -0.54286      1.99970     6.53008    0.01309     8.54286
      C    6    0.92559      1.99951     3.02310    0.05180     5.07441
      O    7   -0.54698      1.99976     6.52681    0.02041     8.54698
      N    8   -0.22660      1.99939     5.20057    0.02664     7.22660
      N    9   -0.22660      1.99939     5.20057    0.02664     7.22660
      C   10    0.92560      1.99951     3.02308    0.05180     5.07440
      O   11   -0.54697      1.99976     6.52679    0.02041     8.54697
      O   12   -0.54286      1.99970     6.53007    0.01309     8.54286
      C   13    0.27913      1.99900     3.70317    0.01870     5.72087
      C   14   -0.70333      1.99932     4.69491    0.00911     6.70333
      C   15   -0.68657      1.99932     4.67703    0.01022     6.68657
      C   16   -0.70430      1.99932     4.69575    0.00922     6.70430
      H   17    0.23965      0.00000     0.75958    0.00077     0.76035
      H   18    0.24138      0.00000     0.75750    0.00112     0.75862
      H   19    0.25803      0.00000     0.74073    0.00123     0.74197
      H   20    0.24159      0.00000     0.75766    0.00074     0.75841
      H   21    0.25750      0.00000     0.74113    0.00136     0.74250
      H   22    0.24045      0.00000     0.75843    0.00112     0.75955
      H   23    0.23911      0.00000     0.76021    0.00068     0.76089
      H   24    0.24366      0.00000     0.75527    0.00106     0.75634
      H   25    0.24454      0.00000     0.75441    0.00106     0.75546
      H   26    0.24138      0.00000     0.75750    0.00112     0.75862
      H   27    0.25803      0.00000     0.74073    0.00123     0.74197
      H   28    0.23965      0.00000     0.75958    0.00077     0.76035
      H   29    0.24454      0.00000     0.75441    0.00106     0.75546
      H   30    0.23911      0.00000     0.76021    0.00068     0.76089
      H   31    0.24366      0.00000     0.75527    0.00106     0.75634
      H   32    0.25750      0.00000     0.74114    0.00136     0.74250
      H   33    0.24045      0.00000     0.75843    0.00112     0.75955
      H   34    0.24160      0.00000     0.75766    0.00074     0.75840
 =======================================================================
   * Total *    0.00000     31.99065    91.67264    0.33671   124.00000

 Normal termination of Gaussian 16 at Sat Aug 22 14:08:30 2020.
