 Gaussian 16, Revision A.03,

 ---------------------------------
 # opt=CalcAll B3LYP/6-31G* scf=qc
 ---------------------------------

 -------------------
 Title Card Required
 -------------------
 Symbolic Z-matrix:
 Charge =  0 Multiplicity = 1

 SCF Done:  E(RB3LYP) =  -1947.63775177     a.u. after    9 cycles
 SCF Done:  E(RB3LYP) =  -1947.66380546     a.u. after   21 cycles
 SCF Done:  E(RB3LYP) =  -1947.66942244     a.u. after   23 cycles
 SCF Done:  E(RB3LYP) =  -1947.67145118     a.u. after   19 cycles
 SCF Done:  E(RB3LYP) =  -1947.67227024     a.u. after   17 cycles
 SCF Done:  E(RB3LYP) =  -1947.66657964     a.u. after   21 cycles
 SCF Done:  E(RB3LYP) =  -1947.67178822     a.u. after   15 cycles
 SCF Done:  E(RB3LYP) =  -1947.67280209     a.u. after   11 cycles
 SCF Done:  E(RB3LYP) =  -1947.67339139     a.u. after   13 cycles
 SCF Done:  E(RB3LYP) =  -1947.67341019     a.u. after   11 cycles
 SCF Done:  E(RB3LYP) =  -1947.67341407     a.u. after    7 cycles
 SCF Done:  E(RB3LYP) =  -1947.67341408     a.u. after    2 cycles
 Optimization completed.
    -- Stationary point found.
 Normal termination of Gaussian 16 at Sat Aug 22 16:47:11 2020.

 ----------------------------------------------------------------------
 # freq B3LYP/6-31G* scf=qc volume NMR pop=NPA density=current Geom=All
 Check Guess=Read
 ----------------------------------------------------------------------

 Structure from the checkpoint file:  "azadicarboxylate_3_conf202.chk"
 -------------------
 Title Card Required
 -------------------
 Charge =  0 Multiplicity = 1

 SCF Done:  E(RB3LYP) =  -1947.67341408     a.u. after    1 cycles

      1  C    Isotropic =    63.7907   Anisotropy =   172.1793

      2  C    Isotropic =   121.7008   Anisotropy =    40.6619

      3  O    Isotropic =   143.3246   Anisotropy =   138.3101

      4  C    Isotropic =    34.6982   Anisotropy =    75.7508

      5  O    Isotropic =   -19.6677   Anisotropy =   492.1849

      6  N    Isotropic =  -326.2528   Anisotropy =   677.8680

      7  N    Isotropic =  -321.4179   Anisotropy =   672.0163

      8  C    Isotropic =    34.8670   Anisotropy =    85.6971

      9  O    Isotropic =   -21.3047   Anisotropy =   493.3303

     10  O    Isotropic =   142.2107   Anisotropy =   140.2941

     11  C    Isotropic =   121.5230   Anisotropy =    40.2511

     12  C    Isotropic =    63.8111   Anisotropy =   171.9828

     13  C    Isotropic =    64.2365   Anisotropy =   152.2336

     14  C    Isotropic =    67.4810   Anisotropy =   141.1946

     15  C    Isotropic =    51.2150   Anisotropy =   111.3479

     16  C    Isotropic =    66.7008   Anisotropy =   142.6282

     17  C    Isotropic =    62.7597   Anisotropy =   159.8181

     18  Cl   Isotropic =   718.0196   Anisotropy =   454.4664

     19  C    Isotropic =    64.1919   Anisotropy =   152.3518

     20  C    Isotropic =    67.3561   Anisotropy =   141.1810

     21  C    Isotropic =    51.1125   Anisotropy =   111.4104

     22  C    Isotropic =    66.6451   Anisotropy =   142.5922

     23  C    Isotropic =    62.6801   Anisotropy =   158.9517

     24  Cl   Isotropic =   717.9246   Anisotropy =   454.3983

     25  H    Isotropic =    26.4542   Anisotropy =     2.9796

     26  H    Isotropic =    27.7528   Anisotropy =     5.5005

     27  H    Isotropic =    26.4988   Anisotropy =     3.0119

     28  H    Isotropic =    27.6985   Anisotropy =     5.2178

     29  H    Isotropic =    25.0860   Anisotropy =     6.2777

     30  H    Isotropic =    25.1741   Anisotropy =     6.8115

     31  H    Isotropic =    25.1075   Anisotropy =     7.1216

     32  H    Isotropic =    24.4660   Anisotropy =     7.7203

     33  H    Isotropic =    25.0030   Anisotropy =     6.3055

     34  H    Isotropic =    25.0996   Anisotropy =     6.8532

     35  H    Isotropic =    25.0446   Anisotropy =     7.1500

     36  H    Isotropic =    24.3734   Anisotropy =     7.3388

  Exact polarizability: 201.561  15.949 237.089  12.872  -2.448 186.751
 Approx polarizability: 240.883  31.340 365.629  27.168   1.373 341.025

                      1                      2                      3
                      A                      A                      A
 Frequencies --      3.9273                 9.0659                21.8408
 Red. masses --      7.0655                13.1046                 6.7724
 Frc consts  --      0.0001                 0.0006                 0.0019
 IR Inten    --      0.2240                 0.0755                 0.1230

                      4                      5                      6
                      A                      A                      A
 Frequencies --     24.3199                29.4843                42.1658
 Red. masses --      4.1447                 6.4796                10.7651
 Frc consts  --      0.0014                 0.0033                 0.0113
 IR Inten    --      0.2245                 0.1143                 1.7109

                      7                      8                      9
                      A                      A                      A
 Frequencies --     51.9346                66.7002                71.2891
 Red. masses --     12.2113                 8.3600                 6.8239
 Frc consts  --      0.0194                 0.0219                 0.0204
 IR Inten    --      1.1706                 1.0535                 1.1504

                     10                     11                     12
                      A                      A                      A
 Frequencies --     93.3430               105.3001               159.2040
 Red. masses --     10.4914                 9.7844                10.9046
 Frc consts  --      0.0539                 0.0639                 0.1628
 IR Inten    --      0.4888                 0.3584                 0.8416

                     13                     14                     15
                      A                      A                      A
 Frequencies --    195.5580               211.5810               214.9914
 Red. masses --     10.0384                 9.7908                 7.9199
 Frc consts  --      0.2262                 0.2582                 0.2157
 IR Inten    --      4.9835                 1.0126                 2.6590

                     16                     17                     18
                      A                      A                      A
 Frequencies --    250.7215               262.8425               293.7595
 Red. masses --     11.2830                 9.5656                 4.4261
 Frc consts  --      0.4179                 0.3894                 0.2250
 IR Inten    --      1.1692                 1.6500                 3.6133

                     19                     20                     21
                      A                      A                      A
 Frequencies --    301.6844               322.9800               356.6097
 Red. masses --      4.9010                 8.6145                 7.6277
 Frc consts  --      0.2628                 0.5295                 0.5715
 IR Inten    --      2.5731                 0.9326                 2.8962

                     22                     23                     24
                      A                      A                      A
 Frequencies --    375.6560               388.8246               411.4823
 Red. masses --      2.7653                 2.3822                 6.3708
 Frc consts  --      0.2299                 0.2122                 0.6355
 IR Inten    --      0.4474                 8.6017                40.4052

                     25                     26                     27
                      A                      A                      A
 Frequencies --    420.6725               420.7817               439.0138
 Red. masses --      3.0347                 3.0486                 6.0450
 Frc consts  --      0.3164                 0.3180                 0.6864
 IR Inten    --      0.0126                 1.0198                17.7748

                     28                     29                     30
                      A                      A                      A
 Frequencies --    458.0724               528.8591               542.2381
 Red. masses --      5.1908                 3.9656                 4.0971
 Frc consts  --      0.6417                 0.6535                 0.7098
 IR Inten    --      4.5306                18.9145                34.5166

                     31                     32                     33
                      A                      A                      A
 Frequencies --    584.2929               628.7906               639.3204
 Red. masses --     11.5692                 7.2736                 7.1914
 Frc consts  --      2.3271                 1.6944                 1.7318
 IR Inten    --      0.3301                 7.0809                 5.4114

                     34                     35                     36
                      A                      A                      A
 Frequencies --    648.1409               648.4897               664.8228
 Red. masses --      6.6239                 6.7146                 4.9806
 Frc consts  --      1.6395                 1.6637                 1.2970
 IR Inten    --      0.3898                 0.0113                 0.5018

                     37                     38                     39
                      A                      A                      A
 Frequencies --    667.4391               737.3987               738.9516
 Red. masses --      4.9929                 4.2352                 4.2339
 Frc consts  --      1.3105                 1.3568                 1.3621
 IR Inten    --      5.9607                 3.5924                 3.6084

                     40                     41                     42
                      A                      A                      A
 Frequencies --    808.3715               820.4118               822.7189
 Red. masses --      9.4963                 2.6031                 2.4988
 Frc consts  --      3.6562                 1.0323                 0.9965
 IR Inten    --     22.3930                38.8649                59.1142

                     43                     44                     45
                      A                      A                      A
 Frequencies --    829.3549               843.8307               844.0503
 Red. masses --      4.6668                 1.3025                 1.3074
 Frc consts  --      1.8913                 0.5464                 0.5488
 IR Inten    --      6.7127                 0.3499                 4.0885

                     46                     47                     48
                      A                      A                      A
 Frequencies --    858.1944               862.0005               876.6559
 Red. masses --      2.7786                 2.1969                 3.4078
 Frc consts  --      1.2057                 0.9618                 1.5430
 IR Inten    --    130.1912                17.6374                12.2737

                     49                     50                     51
                      A                      A                      A
 Frequencies --    923.9229               961.0604               963.0716
 Red. masses --      7.1319                 1.4678                 1.3567
 Frc consts  --      3.5870                 0.7988                 0.7414
 IR Inten    --      8.6305                19.6636                 0.8493

                     52                     53                     54
                      A                      A                      A
 Frequencies --    973.6631               977.5374               979.3591
 Red. masses --      2.2075                 1.3526                 1.6988
 Frc consts  --      1.2330                 0.7615                 0.9600
 IR Inten    --     89.9958                 2.6910                30.5270

                     55                     56                     57
                      A                      A                      A
 Frequencies --    991.9017              1023.9364              1025.2090
 Red. masses --      4.0071                 2.4896                 2.5852
 Frc consts  --      2.3228                 1.5379                 1.6009
 IR Inten    --     20.1379                18.3782                18.7320

                     58                     59                     60
                      A                      A                      A
 Frequencies --   1035.3718              1035.5256              1110.7356
 Red. masses --      3.7921                 3.8190                 3.1223
 Frc consts  --      2.3951                 2.4128                 2.2696
 IR Inten    --      9.3451                29.2175                42.3129

                     61                     62                     63
                      A                      A                      A
 Frequencies --   1111.1331              1146.3647              1146.4953
 Red. masses --      3.1260                 1.3246                 1.3245
 Frc consts  --      2.2739                 1.0256                 1.0257
 IR Inten    --    100.4897                 4.0673                 2.2146

                     64                     65                     66
                      A                      A                      A
 Frequencies --   1214.6837              1216.1443              1228.4558
 Red. masses --      1.2405                 1.1441                 4.0385
 Frc consts  --      1.0784                 0.9970                 3.5908
 IR Inten    --    148.5892                 0.7307              1079.9532

                     67                     68                     69
                      A                      A                      A
 Frequencies --   1240.3778              1240.4094              1269.2022
 Red. masses --      3.0823                 3.0323                 2.8158
 Frc consts  --      2.7940                 2.7489                 2.6725
 IR Inten    --     18.7901                 2.1175               166.6519

                     70                     71                     72
                      A                      A                      A
 Frequencies --   1295.4655              1301.0898              1336.4583
 Red. masses --      1.4486                 1.8374                 1.8110
 Frc consts  --      1.4324                 1.8327                 1.9058
 IR Inten    --     55.2509               110.5162                 1.1715

                     73                     74                     75
                      A                      A                      A
 Frequencies --   1336.5332              1363.5031              1363.9238
 Red. masses --      1.8185                 2.1607                 2.1471
 Frc consts  --      1.9139                 2.3668                 2.3533
 IR Inten    --      1.1537                 5.0678                 7.5853

                     76                     77                     78
                      A                      A                      A
 Frequencies --   1416.7536              1418.1481              1456.2625
 Red. masses --      1.3445                 1.3604                 2.6039
 Frc consts  --      1.5901                 1.6120                 3.2535
 IR Inten    --     16.6249                23.8225                 5.6095

                     79                     80                     81
                      A                      A                      A
 Frequencies --   1456.3988              1516.7279              1518.4150
 Red. masses --      2.6019                 1.1174                 1.1189
 Frc consts  --      3.2517                 1.5145                 1.5200
 IR Inten    --      8.4248                13.5942                11.4691

                     82                     83                     84
                      A                      A                      A
 Frequencies --   1541.4801              1541.6722              1630.9368
 Red. masses --      2.3096                 2.3069                 6.6802
 Frc consts  --      3.2335                 3.2305                10.4691
 IR Inten    --     26.6772                60.9753                 0.5914

                     85                     86                     87
                      A                      A                      A
 Frequencies --   1631.1401              1655.9679              1656.0782
 Red. masses --      6.6803                 6.5245                 6.3856
 Frc consts  --     10.4720                10.5415                10.3185
 IR Inten    --      0.8478                24.5046                10.3683

                     88                     89                     90
                      A                      A                      A
 Frequencies --   1656.2459              1833.7824              1850.0405
 Red. masses --      8.3763                12.2030                12.1526
 Frc consts  --     13.5379                24.1776                24.5064
 IR Inten    --     26.3427                65.5208               437.5239

                     91                     92                     93
                      A                      A                      A
 Frequencies --   3108.7547              3112.4509              3166.6250
 Red. masses --      1.0577                 1.0578                 1.1109
 Frc consts  --      6.0224                 6.0375                 6.5630
 IR Inten    --     21.3987                21.1007                 3.9469

                     94                     95                     96
                      A                      A                      A
 Frequencies --   3169.8465              3189.7247              3189.9136
 Red. masses --      1.1109                 1.0897                 1.0896
 Frc consts  --      6.5764                 6.5321                 6.5327
 IR Inten    --      3.5268                 8.2039                10.2838

                     97                     98                     99
                      A                      A                      A
 Frequencies --   3212.5105              3212.8903              3225.8533
 Red. masses --      1.0890                 1.0890                 1.0935
 Frc consts  --      6.6218                 6.6231                 6.7042
 IR Inten    --      0.8736                 0.7703                 3.4301

                    100                    101                    102
                      A                      A                      A
 Frequencies --   3226.0905              3228.6787              3228.9028
 Red. masses --      1.0935                 1.0948                 1.0949
 Frc consts  --      6.7051                 6.7243                 6.7254
 IR Inten    --      3.6493                 1.1293                 1.1589

 - Thermochemistry -
 -------------------
 Temperature   298.150 Kelvin.  Pressure   1.00000 Atm.
 Atom     1 has atomic number  6 and mass  12.00000

 Molecular mass:   366.01741 amu.
 Principal axes and moments of inertia in atomic units:
                           1         2         3
     Eigenvalues --  7448.68516********************
           X            1.00000  -0.00120  -0.00169
           Y            0.00120   1.00000   0.00060
           Z            0.00169  -0.00061   1.00000
 This molecule is an asymmetric top.
 Rotational symmetry number  1.
 Warning -- assumption of classical behavior for rotation
           may cause significant error
 Rotational temperatures (Kelvin)      0.01163     0.00342     0.00284
 Rotational constants (GHZ):           0.24229     0.07121     0.05922
 Zero-point vibrational energy     678653.3 (Joules/Mol)
                                  162.20202 (Kcal/Mol)
 Warning -- explicit consideration of  31 degrees of freedom as
           vibrations may cause significant error
 Vibrational temperatures:      5.65    13.04    31.42    34.99    42.42
          (Kelvin)             60.67    74.72    95.97   102.57   134.30
                              151.50   229.06   281.36   304.42   309.32
                              360.73   378.17   422.65   434.06   464.70
                              513.08   540.49   559.43   592.03   605.25
                              605.41   631.64   659.06   760.91   780.16
                              840.67   904.69   919.84   932.53   933.03
                              956.53   960.30  1060.95  1063.19  1163.07
                             1180.39  1183.71  1193.26  1214.08  1214.40
                             1234.75  1240.23  1261.31  1329.32  1382.75
                             1385.65  1400.88  1406.46  1409.08  1427.13
                             1473.22  1475.05  1489.67  1489.89  1598.10
                             1598.67  1649.36  1649.55  1747.66  1749.76
                             1767.47  1784.63  1784.67  1826.10  1863.89
                             1871.98  1922.87  1922.97  1961.78  1962.38
                             2038.39  2040.40  2095.24  2095.43  2182.23
                             2184.66  2217.85  2218.12  2346.55  2346.85
                             2382.57  2382.73  2382.97  2638.40  2661.80
                             4472.80  4478.12  4556.07  4560.70  4589.30
                             4589.57  4622.09  4622.63  4641.28  4641.62
                             4645.35  4645.67

 Zero-point correction=                           0.258485 (Hartree/Particle)
 Thermal correction to Energy=                    0.280371
 Thermal correction to Enthalpy=                  0.281316
 Thermal correction to Gibbs Free Energy=         0.198640
 Sum of electronic and zero-point Energies=          -1947.414929
 Sum of electronic and thermal Energies=             -1947.393043
 Sum of electronic and thermal Enthalpies=           -1947.392099
 Sum of electronic and thermal Free Energies=        -1947.474774

                     E (Thermal)             CV                S
                      KCal/Mol        Cal/Mol-Kelvin    Cal/Mol-Kelvin
 Total                  175.936             79.058            174.006
 Electronic               0.000              0.000              0.000
 Translational            0.889              2.981             43.586
 Rotational               0.889              2.981             36.996
 Vibrational            174.158             73.096             93.424
 Vibration     1          0.593              1.987              9.868
 Vibration     2          0.593              1.987              8.206
 Vibration     3          0.593              1.985              6.459
 Vibration     4          0.593              1.985              6.246
 Vibration     5          0.593              1.984              5.864
 Vibration     6          0.595              1.980              5.155
 Vibration     7          0.596              1.977              4.742
 Vibration     8          0.598              1.970              4.248
 Vibration     9          0.598              1.968              4.117
 Vibration    10          0.602              1.954              3.589
 Vibration    11          0.605              1.945              3.354
 Vibration    12          0.621              1.892              2.559
 Vibration    13          0.636              1.846              2.174
 Vibration    14          0.643              1.823              2.030
 Vibration    15          0.645              1.818              2.001
 Vibration    16          0.663              1.762              1.726
 Vibration    17          0.670              1.741              1.643
 Vibration    18          0.689              1.685              1.452
 Vibration    19          0.694              1.671              1.408
 Vibration    20          0.708              1.629              1.295
 Vibration    21          0.732              1.562              1.137
 Vibration    22          0.746              1.522              1.057
 Vibration    23          0.757              1.494              1.005
 Vibration    24          0.775              1.445              0.921
 Vibration    25          0.783              1.425              0.890
 Vibration    26          0.783              1.425              0.889
 Vibration    27          0.799              1.385              0.830
 Vibration    28          0.816              1.343              0.772
 Vibration    29          0.884              1.186              0.590
 Vibration    30          0.897              1.157              0.560
 Vibration    31          0.941              1.065              0.477

 Optimization completed.
    -- Stationary point found.
 Normal termination of Gaussian 16 at Sat Aug 22 17:00:04 2020.
 Gaussian 16:  ES64L-G16RevA.03 25-Dec-2016

 ----------------------------------------------------------------------
 # TD(NStates=10, Root=1) B3LYP/6-31G* scf=qc volume pop=NPA density=cu
 rrent Geom=AllCheck Guess=Read
 ----------------------------------------------------------------------

 Structure from the checkpoint file:  "azadicarboxylate_3_conf203.chk"
 -------------------
 Title Card Required
 -------------------
 Charge =  0 Multiplicity = 1

                         Standard orientation:
 ---------------------------------------------------------------------
 Center     Atomic      Atomic             Coordinates (Angstroms)
 Number     Number       Type             X           Y           Z
 ---------------------------------------------------------------------
      1          6           0       -4.243534    0.802282   -0.276277
      2          6           0       -3.584182    2.149876   -0.395290
      3          8           0       -2.122315    2.035307   -0.451905
      4          6           0       -1.486458    2.046461    0.717747
      5          8           0       -1.955336    2.154668    1.822929
      6          7           0       -0.077459    1.780590    0.511344
      7          7           0        0.576633    2.804116    0.239364
      8          6           0        2.000826    2.554006    0.138949
      9          8           0        2.765253    2.949291    0.983375
     10          8           0        2.285740    1.967622   -1.021781
     11          6           0        3.709993    1.776656   -1.316847
     12          6           0        4.213651    0.454271   -0.804293
     13          6           0        4.144176   -0.688432   -1.610190
     14          6           0        4.600638   -1.921655   -1.148411
     15          6           0        5.132357   -2.005468    0.138014
     16          6           0        5.211873   -0.882911    0.961962
     17          6           0        4.750815    0.342901    0.485156
     18         17           0        5.716688   -3.553476    0.729396
     19          6           0       -4.570890    0.071673   -1.425026
     20          6           0       -5.173627   -1.181419   -1.331680
     21          6           0       -5.449719   -1.704939   -0.068871
     22          6           0       -5.133164   -0.998745    1.091399
     23          6           0       -4.530407    0.253204    0.980735
     24         17           0       -6.214604   -3.281442    0.061494
     25          1           0       -3.840841    2.804672    0.438893
     26          1           0       -3.834286    2.638143   -1.338302
     27          1           0        4.258905    2.615783   -0.885493
     28          1           0        3.751699    1.827044   -2.405964
     29          1           0        3.729986   -0.617261   -2.612966
     30          1           0        4.548413   -2.805171   -1.775370
     31          1           0        5.628892   -0.968420    1.959577
     32          1           0        4.797753    1.220081    1.123208
     33          1           0       -4.355154    0.485278   -2.407164
     34          1           0       -5.429399   -1.744242   -2.222888
     35          1           0       -5.356427   -1.422524    2.064553
     36          1           0       -4.270018    0.805620    1.878433
 ---------------------------------------------------------------------

 SCF Done:  E(RB3LYP) =  -1947.67341408     a.u. after    1 cycles

 Excitation energies and oscillator strengths:

 Excited State   1:      Singlet-A      2.9330 eV  422.72 nm  f=0.0020  <S**2>=0.000
      92 -> 95         0.47225
      94 -> 95         0.51076
 This state for optimization and/or second-order correction.
 Total Energy, E(TD-HF/TD-DFT) =  -1947.56562845
 Copying the excited state density for this state as the 1-particle RhoCI density.

 Excited State   2:      Singlet-A      4.0015 eV  309.84 nm  f=0.0160  <S**2>=0.000
      92 -> 95        -0.21397
      93 -> 95         0.60724
      94 -> 95         0.28752

 Excited State   3:      Singlet-A      4.0576 eV  305.56 nm  f=0.0131  <S**2>=0.000
      92 -> 95         0.46945
      93 -> 95         0.35107
      94 -> 95        -0.39136

 Excited State   4:      Singlet-A      4.4395 eV  279.28 nm  f=0.0008  <S**2>=0.000
      91 -> 95         0.70551

 Excited State   5:      Singlet-A      4.4957 eV  275.78 nm  f=0.0002  <S**2>=0.000
      90 -> 95         0.70561

 Excited State   6:      Singlet-A      5.0559 eV  245.23 nm  f=0.0782  <S**2>=0.000
      87 -> 95         0.19163
      89 -> 95         0.65412

 Excited State   7:      Singlet-A      5.1973 eV  238.55 nm  f=0.0005  <S**2>=0.000
      86 -> 95         0.48073
      87 -> 95        -0.18183
      88 -> 95         0.44301

 Excited State   8:      Singlet-A      5.2384 eV  236.68 nm  f=0.0005  <S**2>=0.000
      90 -> 96         0.44228
      92 -> 98        -0.19860
      93 -> 98        -0.35116
      94 -> 98         0.35833

 Excited State   9:      Singlet-A      5.2504 eV  236.14 nm  f=0.0005  <S**2>=0.000
      91 -> 97         0.44291
      92 -> 99         0.13209
      93 -> 99        -0.38015
      94 -> 99        -0.36070

 Excited State  10:      Singlet-A      5.4284 eV  228.40 nm  f=0.0324  <S**2>=0.000
      84 -> 95        -0.11594
      85 -> 95         0.40154
      92 -> 96         0.22598
      92 ->100         0.11907
      94 -> 96         0.43970
      94 ->100         0.15572

 The electronic state is 1-A.
 Alpha  occ. eigenvalues -- -101.55499-101.55401 -19.22099 -19.22045 -19.16474
 Alpha  occ. eigenvalues --  -19.16413 -14.43015 -14.42962 -10.36013 -10.35988
 Alpha  occ. eigenvalues --  -10.26882 -10.26873 -10.26431 -10.26331 -10.21787
 Alpha  occ. eigenvalues --  -10.21704 -10.21543 -10.21451 -10.21449 -10.21348
 Alpha  occ. eigenvalues --  -10.21328 -10.21229 -10.21165 -10.21062  -9.47131
 Alpha  occ. eigenvalues --   -9.47034  -7.23528  -7.23430  -7.22561  -7.22523
 Alpha  occ. eigenvalues --   -7.22463  -7.22426  -1.14529  -1.13291  -1.06439
 Alpha  occ. eigenvalues --   -1.04698  -1.04345  -0.90022  -0.89923  -0.85367
 Alpha  occ. eigenvalues --   -0.85176  -0.81379  -0.78423  -0.76963  -0.76866
 Alpha  occ. eigenvalues --   -0.76436  -0.71552  -0.69720  -0.63507  -0.63413
 Alpha  occ. eigenvalues --   -0.62728  -0.60765  -0.59484  -0.57449  -0.56511
 Alpha  occ. eigenvalues --   -0.53283  -0.52852  -0.51448  -0.50645  -0.49842
 Alpha  occ. eigenvalues --   -0.49013  -0.48857  -0.48282  -0.47970  -0.46763
 Alpha  occ. eigenvalues --   -0.45562  -0.44723  -0.44609  -0.43905  -0.43847
 Alpha  occ. eigenvalues --   -0.42987  -0.41125  -0.40935  -0.40350  -0.40120
 Alpha  occ. eigenvalues --   -0.38946  -0.38804  -0.38117  -0.37906  -0.36514
 Alpha  occ. eigenvalues --   -0.36451  -0.34028  -0.33892  -0.32693  -0.32620
 Alpha  occ. eigenvalues --   -0.31998  -0.31854  -0.31741  -0.31488  -0.27297
 Alpha  occ. eigenvalues --   -0.27190  -0.26245  -0.25554  -0.25122
 Alpha virt. eigenvalues --   -0.08960  -0.03318  -0.03111  -0.02307  -0.02203
 Alpha virt. eigenvalues --   -0.00193   0.00211   0.02325   0.02417   0.09606
 Alpha virt. eigenvalues --    0.09685   0.10732   0.10821   0.11926   0.12058

 Mulliken charges:
               1
     1  C    0.151392
     2  C   -0.157643
     3  O   -0.407682
     4  C    0.739191
     5  O   -0.410181
     6  N   -0.238005
     7  N   -0.243438
     8  C    0.738471
     9  O   -0.418363
    10  O   -0.409745
    11  C   -0.157179
    12  C    0.151790
    13  C   -0.165230
    14  C   -0.128145
    15  C   -0.062413
    16  C   -0.129026
    17  C   -0.171796
    18  Cl  -0.014440
    19  C   -0.164821
    20  C   -0.128061
    21  C   -0.062260
    22  C   -0.128924
    23  C   -0.172541
    24  Cl  -0.012281
    25  H    0.187707
    26  H    0.172708
    27  H    0.186558
    28  H    0.172192
    29  H    0.143792
    30  H    0.160334
    31  H    0.163335
    32  H    0.171978
    33  H    0.145284
    34  H    0.161271
    35  H    0.164316
    36  H    0.171853
 Sum of Mulliken charges =  -0.00000

 Dipole moment (field-independent basis, Debye):
    X=             -0.6895    Y=              0.9660    Z=             -3.8461  Tot=              4.0251
 Quadrupole moment (field-independent basis, Debye-Ang):
   XX=           -140.7967   YY=           -157.0383   ZZ=           -142.0143
   XY=             -3.6573   XZ=             -2.9065   YZ=             -5.7628

 Summary of Natural Population Analysis:

                                       Natural Population
                Natural  -----------------------------------------------
    Atom  No    Charge         Core      Valence    Rydberg      Total
 -----------------------------------------------------------------------
      C    1   -0.09434      1.99901     4.08094    0.01439     6.09434
      C    2   -0.12665      1.99913     4.10836    0.01917     6.12665
      O    3   -0.52171      1.99973     6.50966    0.01231     8.52171
      C    4    0.92494      1.99951     3.02508    0.05047     5.07506
      O    5   -0.54411      1.99977     6.52359    0.02075     8.54411
      N    6   -0.21695      1.99938     5.19126    0.02631     7.21695
      N    7   -0.22055      1.99938     5.19464    0.02653     7.22055
      C    8    0.92077      1.99950     3.02945    0.05028     5.07923
      O    9   -0.55214      1.99977     6.53160    0.02077     8.55214
      O   10   -0.52394      1.99973     6.51197    0.01225     8.52394
      C   11   -0.12455      1.99912     4.10615    0.01928     6.12455
      C   12   -0.09419      1.99901     4.08083    0.01435     6.09419
      C   13   -0.20019      1.99903     4.18809    0.01307     6.20019
      C   14   -0.24364      1.99893     4.22980    0.01491     6.24364
      C   15   -0.03604      1.99856     4.01572    0.02176     6.03604
      C   16   -0.24146      1.99894     4.22760    0.01493     6.24146
      C   17   -0.19901      1.99903     4.18666    0.01331     6.19901
     Cl   18    0.00227      9.99967     6.97876    0.01930    16.99773
      C   19   -0.19926      1.99903     4.18714    0.01309     6.19926
      C   20   -0.24335      1.99893     4.22950    0.01492     6.24335
      C   21   -0.03506      1.99856     4.01471    0.02179     6.03506
      C   22   -0.24167      1.99894     4.22778    0.01495     6.24167
      C   23   -0.19874      1.99903     4.18637    0.01334     6.19874
     Cl   24    0.00397      9.99967     6.97706    0.01931    16.99603
      H   25    0.24463      0.00000     0.75327    0.00210     0.75537
      H   26    0.24285      0.00000     0.75600    0.00115     0.75715
      H   27    0.24368      0.00000     0.75415    0.00217     0.75632
      H   28    0.24249      0.00000     0.75640    0.00112     0.75751
      H   29    0.24270      0.00000     0.75629    0.00101     0.75730
      H   30    0.25609      0.00000     0.74290    0.00102     0.74391
      H   31    0.25750      0.00000     0.74150    0.00100     0.74250
      H   32    0.25897      0.00000     0.73971    0.00132     0.74103
      H   33    0.24352      0.00000     0.75547    0.00101     0.75648
      H   34    0.25655      0.00000     0.74243    0.00102     0.74345
      H   35    0.25804      0.00000     0.74097    0.00100     0.74196
      H   36    0.25859      0.00000     0.74004    0.00137     0.74141
 =======================================================================
   * Total *    0.00000     63.98135   123.52184    0.49681   188.00000

 Normal termination of Gaussian 16 at Sat Aug 22 17:13:01 2020.
