 Gaussian 16, Revision A.03,

 ---------------------------------
 # opt=CalcAll B3LYP/6-31G* scf=qc
 ---------------------------------

 -------------------
 Title Card Required
 -------------------
 Symbolic Z-matrix:
 Charge =  0 Multiplicity = 1

 SCF Done:  E(RB3LYP) =  -1947.64834617     a.u. after    9 cycles
 SCF Done:  E(RB3LYP) =  -1947.66669734     a.u. after   21 cycles
 SCF Done:  E(RB3LYP) =  -1947.66993085     a.u. after   19 cycles
 SCF Done:  E(RB3LYP) =  -1947.67063231     a.u. after   17 cycles
 SCF Done:  E(RB3LYP) =  -1947.67181931     a.u. after   21 cycles
 SCF Done:  E(RB3LYP) =  -1947.67215939     a.u. after   17 cycles
 SCF Done:  E(RB3LYP) =  -1947.67235226     a.u. after   23 cycles
 SCF Done:  E(RB3LYP) =  -1947.67262156     a.u. after   13 cycles
 SCF Done:  E(RB3LYP) =  -1947.67263495     a.u. after   15 cycles
 SCF Done:  E(RB3LYP) =  -1947.67265789     a.u. after   11 cycles
 SCF Done:  E(RB3LYP) =  -1947.67265840     a.u. after    5 cycles
 SCF Done:  E(RB3LYP) =  -1947.67265838     a.u. after    4 cycles
 SCF Done:  E(RB3LYP) =  -1947.67265841     a.u. after    3 cycles
 Optimization completed.
    -- Stationary point found.
 Normal termination of Gaussian 16 at Sat Aug 22 16:51:49 2020.

 ----------------------------------------------------------------------
 # freq B3LYP/6-31G* scf=qc volume NMR pop=NPA density=current Geom=All
 Check Guess=Read
 ----------------------------------------------------------------------

 Structure from the checkpoint file:  "azadicarboxylate_3_conf262.chk"
 -------------------
 Title Card Required
 -------------------
 Charge =  0 Multiplicity = 1

 SCF Done:  E(RB3LYP) =  -1947.67265841     a.u. after    1 cycles

      1  C    Isotropic =    63.8019   Anisotropy =   171.9741

      2  C    Isotropic =   121.6554   Anisotropy =    40.4081

      3  O    Isotropic =   142.1381   Anisotropy =   138.3032

      4  C    Isotropic =    34.5740   Anisotropy =    75.7457

      5  O    Isotropic =   -20.2067   Anisotropy =   494.8610

      6  N    Isotropic =  -325.4499   Anisotropy =   677.7520

      7  N    Isotropic =  -323.4544   Anisotropy =   676.0597

      8  C    Isotropic =    35.6791   Anisotropy =    82.7462

      9  O    Isotropic =   -28.1892   Anisotropy =   502.2263

     10  O    Isotropic =   147.8961   Anisotropy =   132.5523

     11  C    Isotropic =   119.7980   Anisotropy =    34.4269

     12  C    Isotropic =    64.7457   Anisotropy =   172.8392

     13  C    Isotropic =    64.1181   Anisotropy =   151.8679

     14  C    Isotropic =    67.1149   Anisotropy =   141.7054

     15  C    Isotropic =    51.1949   Anisotropy =   111.5842

     16  C    Isotropic =    66.8325   Anisotropy =   142.3794

     17  C    Isotropic =    63.8263   Anisotropy =   156.6716

     18  Cl   Isotropic =   717.9562   Anisotropy =   454.4773

     19  C    Isotropic =    64.0387   Anisotropy =   152.7436

     20  C    Isotropic =    67.2543   Anisotropy =   141.1438

     21  C    Isotropic =    51.1346   Anisotropy =   111.0481

     22  C    Isotropic =    66.7401   Anisotropy =   142.1391

     23  C    Isotropic =    62.6688   Anisotropy =   158.3084

     24  Cl   Isotropic =   718.1336   Anisotropy =   454.6032

     25  H    Isotropic =    27.7062   Anisotropy =     5.6668

     26  H    Isotropic =    26.4803   Anisotropy =     2.6935

     27  H    Isotropic =    27.3016   Anisotropy =     4.0056

     28  H    Isotropic =    27.2527   Anisotropy =     4.5692

     29  H    Isotropic =    24.9974   Anisotropy =     6.7035

     30  H    Isotropic =    25.0761   Anisotropy =     7.0037

     31  H    Isotropic =    25.0605   Anisotropy =     7.0938

     32  H    Isotropic =    24.9553   Anisotropy =     6.8721

     33  H    Isotropic =    24.9515   Anisotropy =     6.4576

     34  H    Isotropic =    25.0688   Anisotropy =     6.9458

     35  H    Isotropic =    25.0243   Anisotropy =     7.2783

     36  H    Isotropic =    24.3685   Anisotropy =     7.3270

  Exact polarizability: 265.263   0.745 223.772  45.606  -3.247 148.642
 Approx polarizability: 319.739   1.106 376.308  87.364 -14.484 251.042

                      1                      2                      3
                      A                      A                      A
 Frequencies --      3.5793                 8.5125                18.2407
 Red. masses --     11.6830                 3.7840                 8.4380
 Frc consts  --      0.0001                 0.0002                 0.0017
 IR Inten    --      0.1063                 0.0210                 0.3058

                      4                      5                      6
                      A                      A                      A
 Frequencies --     20.8912                24.9369                29.4434
 Red. masses --      6.8248                 6.9082                 7.8099
 Frc consts  --      0.0018                 0.0025                 0.0040
 IR Inten    --      0.1139                 1.7787                 0.0862

                      7                      8                      9
                      A                      A                      A
 Frequencies --     45.1396                67.0106                72.4419
 Red. masses --     10.3806                 9.6669                 8.4018
 Frc consts  --      0.0125                 0.0256                 0.0260
 IR Inten    --      1.9056                 0.0561                 2.9300

                     10                     11                     12
                      A                      A                      A
 Frequencies --     90.4029               114.4611               155.7406
 Red. masses --      9.1613                 7.7006                10.0581
 Frc consts  --      0.0441                 0.0594                 0.1437
 IR Inten    --      0.5299                 0.0399                 0.2028

                     13                     14                     15
                      A                      A                      A
 Frequencies --    173.7025               206.1585               212.9059
 Red. masses --      9.7450                11.1987                 9.8378
 Frc consts  --      0.1732                 0.2804                 0.2627
 IR Inten    --      0.4406                 0.7522                17.4638

                     16                     17                     18
                      A                      A                      A
 Frequencies --    240.7909               253.4809               263.2977
 Red. masses --      9.6410                 4.6695                 6.6706
 Frc consts  --      0.3293                 0.1768                 0.2725
 IR Inten    --      2.3289                 0.0716                 2.1203

                     19                     20                     21
                      A                      A                      A
 Frequencies --    296.6307               337.1416               350.8742
 Red. masses --      4.5279                 7.3628                 9.3830
 Frc consts  --      0.2347                 0.4931                 0.6806
 IR Inten    --      7.7722                 4.5671                 1.8674

                     22                     23                     24
                      A                      A                      A
 Frequencies --    368.5394               380.6491               418.0004
 Red. masses --      2.7667                 2.4654                 5.9006
 Frc consts  --      0.2214                 0.2105                 0.6074
 IR Inten    --      0.6159                 8.1895                12.2417

                     25                     26                     27
                      A                      A                      A
 Frequencies --    419.9337               420.8979               427.9273
 Red. masses --      3.1875                 3.4941                 7.1744
 Frc consts  --      0.3312                 0.3647                 0.7741
 IR Inten    --      0.7194                 3.0160                32.2889

                     28                     29                     30
                      A                      A                      A
 Frequencies --    451.5565               514.6590               546.2399
 Red. masses --      5.5907                 3.9055                 3.6612
 Frc consts  --      0.6716                 0.6095                 0.6436
 IR Inten    --      1.5025                 9.9762                 8.5228

                     31                     32                     33
                      A                      A                      A
 Frequencies --    597.0409               606.6206               637.7201
 Red. masses --     10.0645                 5.6622                 9.4321
 Frc consts  --      2.1137                 1.2276                 2.2601
 IR Inten    --      3.8373                14.9828                19.5358

                     34                     35                     36
                      A                      A                      A
 Frequencies --    648.1494               648.4466               664.9171
 Red. masses --      6.8357                 6.8588                 5.0778
 Frc consts  --      1.6919                 1.6992                 1.3227
 IR Inten    --      1.0582                 0.1057                 5.1729

                     37                     38                     39
                      A                      A                      A
 Frequencies --    677.7248               730.7104               736.9978
 Red. masses --      5.7887                 4.3728                 4.2333
 Frc consts  --      1.5665                 1.3756                 1.3547
 IR Inten    --      2.5438                 0.6938                 4.4981

                     40                     41                     42
                      A                      A                      A
 Frequencies --    811.9910               821.4029               821.7343
 Red. masses --     10.5680                 3.0222                 3.4294
 Frc consts  --      4.1053                 1.2014                 1.3644
 IR Inten    --     17.4682                45.4899                20.9299

                     43                     44                     45
                      A                      A                      A
 Frequencies --    835.7816               841.1203               843.6210
 Red. masses --      1.8130                 1.2484                 1.2882
 Frc consts  --      0.7462                 0.5204                 0.5402
 IR Inten    --     50.8693                 0.0539                 1.4618

                     46                     47                     48
                      A                      A                      A
 Frequencies --    859.1319               862.7859               906.9342
 Red. masses --      3.1964                 2.8490                 6.3457
 Frc consts  --      1.3901                 1.2495                 3.0752
 IR Inten    --    117.7458                 5.6655                17.1366

                     49                     50                     51
                      A                      A                      A
 Frequencies --    949.4503               963.1376               964.0690
 Red. masses --      2.4467                 1.3774                 1.3488
 Frc consts  --      1.2995                 0.7528                 0.7386
 IR Inten    --     38.2054                 7.1647                 0.2359

                     52                     53                     54
                      A                      A                      A
 Frequencies --    974.6451               975.0476               982.5871
 Red. masses --      2.0209                 1.4266                 3.3435
 Frc consts  --      1.1311                 0.7991                 1.9019
 IR Inten    --     30.8794                 8.2803               122.2995

                     55                     56                     57
                      A                      A                      A
 Frequencies --    989.4589              1002.4084              1025.6054
 Red. masses --      1.7544                 7.2222                 2.6391
 Frc consts  --      1.0120                 4.2757                 1.6355
 IR Inten    --      3.5078                54.6703                15.2433

                     58                     59                     60
                      A                      A                      A
 Frequencies --   1035.0228              1035.4189              1110.8040
 Red. masses --      3.7641                 3.8136                 3.1258
 Frc consts  --      2.3758                 2.4089                 2.2724
 IR Inten    --     21.3183                19.2422                84.6967

                     61                     62                     63
                      A                      A                      A
 Frequencies --   1111.4081              1144.7039              1146.2869
 Red. masses --      3.1327                 1.3198                 1.3243
 Frc consts  --      2.2799                 1.0189                 1.0253
 IR Inten    --     72.6317                 2.7243                 2.8450

                     64                     65                     66
                      A                      A                      A
 Frequencies --   1214.3153              1215.7125              1240.1219
 Red. masses --      1.1488                 1.1488                 3.1440
 Frc consts  --      0.9980                 1.0004                 2.8488
 IR Inten    --     21.2434                13.1213                44.7498

                     67                     68                     69
                      A                      A                      A
 Frequencies --   1244.3037              1251.0632              1259.8629
 Red. masses --      3.3084                 3.3174                 1.3667
 Frc consts  --      3.0181                 3.0592                 1.2781
 IR Inten    --    543.5616               869.3110                11.0517

                     70                     71                     72
                      A                      A                      A
 Frequencies --   1265.2860              1296.7440              1335.6288
 Red. masses --      3.4590                 1.5547                 1.7581
 Frc consts  --      3.2627                 1.5403                 1.8478
 IR Inten    --    188.9842                79.6724                 0.5924

                     73                     74                     75
                      A                      A                      A
 Frequencies --   1336.4051              1358.0232              1363.4433
 Red. masses --      1.8137                 2.6255                 2.1656
 Frc consts  --      1.9084                 2.8528                 2.3720
 IR Inten    --      1.4580                 0.6372                 6.3923

                     76                     77                     78
                      A                      A                      A
 Frequencies --   1416.7014              1421.0525              1453.9826
 Red. masses --      1.3537                 1.4854                 2.6829
 Frc consts  --      1.6007                 1.7674                 3.3417
 IR Inten    --     22.0842                26.6925                 6.7198

                     79                     80                     81
                      A                      A                      A
 Frequencies --   1456.1561              1518.4915              1528.9320
 Red. masses --      2.6056                 1.1187                 1.1007
 Frc consts  --      3.2552                 1.5198                 1.5160
 IR Inten    --      7.0922                12.0587                 6.8338

                     82                     83                     84
                      A                      A                      A
 Frequencies --   1541.5203              1543.8760              1631.0294
 Red. masses --      2.3052                 2.3721                 6.6830
 Frc consts  --      3.2274                 3.3312                10.4748
 IR Inten    --     46.0810                38.5280                 0.6514

                     85                     86                     87
                      A                      A                      A
 Frequencies --   1632.7357              1650.9667              1656.0321
 Red. masses --      6.7428                13.9476                 5.5951
 Frc consts  --     10.5906                22.3989                 9.0405
 IR Inten    --      1.0520                 0.2464                30.1611

                     88                     89                     90
                      A                      A                      A
 Frequencies --   1659.1216              1835.7147              1851.0644
 Red. masses --      5.6735                12.3322                12.4675
 Frc consts  --      9.2015                24.4851                25.1694
 IR Inten    --     29.2755                11.4393               578.2901

                     91                     92                     93
                      A                      A                      A
 Frequencies --   3089.4720              3112.5536              3140.4678
 Red. masses --      1.0579                 1.0578                 1.1100
 Frc consts  --      5.9492                 6.0379                 6.4499
 IR Inten    --     13.2811                20.0048                 8.9184

                     94                     95                     96
                      A                      A                      A
 Frequencies --   3169.9689              3190.5868              3192.3524
 Red. masses --      1.1109                 1.0897                 1.0897
 Frc consts  --      6.5772                 6.5358                 6.5430
 IR Inten    --      3.6093                 8.5485                 8.4665

                     97                     98                     99
                      A                      A                      A
 Frequencies --   3194.0706              3212.1712              3226.0238
 Red. masses --      1.0897                 1.0890                 1.0935
 Frc consts  --      6.5502                 6.6201                 6.7050
 IR Inten    --      7.2489                 1.1296                 3.7427

                    100                    101                    102
                      A                      A                      A
 Frequencies --   3226.6547              3227.5544              3228.4294
 Red. masses --      1.0933                 1.0940                 1.0948
 Frc consts  --      6.7067                 6.7145                 6.7233
 IR Inten    --      4.3105                 0.5836                 1.1094

 - Thermochemistry -
 -------------------
 Temperature   298.150 Kelvin.  Pressure   1.00000 Atm.
 Atom     1 has atomic number  6 and mass  12.00000

 Molecular mass:   366.01741 amu.
 Principal axes and moments of inertia in atomic units:
                           1         2         3
     Eigenvalues --  5081.29795********************
           X            0.99999  -0.00016  -0.00425
           Y            0.00017   1.00000   0.00057
           Z            0.00425  -0.00057   0.99999
 This molecule is an asymmetric top.
 Rotational symmetry number  1.
 Warning -- assumption of classical behavior for rotation
           may cause significant error
 Rotational temperatures (Kelvin)      0.01705     0.00252     0.00233
 Rotational constants (GHZ):           0.35517     0.05242     0.04845
 Zero-point vibrational energy     677598.7 (Joules/Mol)
                                  161.94999 (Kcal/Mol)
 Warning -- explicit consideration of  32 degrees of freedom as
           vibrations may cause significant error
 Vibrational temperatures:      5.15    12.25    26.24    30.06    35.88
          (Kelvin)             42.36    64.95    96.41   104.23   130.07
                              164.68   224.08   249.92   296.62   306.32
                              346.44   364.70   378.83   426.79   485.07
                              504.83   530.25   547.67   601.41   604.19
                              605.58   615.69   649.69   740.48   785.92
                              859.01   872.79   917.54   932.54   932.97
                              956.67   975.09  1051.33  1060.38  1168.27
                             1181.82  1182.29  1202.50  1210.18  1213.78
                             1236.10  1241.36  1304.88  1366.05  1385.74
                             1387.08  1402.30  1402.88  1413.72  1423.61
                             1442.24  1475.62  1489.17  1489.74  1598.20
                             1599.07  1646.97  1649.25  1747.13  1749.14
                             1784.26  1790.28  1800.00  1812.66  1820.46
                             1865.73  1921.67  1922.79  1953.89  1961.69
                             2038.32  2044.58  2091.96  2095.08  2184.77
                             2199.79  2217.90  2221.29  2346.69  2349.14
                             2375.37  2382.66  2387.11  2641.18  2663.27
                             4445.06  4478.27  4518.43  4560.88  4590.54
                             4593.08  4595.56  4621.60  4641.53  4642.44
                             4643.73  4644.99

 Zero-point correction=                           0.258084 (Hartree/Particle)
 Thermal correction to Energy=                    0.280167
 Thermal correction to Enthalpy=                  0.281111
 Thermal correction to Gibbs Free Energy=         0.197004
 Sum of electronic and zero-point Energies=          -1947.414575
 Sum of electronic and thermal Energies=             -1947.392492
 Sum of electronic and thermal Enthalpies=           -1947.391547
 Sum of electronic and thermal Free Energies=        -1947.475654

                     E (Thermal)             CV                S
                      KCal/Mol        Cal/Mol-Kelvin    Cal/Mol-Kelvin
 Total                  175.807             79.223            177.018
 Electronic               0.000              0.000              0.000
 Translational            0.889              2.981             43.586
 Rotational               0.889              2.981             37.119
 Vibrational            174.030             73.261             96.313
 Vibration     1          0.592              1.987             10.053
 Vibration     2          0.593              1.987              8.331
 Vibration     3          0.593              1.986              6.817
 Vibration     4          0.593              1.986              6.548
 Vibration     5          0.593              1.985              6.196
 Vibration     6          0.593              1.984              5.867
 Vibration     7          0.595              1.979              5.020
 Vibration     8          0.598              1.970              4.239
 Vibration     9          0.599              1.967              4.086
 Vibration    10          0.602              1.956              3.651
 Vibration    11          0.607              1.937              3.192
 Vibration    12          0.620              1.896              2.601
 Vibration    13          0.627              1.875              2.395
 Vibration    14          0.641              1.831              2.077
 Vibration    15          0.644              1.821              2.019
 Vibration    16          0.658              1.778              1.797
 Vibration    17          0.665              1.757              1.706
 Vibration    18          0.670              1.740              1.640
 Vibration    19          0.690              1.680              1.436
 Vibration    20          0.718              1.601              1.226
 Vibration    21          0.728              1.573              1.162
 Vibration    22          0.741              1.537              1.086
 Vibration    23          0.750              1.511              1.037
 Vibration    24          0.781              1.431              0.899
 Vibration    25          0.783              1.427              0.892
 Vibration    26          0.783              1.425              0.889
 Vibration    27          0.789              1.409              0.865
 Vibration    28          0.810              1.357              0.791
 Vibration    29          0.870              1.218              0.622
 Vibration    30          0.901              1.148              0.552
 Vibration    31          0.955              1.038              0.455
 Vibration    32          0.965              1.018              0.438

 Optimization completed.
    -- Stationary point found.
 Normal termination of Gaussian 16 at Sat Aug 22 17:02:44 2020.
 Gaussian 16:  ES64L-G16RevA.03 25-Dec-2016

 ----------------------------------------------------------------------
 # TD(NStates=10, Root=1) B3LYP/6-31G* scf=qc volume pop=NPA density=cu
 rrent Geom=AllCheck Guess=Read
 ----------------------------------------------------------------------

 Structure from the checkpoint file:  "azadicarboxylate_3_conf263.chk"
 -------------------
 Title Card Required
 -------------------
 Charge =  0 Multiplicity = 1

                         Standard orientation:
 ---------------------------------------------------------------------
 Center     Atomic      Atomic             Coordinates (Angstroms)
 Number     Number       Type             X           Y           Z
 ---------------------------------------------------------------------
      1          6           0        4.653313   -0.571465   -0.799854
      2          6           0        3.742329   -1.594626   -1.423024
      3          8           0        2.504852   -1.759067   -0.652142
      4          6           0        1.500728   -0.946716   -0.971038
      5          8           0        1.467281   -0.097525   -1.826646
      6          7           0        0.403712   -1.122974   -0.041856
      7          7           0       -0.318352   -2.098756   -0.319640
      8          6           0       -1.414422   -2.270267    0.614326
      9          8           0       -1.434039   -3.187960    1.395085
     10          8           0       -2.366926   -1.367275    0.391194
     11          6           0       -3.571956   -1.523433    1.208265
     12          6           0       -4.578179   -0.507573    0.751238
     13          6           0       -5.574607   -0.854464   -0.167735
     14          6           0       -6.505773    0.085954   -0.606226
     15          6           0       -6.430960    1.389353   -0.117099
     16          6           0       -5.446216    1.762541    0.798031
     17          6           0       -4.526141    0.808408    1.226873
     18         17           0       -7.601281    2.582445   -0.658385
     19          6           0        5.565369   -0.948826    0.193383
     20          6           0        6.408956   -0.011687    0.786942
     21          6           0        6.334182    1.319105    0.376425
     22          6           0        5.434249    1.721922   -0.609897
     23          6           0        4.596804    0.772302   -1.192988
     24         17           0        7.396852    2.508902    1.113310
     25          1           0        4.183780   -2.592057   -1.403367
     26          1           0        3.472308   -1.330483   -2.446680
     27          1           0       -3.285028   -1.380900    2.253706
     28          1           0       -3.933123   -2.548098    1.089117
     29          1           0       -5.627889   -1.871817   -0.547123
     30          1           0       -7.279499   -0.186289   -1.315850
     31          1           0       -5.405066    2.781088    1.168445
     32          1           0       -3.756403    1.093898    1.939324
     33          1           0        5.620606   -1.987939    0.508528
     34          1           0        7.116763   -0.306599    1.554053
     35          1           0        5.391551    2.761607   -0.916041
     36          1           0        3.884370    1.078239   -1.953038
 ---------------------------------------------------------------------

 SCF Done:  E(RB3LYP) =  -1947.67265841     a.u. after    1 cycles

 Excitation energies and oscillator strengths:

 Excited State   1:      Singlet-A      2.9280 eV  423.45 nm  f=0.0002  <S**2>=0.000
      92 -> 95         0.43313
      94 -> 95         0.54533
 This state for optimization and/or second-order correction.
 Total Energy, E(TD-HF/TD-DFT) =  -1947.56505785
 Copying the excited state density for this state as the 1-particle RhoCI density.

 Excited State   2:      Singlet-A      4.0355 eV  307.23 nm  f=0.0073  <S**2>=0.000
      92 -> 95        -0.16790
      93 -> 95         0.64441
      94 -> 95         0.23204

 Excited State   3:      Singlet-A      4.1171 eV  301.14 nm  f=0.0066  <S**2>=0.000
      92 -> 95         0.52215
      93 -> 95         0.27429
      94 -> 95        -0.38281

 Excited State   4:      Singlet-A      4.4823 eV  276.61 nm  f=0.0005  <S**2>=0.000
      91 -> 95         0.70569

 Excited State   5:      Singlet-A      4.5533 eV  272.30 nm  f=0.0005  <S**2>=0.000
      90 -> 95         0.70566

 Excited State   6:      Singlet-A      5.0466 eV  245.68 nm  f=0.1163  <S**2>=0.000
      86 -> 95        -0.15093
      89 -> 95         0.66743

 Excited State   7:      Singlet-A      5.1697 eV  239.83 nm  f=0.0052  <S**2>=0.000
      84 -> 95         0.10271
      85 -> 95         0.11033
      86 -> 95         0.63623
      88 -> 95         0.12054
      89 -> 95         0.16134

 Excited State   8:      Singlet-A      5.2366 eV  236.76 nm  f=0.0004  <S**2>=0.000
      91 -> 96         0.14907
      91 -> 97         0.42407
      92 -> 99         0.13583
      93 -> 99        -0.36237
      94 -> 99        -0.37513

 Excited State   9:      Singlet-A      5.2397 eV  236.62 nm  f=0.0020  <S**2>=0.000
      90 -> 96         0.40888
      90 -> 97        -0.14757
      92 -> 98        -0.20034
      93 -> 98        -0.35963
      94 -> 98         0.35056

 Excited State  10:      Singlet-A      5.4202 eV  228.74 nm  f=0.0349  <S**2>=0.000
      84 -> 95         0.14016
      85 -> 95         0.59020
      86 -> 95        -0.15197
      94 -> 96        -0.23429

 The electronic state is 1-A.
 Alpha  occ. eigenvalues -- -101.55615-101.55484 -19.22012 -19.21955 -19.16425
 Alpha  occ. eigenvalues --  -19.16290 -14.42983 -14.42919 -10.35981 -10.35763
 Alpha  occ. eigenvalues --  -10.26875 -10.26826 -10.26571 -10.26407 -10.21968
 Alpha  occ. eigenvalues --  -10.21751 -10.21659 -10.21606 -10.21571 -10.21549
 Alpha  occ. eigenvalues --  -10.21492 -10.21410 -10.21312 -10.21152  -9.47248
 Alpha  occ. eigenvalues --   -9.47116  -7.23645  -7.23512  -7.22677  -7.22639
 Alpha  occ. eigenvalues --   -7.22546  -7.22508  -1.14492  -1.13263  -1.06376
 Alpha  occ. eigenvalues --   -1.04650  -1.04243  -0.90192  -0.89996  -0.85543
 Alpha  occ. eigenvalues --   -0.85259  -0.81342  -0.78504  -0.77178  -0.76934
 Alpha  occ. eigenvalues --   -0.76541  -0.71379  -0.69620  -0.63689  -0.63478
 Alpha  occ. eigenvalues --   -0.62626  -0.60583  -0.59604  -0.57896  -0.56456
 Alpha  occ. eigenvalues --   -0.53173  -0.52905  -0.52037  -0.50872  -0.49932
 Alpha  occ. eigenvalues --   -0.49080  -0.48757  -0.48257  -0.47869  -0.47053
 Alpha  occ. eigenvalues --   -0.45468  -0.44818  -0.44532  -0.44202  -0.43796
 Alpha  occ. eigenvalues --   -0.42138  -0.41701  -0.40693  -0.40294  -0.40062
 Alpha  occ. eigenvalues --   -0.39812  -0.38701  -0.38123  -0.37200  -0.37042
 Alpha  occ. eigenvalues --   -0.36468  -0.34195  -0.33983  -0.32734  -0.32565
 Alpha  occ. eigenvalues --   -0.32201  -0.31999  -0.31861  -0.30951  -0.27476
 Alpha  occ. eigenvalues --   -0.27267  -0.26460  -0.25649  -0.25090
 Alpha virt. eigenvalues --   -0.08974  -0.03366  -0.03290  -0.02491  -0.02275
 Alpha virt. eigenvalues --    0.00018   0.00326   0.02105   0.02341   0.08974
 Alpha virt. eigenvalues --    0.09728   0.10666   0.10869   0.11620   0.11970

 Mulliken charges:
               1
     1  C    0.149885
     2  C   -0.155771
     3  O   -0.406912
     4  C    0.736047
     5  O   -0.416805
     6  N   -0.240166
     7  N   -0.244555
     8  C    0.742348
     9  O   -0.420825
    10  O   -0.411592
    11  C   -0.141794
    12  C    0.146953
    13  C   -0.163575
    14  C   -0.128454
    15  C   -0.061818
    16  C   -0.128510
    17  C   -0.156527
    18  Cl  -0.011281
    19  C   -0.164217
    20  C   -0.128219
    21  C   -0.062286
    22  C   -0.129287
    23  C   -0.171707
    24  Cl  -0.012987
    25  H    0.173954
    26  H    0.186850
    27  H    0.176636
    28  H    0.177955
    29  H    0.147387
    30  H    0.162589
    31  H    0.163214
    32  H    0.150089
    33  H    0.147137
    34  H    0.161724
    35  H    0.163416
    36  H    0.171107
 Sum of Mulliken charges =  -0.00000

 Dipole moment (field-independent basis, Debye):
    X=              0.1078    Y=             -1.0452    Z=             -0.0189  Tot=              1.0509
 Quadrupole moment (field-independent basis, Debye-Ang):
   XX=           -138.9335   YY=           -151.6590   ZZ=           -147.3764
   XY=             -2.5780   XZ=             -6.9936   YZ=              6.3099

 Summary of Natural Population Analysis:

                                       Natural Population
                Natural  -----------------------------------------------
    Atom  No    Charge         Core      Valence    Rydberg      Total
 -----------------------------------------------------------------------
      C    1   -0.09403      1.99901     4.08064    0.01439     6.09403
      C    2   -0.12592      1.99912     4.10760    0.01920     6.12592
      O    3   -0.52098      1.99973     6.50891    0.01233     8.52098
      C    4    0.92296      1.99950     3.02695    0.05059     5.07704
      O    5   -0.55253      1.99977     6.53208    0.02068     8.55253
      N    6   -0.21842      1.99938     5.19280    0.02623     7.21842
      N    7   -0.21775      1.99939     5.19202    0.02634     7.21775
      C    8    0.91634      1.99951     3.03401    0.05013     5.08366
      O    9   -0.54610      1.99978     6.52557    0.02075     8.54610
      O   10   -0.52479      1.99972     6.51278    0.01229     8.52479
      C   11   -0.12420      1.99914     4.10697    0.01809     6.12420
      C   12   -0.08354      1.99901     4.06938    0.01515     6.08354
      C   13   -0.19742      1.99903     4.18542    0.01298     6.19742
      C   14   -0.24194      1.99894     4.22809    0.01492     6.24194
      C   15   -0.03527      1.99856     4.01493    0.02179     6.03527
      C   16   -0.24119      1.99894     4.22734    0.01491     6.24119
      C   17   -0.19482      1.99903     4.18270    0.01310     6.19482
     Cl   18    0.00491      9.99967     6.97610    0.01933    16.99509
      C   19   -0.19865      1.99903     4.18650    0.01311     6.19865
      C   20   -0.24332      1.99893     4.22946    0.01492     6.24332
      C   21   -0.03505      1.99856     4.01472    0.02177     6.03505
      C   22   -0.24236      1.99894     4.22848    0.01494     6.24236
      C   23   -0.19864      1.99903     4.18624    0.01336     6.19864
     Cl   24    0.00343      9.99967     6.97760    0.01930    16.99657
      H   25    0.24379      0.00000     0.75505    0.00116     0.75621
      H   26    0.24430      0.00000     0.75359    0.00211     0.75570
      H   27    0.23925      0.00000     0.75897    0.00177     0.76075
      H   28    0.23914      0.00000     0.75898    0.00189     0.76086
      H   29    0.24465      0.00000     0.75439    0.00096     0.75535
      H   30    0.25721      0.00000     0.74178    0.00101     0.74279
      H   31    0.25747      0.00000     0.74152    0.00101     0.74253
      H   32    0.24624      0.00000     0.75277    0.00099     0.75376
      H   33    0.24446      0.00000     0.75454    0.00100     0.75554
      H   34    0.25678      0.00000     0.74221    0.00101     0.74322
      H   35    0.25757      0.00000     0.74143    0.00100     0.74243
      H   36    0.25842      0.00000     0.74019    0.00139     0.74158
 =======================================================================
   * Total *   -0.00000     63.98137   123.52272    0.49591   188.00000

 Normal termination of Gaussian 16 at Sat Aug 22 17:13:36 2020.
