 Gaussian 16, Revision A.03,

 ---------------------------------
 # opt=CalcAll B3LYP/6-31G* scf=qc
 ---------------------------------

 -------------------
 Title Card Required
 -------------------
 Symbolic Z-matrix:
 Charge =  0 Multiplicity = 1

 SCF Done:  E(RB3LYP) =  -723.597975651     a.u. after   10 cycles
 SCF Done:  E(RB3LYP) =  -723.611040626     a.u. after   15 cycles
 SCF Done:  E(RB3LYP) =  -723.640409765     a.u. after   15 cycles
 SCF Done:  E(RB3LYP) =  -723.646781213     a.u. after   25 cycles
 SCF Done:  E(RB3LYP) =  -723.648937678     a.u. after   23 cycles
 SCF Done:  E(RB3LYP) =  -723.649222284     a.u. after   13 cycles
 SCF Done:  E(RB3LYP) =  -723.649191363     a.u. after   23 cycles
 SCF Done:  E(RB3LYP) =  -723.649313657     a.u. after   17 cycles
 SCF Done:  E(RB3LYP) =  -723.648184086     a.u. after   27 cycles
 SCF Done:  E(RB3LYP) =  -723.649354053     a.u. after    8 cycles
 SCF Done:  E(RB3LYP) =  -723.649371818     a.u. after    9 cycles
 SCF Done:  E(RB3LYP) =  -723.649371961     a.u. after    3 cycles
 Optimization completed.
    -- Stationary point found.
 Normal termination of Gaussian 16 at Sat Aug 22 14:19:48 2020.

 ----------------------------------------------------------------------
 # freq B3LYP/6-31G* scf=qc volume NMR pop=NPA density=current Geom=All
 Check Guess=Read
 ----------------------------------------------------------------------

 Structure from the checkpoint file:  "azadicarboxylate_2_conf302.chk"
 -------------------
 Title Card Required
 -------------------
 Charge =  0 Multiplicity = 1

 SCF Done:  E(RB3LYP) =  -723.649371961     a.u. after    1 cycles

      1  C    Isotropic =   168.2791   Anisotropy =    30.3497

      2  C    Isotropic =   118.5378   Anisotropy =    64.7625

      3  C    Isotropic =   169.0177   Anisotropy =    30.5598

      4  O    Isotropic =   134.3806   Anisotropy =   116.3276

      5  C    Isotropic =    34.8093   Anisotropy =    78.2992

      6  O    Isotropic =   -19.5880   Anisotropy =   496.7859

      7  N    Isotropic =  -319.1312   Anisotropy =   668.8315

      8  N    Isotropic =  -321.7635   Anisotropy =   671.2577

      9  C    Isotropic =    35.3260   Anisotropy =    79.1969

     10  O    Isotropic =   -27.2025   Anisotropy =   484.0339

     11  O    Isotropic =   138.4092   Anisotropy =   143.0807

     12  C    Isotropic =   113.3733   Anisotropy =    72.2721

     13  C    Isotropic =   169.6167   Anisotropy =    27.7814

     14  C    Isotropic =   170.6362   Anisotropy =    27.5260

     15  H    Isotropic =    31.1356   Anisotropy =     8.4711

     16  H    Isotropic =    30.7918   Anisotropy =     6.4950

     17  H    Isotropic =    30.7468   Anisotropy =     8.6918

     18  H    Isotropic =    26.9538   Anisotropy =     2.5225

     19  H    Isotropic =    30.9769   Anisotropy =     6.6318

     20  H    Isotropic =    31.1412   Anisotropy =     8.6001

     21  H    Isotropic =    30.1997   Anisotropy =     7.3532

     22  H    Isotropic =    27.6279   Anisotropy =     4.5126

     23  H    Isotropic =    29.7712   Anisotropy =     5.2622

     24  H    Isotropic =    30.6864   Anisotropy =     8.1295

     25  H    Isotropic =    31.1997   Anisotropy =     8.5140

     26  H    Isotropic =    29.6216   Anisotropy =     5.5577

     27  H    Isotropic =    31.1577   Anisotropy =     8.3775

     28  H    Isotropic =    30.6334   Anisotropy =     8.1791

  Exact polarizability: 154.144   3.460  98.031   0.355  -2.463  86.134
 Approx polarizability: 169.475  11.712 159.091  -1.732 -15.845 129.956

                      1                      2                      3
                      A                      A                      A
 Frequencies --     10.8563                36.8567                49.7253
 Red. masses --      4.2641                 3.2220                 4.9644
 Frc consts  --      0.0003                 0.0026                 0.0072
 IR Inten    --      2.6572                 0.9569                 1.8902

                      4                      5                      6
                      A                      A                      A
 Frequencies --     55.8154                59.0469                82.0449
 Red. masses --      4.5674                 6.1310                 4.9675
 Frc consts  --      0.0084                 0.0126                 0.0197
 IR Inten    --      0.7127                 0.4075                 0.5434

                      7                      8                      9
                      A                      A                      A
 Frequencies --    111.0391               188.0768               199.2509
 Red. masses --      3.5241                 3.9706                 4.9946
 Frc consts  --      0.0256                 0.0828                 0.1168
 IR Inten    --      0.2867                 0.7201                 3.0411

                     10                     11                     12
                      A                      A                      A
 Frequencies --    203.7169               221.8832               227.1368
 Red. masses --      5.6839                 1.1710                 2.9211
 Frc consts  --      0.1390                 0.0340                 0.0888
 IR Inten    --      2.0481                 1.6611                15.6449

                     13                     14                     15
                      A                      A                      A
 Frequencies --    231.6174               250.3109               264.6536
 Red. masses --      1.0980                 1.0576                 1.2967
 Frc consts  --      0.0347                 0.0390                 0.0535
 IR Inten    --      0.2339                 0.0217                 4.0086

                     16                     17                     18
                      A                      A                      A
 Frequencies --    330.8997               344.3412               413.1793
 Red. masses --      2.6697                 2.9431                 3.2618
 Frc consts  --      0.1722                 0.2056                 0.3281
 IR Inten    --      0.0644                 2.8302                 4.0176

                     19                     20                     21
                      A                      A                      A
 Frequencies --    421.8831               432.9790               455.1283
 Red. masses --      3.7734                 5.8881                 2.8482
 Frc consts  --      0.3957                 0.6504                 0.3476
 IR Inten    --      9.4553                 0.5231                 1.4213

                     22                     23                     24
                      A                      A                      A
 Frequencies --    484.8865               569.4333               609.6406
 Red. masses --      2.8338                 4.9461                 7.6970
 Frc consts  --      0.3926                 0.9449                 1.6855
 IR Inten    --      7.4468                 7.4640                 3.1255

                     25                     26                     27
                      A                      A                      A
 Frequencies --    661.5018               795.0082               815.5437
 Red. masses --      7.6049                 4.5581                12.0828
 Frc consts  --      1.9607                 1.6974                 4.7349
 IR Inten    --     12.8448                 9.4523                32.7661

                     28                     29                     30
                      A                      A                      A
 Frequencies --    833.2225               860.6473               909.7910
 Red. masses --      3.7077                 6.2412                 3.4477
 Frc consts  --      1.5166                 2.7237                 1.6814
 IR Inten    --     20.4592                 2.6926                57.3160

                     31                     32                     33
                      A                      A                      A
 Frequencies --    916.7118               950.3712               950.9551
 Red. masses --      3.0106                 1.2825                 1.2519
 Frc consts  --      1.4906                 0.6825                 0.6670
 IR Inten    --      3.1145                 1.3634                 0.6380

                     34                     35                     36
                      A                      A                      A
 Frequencies --    957.4817               962.0929               972.9166
 Red. masses --      1.3107                 1.3852                 4.7010
 Frc consts  --      0.7080                 0.7554                 2.6218
 IR Inten    --      0.4959                 4.9311                16.5874

                     37                     38                     39
                      A                      A                      A
 Frequencies --   1000.6331              1144.0691              1168.1621
 Red. masses --      8.5185                 1.8274                 1.9220
 Frc consts  --      5.0253                 1.4093                 1.5453
 IR Inten    --      6.7764               241.2699               114.3639

                     40                     41                     42
                      A                      A                      A
 Frequencies --   1171.9646              1175.4141              1218.3587
 Red. masses --      2.1506                 2.0366                 1.9564
 Frc consts  --      1.7404                 1.6578                 1.7110
 IR Inten    --     13.3954                 9.5307                40.9771

                     43                     44                     45
                      A                      A                      A
 Frequencies --   1219.1633              1261.4125              1280.1631
 Red. masses --      1.9299                 5.3315                 6.5457
 Frc consts  --      1.6901                 4.9982                 6.3203
 IR Inten    --      4.9403              1092.3634               175.8144

                     46                     47                     48
                      A                      A                      A
 Frequencies --   1384.8226              1391.6355              1397.6743
 Red. masses --      1.4080                 1.3203                 1.2536
 Frc consts  --      1.5909                 1.5065                 1.4429
 IR Inten    --     11.4326                 3.1542                 4.8810

                     49                     50                     51
                      A                      A                      A
 Frequencies --   1420.5402              1430.6027              1433.9720
 Red. masses --      1.3031                 1.3279                 1.3432
 Frc consts  --      1.5493                 1.6012                 1.6273
 IR Inten    --     22.0175                18.5727                19.3866

                     52                     53                     54
                      A                      A                      A
 Frequencies --   1444.8480              1448.8532              1511.3324
 Red. masses --      1.2415                 1.2569                 1.0483
 Frc consts  --      1.5270                 1.5545                 1.4107
 IR Inten    --     17.7653                 6.6465                 0.1356

                     55                     56                     57
                      A                      A                      A
 Frequencies --   1511.8444              1516.5199              1522.3405
 Red. masses --      1.0540                 1.0443                 1.0469
 Frc consts  --      1.4194                 1.4150                 1.4295
 IR Inten    --      1.8331                 1.2107                17.2222

                     58                     59                     60
                      A                      A                      A
 Frequencies --   1525.6391              1526.7097              1539.7968
 Red. masses --      1.0505                 1.0484                 1.0495
 Frc consts  --      1.4406                 1.4397                 1.4661
 IR Inten    --      3.8512                 0.0618                 9.7172

                     61                     62                     63
                      A                      A                      A
 Frequencies --   1546.7084              1651.0457              1832.9853
 Red. masses --      1.0539                13.9730                12.3473
 Frc consts  --      1.4855                22.4418                24.4423
 IR Inten    --      7.3235                 0.0499                 0.2923

                     64                     65                     66
                      A                      A                      A
 Frequencies --   1847.1460              3058.5198              3062.5006
 Red. masses --     12.3392                 1.0354                 1.0373
 Frc consts  --     24.8050                 5.7066                 5.7321
 IR Inten    --    542.7609                10.6457                15.8042

                     67                     68                     69
                      A                      A                      A
 Frequencies --   3063.0890              3066.6458              3097.2432
 Red. masses --      1.0359                 1.0381                 1.0868
 Frc consts  --      5.7263                 5.7519                 6.1424
 IR Inten    --     15.5061                11.1063                18.7118

                     70                     71                     72
                      A                      A                      A
 Frequencies --   3102.1855              3126.7869              3127.5343
 Red. masses --      1.0879                 1.1029                 1.1016
 Frc consts  --      6.1685                 6.3529                 6.3485
 IR Inten    --      1.2682                 2.1426                11.9463

                     73                     74                     75
                      A                      A                      A
 Frequencies --   3130.3537              3136.5120              3141.2886
 Red. masses --      1.1019                 1.1014                 1.1028
 Frc consts  --      6.3620                 6.3840                 6.4117
 IR Inten    --     32.0058                41.0273                19.3656

                     76                     77                     78
                      A                      A                      A
 Frequencies --   3146.8178              3161.5853              3166.3277
 Red. masses --      1.1027                 1.1022                 1.1011
 Frc consts  --      6.4338                 6.4914                 6.5041
 IR Inten    --     17.9755                 1.9516                20.6282

 - Thermochemistry -
 -------------------
 Temperature   298.150 Kelvin.  Pressure   1.00000 Atm.
 Atom     1 has atomic number  6 and mass  12.00000

 Molecular mass:   202.09536 amu.
 Principal axes and moments of inertia in atomic units:
                           1         2         3
     Eigenvalues --   942.380657414.445617722.97919
           X            0.99997  -0.00742   0.00179
           Y            0.00723   0.99574   0.09196
           Z           -0.00246  -0.09194   0.99576
 This molecule is an asymmetric top.
 Rotational symmetry number  1.
 Warning -- assumption of classical behavior for rotation
           may cause significant error
 Rotational temperatures (Kelvin)      0.09191     0.01168     0.01122
 Rotational constants (GHZ):           1.91509     0.24341     0.23368
 Zero-point vibrational energy     597848.1 (Joules/Mol)
                                  142.88912 (Kcal/Mol)
 Warning -- explicit consideration of  24 degrees of freedom as
           vibrations may cause significant error
 Vibrational temperatures:     15.62    53.03    71.54    80.31    84.96
          (Kelvin)            118.04   159.76   270.60   286.68   293.10
                              319.24   326.80   333.25   360.14   380.78
                              476.09   495.43   594.47   607.00   622.96
                              654.83   697.64   819.29   877.14   951.75
                             1143.84  1173.39  1198.82  1238.28  1308.99
                             1318.94  1367.37  1368.21  1377.60  1384.24
                             1399.81  1439.69  1646.06  1680.72  1686.20
                             1691.16  1752.95  1754.10  1814.89  1841.87
                             1992.45  2002.25  2010.94  2043.84  2058.32
                             2063.17  2078.81  2084.58  2174.47  2175.21
                             2181.93  2190.31  2195.05  2196.59  2215.42
                             2225.37  2375.49  2637.26  2657.63  4400.53
                             4406.26  4407.10  4412.22  4456.24  4463.35
                             4498.75  4499.82  4503.88  4512.74  4519.61
                             4527.57  4548.82  4555.64

 Zero-point correction=                           0.227708 (Hartree/Particle)
 Thermal correction to Energy=                    0.243930
 Thermal correction to Enthalpy=                  0.244875
 Thermal correction to Gibbs Free Energy=         0.181161
 Sum of electronic and zero-point Energies=           -723.421664
 Sum of electronic and thermal Energies=              -723.405442
 Sum of electronic and thermal Enthalpies=            -723.404497
 Sum of electronic and thermal Free Energies=         -723.468211

                     E (Thermal)             CV                S
                      KCal/Mol        Cal/Mol-Kelvin    Cal/Mol-Kelvin
 Total                  153.069             56.265            134.097
 Electronic               0.000              0.000              0.000
 Translational            0.889              2.981             41.815
 Rotational               0.889              2.981             32.356
 Vibrational            151.291             50.303             59.925
 Vibration     1          0.593              1.987              7.848
 Vibration     2          0.594              1.982              5.421
 Vibration     3          0.595              1.978              4.828
 Vibration     4          0.596              1.975              4.600
 Vibration     5          0.596              1.974              4.489
 Vibration     6          0.600              1.961              3.841
 Vibration     7          0.607              1.940              3.251
 Vibration     8          0.633              1.856              2.247
 Vibration     9          0.637              1.841              2.140
 Vibration    10          0.639              1.835              2.099
 Vibration    11          0.648              1.808              1.944
 Vibration    12          0.651              1.800              1.901
 Vibration    13          0.653              1.793              1.866
 Vibration    14          0.663              1.762              1.728
 Vibration    15          0.671              1.738              1.631
 Vibration    16          0.713              1.614              1.256
 Vibration    17          0.723              1.587              1.192
 Vibration    18          0.777              1.442              0.915
 Vibration    19          0.784              1.423              0.886
 Vibration    20          0.794              1.398              0.849
 Vibration    21          0.813              1.350              0.780
 Vibration    22          0.841              1.284              0.697
 Vibration    23          0.925              1.097              0.505
 Vibration    24          0.969              1.011              0.433

 Optimization completed.
    -- Stationary point found.
 Normal termination of Gaussian 16 at Sat Aug 22 14:24:05 2020.
 Gaussian 16:  ES64L-G16RevA.03 25-Dec-2016

 ----------------------------------------------------------------------
 # TD(NStates=10, Root=1) B3LYP/6-31G* scf=qc volume pop=NPA density=cu
 rrent Geom=AllCheck Guess=Read
 ----------------------------------------------------------------------

 Structure from the checkpoint file:  "azadicarboxylate_2_conf303.chk"
 -------------------
 Title Card Required
 -------------------
 Charge =  0 Multiplicity = 1

                         Standard orientation:
 ---------------------------------------------------------------------
 Center     Atomic      Atomic             Coordinates (Angstroms)
 Number     Number       Type             X           Y           Z
 ---------------------------------------------------------------------
      1          6           0       -4.375191    1.620158    0.186949
      2          6           0       -3.870958    0.185797    0.159622
      3          6           0       -4.543685   -0.688850   -0.890948
      4          8           0       -2.434731    0.278946   -0.141692
      5          6           0       -1.663925   -0.714926    0.288215
      6          8           0       -1.984697   -1.698978    0.907642
      7          7           0       -0.306633   -0.543018   -0.192979
      8          7           0        0.338728    0.294817    0.464667
      9          6           0        1.696191    0.470359   -0.021590
     10          8           0        1.994469    1.446502   -0.665009
     11          8           0        2.466811   -0.505882    0.439905
     12          6           0        3.918944   -0.481537    0.184287
     13          6           0        4.213721   -0.616695   -1.305760
     14          6           0        4.575688    0.719725    0.856166
     15          1           0       -5.441052    1.633410    0.438719
     16          1           0       -4.244660    2.096833   -0.790382
     17          1           0       -3.834945    2.208773    0.934440
     18          1           0       -3.959564   -0.277186    1.146184
     19          1           0       -4.405154   -0.265634   -1.891736
     20          1           0       -5.618613   -0.752217   -0.688477
     21          1           0       -4.133645   -1.702473   -0.872664
     22          1           0        4.229011   -1.395897    0.697580
     23          1           0        3.925559    0.284358   -1.851517
     24          1           0        3.679016   -1.474328   -1.726405
     25          1           0        5.287762   -0.783161   -1.445705
     26          1           0        4.293525    1.654199    0.366438
     27          1           0        5.664583    0.610376    0.800387
     28          1           0        4.293989    0.771458    1.912895
 ---------------------------------------------------------------------

 SCF Done:  E(RB3LYP) =  -723.649371961     a.u. after    1 cycles

 Excitation energies and oscillator strengths:

 Excited State   1:      Singlet-A      2.9530 eV  419.87 nm  f=0.0000  <S**2>=0.000
      54 -> 55         0.70060
 This state for optimization and/or second-order correction.
 Total Energy, E(TD-HF/TD-DFT) =  -723.540852958
 Copying the excited state density for this state as the 1-particle RhoCI density.

 Excited State   2:      Singlet-A      4.9884 eV  248.54 nm  f=0.0751  <S**2>=0.000
      53 -> 55         0.68735

 Excited State   3:      Singlet-A      5.1515 eV  240.68 nm  f=0.0041  <S**2>=0.000
      50 -> 55         0.10427
      51 -> 55         0.20147
      52 -> 55         0.64703
      53 -> 55         0.10012

 Excited State   4:      Singlet-A      5.3848 eV  230.25 nm  f=0.0158  <S**2>=0.000
      50 -> 55         0.17246
      51 -> 55         0.64151
      52 -> 55        -0.22642

 Excited State   5:      Singlet-A      5.4184 eV  228.82 nm  f=0.0038  <S**2>=0.000
      50 -> 55         0.67262
      51 -> 55        -0.19778

 Excited State   6:      Singlet-A      5.6446 eV  219.65 nm  f=0.0053  <S**2>=0.000
      53 -> 56        -0.16171
      54 -> 56         0.65539
      54 -> 57         0.14439

 Excited State   7:      Singlet-A      5.7306 eV  216.36 nm  f=0.0111  <S**2>=0.000
      53 -> 57         0.13656
      54 -> 56        -0.14306
      54 -> 57         0.65918

 Excited State   8:      Singlet-A      6.4910 eV  191.01 nm  f=0.0003  <S**2>=0.000
      48 -> 55         0.18498
      49 -> 55         0.66522

 Excited State   9:      Singlet-A      6.5960 eV  187.97 nm  f=0.0003  <S**2>=0.000
      45 -> 55        -0.18480
      48 -> 55         0.63534
      49 -> 55        -0.18844

 Excited State  10:      Singlet-A      6.7025 eV  184.98 nm  f=0.0129  <S**2>=0.000
      52 -> 56        -0.22773
      52 -> 57        -0.15594
      53 -> 56         0.57620
      53 -> 57         0.13228
      54 -> 56         0.16932
      54 -> 57         0.10303

 The electronic state is 1-A.
 Alpha  occ. eigenvalues --  -19.20771 -19.20710 -19.15319 -19.15273 -14.41920
 Alpha  occ. eigenvalues --  -14.41866 -10.35021 -10.34879 -10.26491 -10.26078
 Alpha  occ. eigenvalues --  -10.19027 -10.18883 -10.18827 -10.18750  -1.13362
 Alpha  occ. eigenvalues --   -1.12084  -1.05259  -1.03662  -1.03223  -0.82214
 Alpha  occ. eigenvalues --   -0.80498  -0.76390  -0.70485  -0.70392  -0.66494
 Alpha  occ. eigenvalues --   -0.63256  -0.57871  -0.56252  -0.52257  -0.50830
 Alpha  occ. eigenvalues --   -0.49980  -0.48482  -0.47597  -0.46572  -0.46403
 Alpha  occ. eigenvalues --   -0.44291  -0.43058  -0.41880  -0.41436  -0.41312
 Alpha  occ. eigenvalues --   -0.40341  -0.39601  -0.39215  -0.38197  -0.37400
 Alpha  occ. eigenvalues --   -0.36909  -0.36474  -0.35354  -0.34794  -0.31456
 Alpha  occ. eigenvalues --   -0.31349  -0.30979  -0.29586  -0.24700
 Alpha virt. eigenvalues --   -0.07868   0.00789   0.01111   0.08676   0.08860
 Alpha virt. eigenvalues --    0.10471   0.10782   0.13325   0.13808   0.14536
 Alpha virt. eigenvalues --    0.14812   0.15686   0.16574   0.16989   0.17339

 Mulliken charges:
               1
     1  C   -0.454169
     2  C    0.117092
     3  C   -0.460020
     4  O   -0.423039
     5  C    0.734673
     6  O   -0.420957
     7  N   -0.244251
     8  N   -0.238088
     9  C    0.735522
    10  O   -0.419353
    11  O   -0.430650
    12  C    0.130023
    13  C   -0.470695
    14  C   -0.472043
    15  H    0.154028
    16  H    0.163964
    17  H    0.167253
    18  H    0.168306
    19  H    0.160763
    20  H    0.155040
    21  H    0.176226
    22  H    0.159369
    23  H    0.187080
    24  H    0.165042
    25  H    0.152907
    26  H    0.187307
    27  H    0.154886
    28  H    0.163785
 Sum of Mulliken charges =   0.00000

 Dipole moment (field-independent basis, Debye):
    X=              0.2271    Y=              0.2142    Z=             -0.1665  Tot=              0.3538
 Quadrupole moment (field-independent basis, Debye-Ang):
   XX=            -51.9349   YY=            -88.4196   ZZ=            -82.8090
   XY=             -7.0606   XZ=              2.4799   YZ=              4.9192

 Summary of Natural Population Analysis:

                                       Natural Population
                Natural  -----------------------------------------------
    Atom  No    Charge         Core      Valence    Rydberg      Total
 -----------------------------------------------------------------------
      C    1   -0.69629      1.99939     4.68781    0.00908     6.69629
      C    2    0.08284      1.99912     3.90061    0.01743     5.91716
      C    3   -0.70450      1.99939     4.69658    0.00853     6.70450
      O    4   -0.53683      1.99971     6.52435    0.01276     8.53683
      C    5    0.92002      1.99950     3.02945    0.05103     5.07998
      O    6   -0.55060      1.99977     6.53024    0.02059     8.55060
      N    7   -0.22032      1.99938     5.19467    0.02627     7.22032
      N    8   -0.21768      1.99939     5.19183    0.02646     7.21768
      C    9    0.91859      1.99951     3.02958    0.05233     5.08141
      O   10   -0.55066      1.99977     6.53048    0.02041     8.55066
      O   11   -0.53082      1.99972     6.51906    0.01205     8.53082
      C   12    0.08539      1.99912     3.89724    0.01826     5.91461
      C   13   -0.70946      1.99939     4.70209    0.00797     6.70946
      C   14   -0.71053      1.99939     4.70303    0.00811     6.71053
      H   15    0.24059      0.00000     0.75875    0.00067     0.75941
      H   16    0.23941      0.00000     0.75931    0.00128     0.76059
      H   17    0.24670      0.00000     0.75234    0.00097     0.75330
      H   18    0.24379      0.00000     0.75353    0.00268     0.75621
      H   19    0.23700      0.00000     0.76163    0.00136     0.76300
      H   20    0.24183      0.00000     0.75744    0.00073     0.75817
      H   21    0.24998      0.00000     0.74889    0.00113     0.75002
      H   22    0.24669      0.00000     0.75164    0.00167     0.75331
      H   23    0.25199      0.00000     0.74664    0.00136     0.74801
      H   24    0.24415      0.00000     0.75479    0.00106     0.75585
      H   25    0.24089      0.00000     0.75836    0.00074     0.75911
      H   26    0.25186      0.00000     0.74667    0.00147     0.74814
      H   27    0.24259      0.00000     0.75668    0.00072     0.75741
      H   28    0.24339      0.00000     0.75556    0.00105     0.75661
 =======================================================================
   * Total *    0.00000     27.99257    79.69926    0.30818   108.00000

 Normal termination of Gaussian 16 at Sat Aug 22 14:29:05 2020.
