 Gaussian 16, Revision A.03,

 ---------------------------------
 # opt=CalcAll B3LYP/6-31G* scf=qc
 ---------------------------------

 -------------------
 Title Card Required
 -------------------
 Symbolic Z-matrix:
 Charge =  0 Multiplicity = 1

 SCF Done:  E(RB3LYP) =  -1947.64617056     a.u. after    9 cycles
 SCF Done:  E(RB3LYP) =  -1947.66608724     a.u. after   19 cycles
 SCF Done:  E(RB3LYP) =  -1947.67003092     a.u. after   22 cycles
 SCF Done:  E(RB3LYP) =  -1947.67139365     a.u. after   23 cycles
 SCF Done:  E(RB3LYP) =  -1947.67193770     a.u. after   17 cycles
 SCF Done:  E(RB3LYP) =  -1947.67244336     a.u. after   17 cycles
 SCF Done:  E(RB3LYP) =  -1947.67250591     a.u. after   19 cycles
 SCF Done:  E(RB3LYP) =  -1947.67334708     a.u. after   13 cycles
 SCF Done:  E(RB3LYP) =  -1947.67339719     a.u. after   15 cycles
 SCF Done:  E(RB3LYP) =  -1947.67339837     a.u. after    9 cycles
 SCF Done:  E(RB3LYP) =  -1947.67339840     a.u. after    9 cycles
 SCF Done:  E(RB3LYP) =  -1947.67339840     a.u. after    4 cycles
 Optimization completed on the basis of negligible forces.
    -- Stationary point found.
 Normal termination of Gaussian 16 at Sat Aug 22 16:58:10 2020.

 ----------------------------------------------------------------------
 # freq B3LYP/6-31G* scf=qc volume NMR pop=NPA density=current Geom=All
 Check Guess=Read
 ----------------------------------------------------------------------

 Structure from the checkpoint file:  "azadicarboxylate_3_conf122.chk"
 -------------------
 Title Card Required
 -------------------
 Charge =  0 Multiplicity = 1

 SCF Done:  E(RB3LYP) =  -1947.67339840     a.u. after    1 cycles

      1  C    Isotropic =    63.7153   Anisotropy =   172.1084

      2  C    Isotropic =   121.4874   Anisotropy =    40.3049

      3  O    Isotropic =   141.7987   Anisotropy =   143.1682

      4  C    Isotropic =    34.2462   Anisotropy =    80.9148

      5  O    Isotropic =   -20.9285   Anisotropy =   485.6352

      6  N    Isotropic =  -334.3652   Anisotropy =   687.4001

      7  N    Isotropic =  -332.0650   Anisotropy =   686.4968

      8  C    Isotropic =    34.7760   Anisotropy =    80.2694

      9  O    Isotropic =   -20.3399   Anisotropy =   475.2344

     10  O    Isotropic =   138.8248   Anisotropy =   154.7035

     11  C    Isotropic =   121.6537   Anisotropy =    39.8319

     12  C    Isotropic =    63.6821   Anisotropy =   172.1435

     13  C    Isotropic =    64.1229   Anisotropy =   152.4922

     14  C    Isotropic =    67.3478   Anisotropy =   141.1364

     15  C    Isotropic =    51.1068   Anisotropy =   111.2744

     16  C    Isotropic =    66.7174   Anisotropy =   142.3700

     17  C    Isotropic =    62.6684   Anisotropy =   159.0527

     18  Cl   Isotropic =   717.9471   Anisotropy =   454.3824

     19  C    Isotropic =    62.7928   Anisotropy =   160.1642

     20  C    Isotropic =    66.6635   Anisotropy =   142.8239

     21  C    Isotropic =    51.2214   Anisotropy =   111.3871

     22  C    Isotropic =    67.4931   Anisotropy =   141.1322

     23  C    Isotropic =    64.2667   Anisotropy =   151.9308

     24  Cl   Isotropic =   718.0949   Anisotropy =   454.5194

     25  H    Isotropic =    26.4457   Anisotropy =     3.0689

     26  H    Isotropic =    27.6724   Anisotropy =     5.2651

     27  H    Isotropic =    26.5297   Anisotropy =     3.0541

     28  H    Isotropic =    27.7105   Anisotropy =     5.4096

     29  H    Isotropic =    24.9842   Anisotropy =     6.2321

     30  H    Isotropic =    25.0999   Anisotropy =     6.9228

     31  H    Isotropic =    25.0458   Anisotropy =     7.1359

     32  H    Isotropic =    24.3510   Anisotropy =     7.4119

     33  H    Isotropic =    24.4668   Anisotropy =     7.6661

     34  H    Isotropic =    25.1132   Anisotropy =     7.1271

     35  H    Isotropic =    25.1561   Anisotropy =     6.7420

     36  H    Isotropic =    25.0610   Anisotropy =     6.3123

  Exact polarizability: 202.296 -14.538 236.947 -10.296  -1.176 187.535
 Approx polarizability: 238.602 -22.609 365.191 -19.624 -11.335 343.744

                      1                      2                      3
                      A                      A                      A
 Frequencies --      1.3459                 9.2626                21.5054
 Red. masses --      7.1129                13.3157                 5.6385
 Frc consts  --      0.0000                 0.0007                 0.0015
 IR Inten    --      0.2235                 0.0779                 0.1295

                      4                      5                      6
                      A                      A                      A
 Frequencies --     24.4898                28.7312                45.1069
 Red. masses --      4.6886                 6.5381                10.1784
 Frc consts  --      0.0017                 0.0032                 0.0122
 IR Inten    --      0.3081                 0.1451                 2.4315

                      7                      8                      9
                      A                      A                      A
 Frequencies --     48.7361                65.4638                74.6977
 Red. masses --     10.6793                 8.6413                 7.6918
 Frc consts  --      0.0149                 0.0218                 0.0253
 IR Inten    --      0.4820                 0.6850                 0.8567

                     10                     11                     12
                      A                      A                      A
 Frequencies --     90.1363               104.6188               154.0182
 Red. masses --     10.7038                 9.6847                10.4517
 Frc consts  --      0.0512                 0.0625                 0.1461
 IR Inten    --      0.3757                 0.3411                 0.8674

                     13                     14                     15
                      A                      A                      A
 Frequencies --    197.2321               207.1583               219.7035
 Red. masses --      9.9718                 8.9893                 8.4746
 Frc consts  --      0.2285                 0.2273                 0.2410
 IR Inten    --      6.0171                 1.1964                 1.9142

                     16                     17                     18
                      A                      A                      A
 Frequencies --    248.7258               261.1695               293.6403
 Red. masses --     11.5528                 9.0409                 4.3872
 Frc consts  --      0.4211                 0.3633                 0.2229
 IR Inten    --      1.4797                 1.5076                 4.1464

                     19                     20                     21
                      A                      A                      A
 Frequencies --    303.2447               322.4454               354.3077
 Red. masses --      5.1162                 8.5678                 7.9069
 Frc consts  --      0.2772                 0.5248                 0.5848
 IR Inten    --      2.8128                 0.6743                 2.6756

                     22                     23                     24
                      A                      A                      A
 Frequencies --    375.7408               388.0447               410.8328
 Red. masses --      2.8338                 2.3627                 6.1299
 Frc consts  --      0.2357                 0.2096                 0.6096
 IR Inten    --      0.3864                 7.2463                38.7975

                     25                     26                     27
                      A                      A                      A
 Frequencies --    420.5539               420.6465               433.4006
 Red. masses --      3.0351                 3.0494                 6.5360
 Frc consts  --      0.3163                 0.3179                 0.7233
 IR Inten    --      0.0111                 1.0281                21.0450

                     28                     29                     30
                      A                      A                      A
 Frequencies --    459.0071               516.2357               543.2659
 Red. masses --      5.1359                 4.2138                 4.1560
 Frc consts  --      0.6375                 0.6616                 0.7227
 IR Inten    --      2.9943                14.1180                30.2644

                     31                     32                     33
                      A                      A                      A
 Frequencies --    595.9683               626.6993               641.3404
 Red. masses --      5.9267                10.3030                 7.3587
 Frc consts  --      1.2403                 2.3841                 1.7833
 IR Inten    --      9.3412                 1.3969                 4.2411

                     34                     35                     36
                      A                      A                      A
 Frequencies --    648.2455               648.4601               664.7741
 Red. masses --      6.5704                 6.8312                 4.9743
 Frc consts  --      1.6267                 1.6924                 1.2952
 IR Inten    --      0.3559                 0.0287                 0.4101

                     37                     38                     39
                      A                      A                      A
 Frequencies --    667.2226               737.5871               738.2601
 Red. masses --      5.0258                 4.2284                 4.2349
 Frc consts  --      1.3183                 1.3554                 1.3599
 IR Inten    --      6.5886                 0.2611                 7.1596

                     40                     41                     42
                      A                      A                      A
 Frequencies --    812.1623               819.0491               822.8938
 Red. masses --      9.1872                 2.8144                 2.5696
 Frc consts  --      3.5704                 1.1124                 1.0252
 IR Inten    --     11.3982                43.1492                66.0040

                     43                     44                     45
                      A                      A                      A
 Frequencies --    828.1130               843.6206               843.9716
 Red. masses --      4.1810                 1.3011                 1.3056
 Frc consts  --      1.6893                 0.5456                 0.5479
 IR Inten    --     11.4722                 0.7363                 4.0289

                     46                     47                     48
                      A                      A                      A
 Frequencies --    857.0703               862.0509               874.1100
 Red. masses --      2.9883                 2.1893                 3.0796
 Frc consts  --      1.2933                 0.9586                 1.3864
 IR Inten    --    138.1309                18.1603                 5.7425

                     49                     50                     51
                      A                      A                      A
 Frequencies --    934.9686               961.5526               963.1781
 Red. masses --      6.5855                 1.4077                 1.3794
 Frc consts  --      3.3918                 0.7668                 0.7540
 IR Inten    --     13.4635                12.6052                 0.3639

                     52                     53                     54
                      A                      A                      A
 Frequencies --    974.8981               977.6630               980.7277
 Red. masses --      1.6067                 1.3941                 2.4551
 Frc consts  --      0.8997                 0.7851                 1.3913
 IR Inten    --     45.6058                10.8103                75.7102

                     55                     56                     57
                      A                      A                      A
 Frequencies --    987.3089              1024.2769              1025.3041
 Red. masses --      4.1233                 2.5426                 2.4701
 Frc consts  --      2.3681                 1.5717                 1.5299
 IR Inten    --     23.0940                20.1282                10.7761

                     58                     59                     60
                      A                      A                      A
 Frequencies --   1035.3346              1035.4908              1110.7438
 Red. masses --      3.8215                 3.7798                 3.1229
 Frc consts  --      2.4135                 2.3879                 2.2701
 IR Inten    --     27.9622                11.1968                39.6196

                     61                     62                     63
                      A                      A                      A
 Frequencies --   1111.1183              1146.3920              1146.4728
 Red. masses --      3.1249                 1.3243                 1.3244
 Frc consts  --      2.2730                 1.0254                 1.0257
 IR Inten    --    102.3954                 5.2930                 1.2777

                     64                     65                     66
                      A                      A                      A
 Frequencies --   1215.1042              1216.0953              1234.3221
 Red. masses --      1.1854                 1.1439                 4.5603
 Frc consts  --      1.0312                 0.9967                 4.0936
 IR Inten    --     79.1232                 0.9868              1167.4748

                     67                     68                     69
                      A                      A                      A
 Frequencies --   1239.9585              1240.5947              1267.8639
 Red. masses --      3.0589                 3.0111                 2.8144
 Frc consts  --      2.7709                 2.7305                 2.6655
 IR Inten    --     13.7571                23.7369               166.4329

                     70                     71                     72
                      A                      A                      A
 Frequencies --   1296.9417              1302.3828              1336.4561
 Red. masses --      1.4744                 1.8375                 1.8090
 Frc consts  --      1.4612                 1.8363                 1.9037
 IR Inten    --     73.3740               113.2560                 1.0888

                     73                     74                     75
                      A                      A                      A
 Frequencies --   1336.5447              1363.8180              1364.1148
 Red. masses --      1.8202                 2.1477                 2.1352
 Frc consts  --      1.9157                 2.3536                 2.3409
 IR Inten    --      1.2081                 4.6026                 9.5489

                     76                     77                     78
                      A                      A                      A
 Frequencies --   1418.2709              1419.8645              1456.2890
 Red. masses --      1.3548                 1.3644                 2.6021
 Frc consts  --      1.6056                 1.6206                 3.2514
 IR Inten    --     22.1946                23.1481                 5.4672

                     79                     80                     81
                      A                      A                      A
 Frequencies --   1456.4230              1516.9293              1518.0202
 Red. masses --      2.6008                 1.1176                 1.1183
 Frc consts  --      3.2504                 1.5152                 1.5183
 IR Inten    --      8.4844                14.5240                10.5729

                     82                     83                     84
                      A                      A                      A
 Frequencies --   1541.4611              1541.6544              1630.9884
 Red. masses --      2.3087                 2.3064                 6.6799
 Frc consts  --      3.2320                 3.2297                10.4694
 IR Inten    --     25.7678                61.7624                 0.5986

                     85                     86                     87
                      A                      A                      A
 Frequencies --   1631.1604              1655.9083              1656.1483
 Red. masses --      6.6814                 5.6012                 5.5922
 Frc consts  --     10.4740                 9.0490                 9.0371
 IR Inten    --      0.9271                26.1784                34.8447

                     88                     89                     90
                      A                      A                      A
 Frequencies --   1659.3903              1830.0706              1846.6828
 Red. masses --     13.9203                12.1562                12.1282
 Frc consts  --     22.5838                23.9873                24.3685
 IR Inten    --      0.3390                40.7313               437.3560

                     91                     92                     93
                      A                      A                      A
 Frequencies --   3109.1520              3110.7260              3167.0163
 Red. masses --      1.0577                 1.0578                 1.1109
 Frc consts  --      6.0240                 6.0306                 6.5647
 IR Inten    --     21.6920                22.5344                 3.8740

                     94                     95                     96
                      A                      A                      A
 Frequencies --   3167.9571              3189.7057              3189.9651
 Red. masses --      1.1109                 1.0896                 1.0896
 Frc consts  --      6.5686                 6.5318                 6.5329
 IR Inten    --      4.1060                 8.7677                 9.7925

                     97                     98                     99
                      A                      A                      A
 Frequencies --   3212.7139              3213.1560              3225.9761
 Red. masses --      1.0890                 1.0889                 1.0935
 Frc consts  --      6.6225                 6.6239                 6.7047
 IR Inten    --      0.7059                 0.8525                 0.3534

                    100                    101                    102
                      A                      A                      A
 Frequencies --   3225.9883              3228.7487              3228.8009
 Red. masses --      1.0935                 1.0949                 1.0949
 Frc consts  --      6.7047                 6.7248                 6.7253
 IR Inten    --      6.8444                 1.0527                 1.2394

 - Thermochemistry -
 -------------------
 Temperature   298.150 Kelvin.  Pressure   1.00000 Atm.
 Atom     1 has atomic number  6 and mass  12.00000

 Molecular mass:   366.01741 amu.
 Principal axes and moments of inertia in atomic units:
                           1         2         3
     Eigenvalues --  7428.85386********************
           X            1.00000  -0.00027   0.00097
           Y            0.00027   1.00000  -0.00091
           Z           -0.00097   0.00091   1.00000
 This molecule is an asymmetric top.
 Rotational symmetry number  1.
 Warning -- assumption of classical behavior for rotation
           may cause significant error
 Rotational temperatures (Kelvin)      0.01166     0.00337     0.00280
 Rotational constants (GHZ):           0.24294     0.07021     0.05844
 Zero-point vibrational energy     678604.8 (Joules/Mol)
                                  162.19044 (Kcal/Mol)
 Warning -- explicit consideration of  31 degrees of freedom as
           vibrations may cause significant error
 Vibrational temperatures:      1.94    13.33    30.94    35.24    41.34
          (Kelvin)             64.90    70.12    94.19   107.47   129.69
                              150.52   221.60   283.77   298.05   316.10
                              357.86   375.76   422.48   436.30   463.93
                              509.77   540.61   558.31   591.10   605.08
                              605.22   623.57   660.41   742.75   781.64
                              857.47   901.68   922.75   932.68   932.99
                              956.46   959.98  1061.22  1062.19  1168.52
                             1178.43  1183.96  1191.47  1213.78  1214.29
                             1233.13  1240.30  1257.65  1345.21  1383.46
                             1385.80  1402.66  1406.64  1411.05  1420.52
                             1473.71  1475.18  1489.62  1489.84  1598.11
                             1598.65  1649.40  1649.52  1748.26  1749.69
                             1775.91  1784.02  1784.94  1824.17  1866.01
                             1873.84  1922.86  1922.99  1962.23  1962.66
                             2040.58  2042.87  2095.27  2095.47  2182.52
                             2184.09  2217.82  2218.10  2346.63  2346.88
                             2382.48  2382.83  2387.49  2633.06  2656.96
                             4473.38  4475.64  4556.63  4557.98  4589.28
                             4589.65  4622.38  4623.01  4641.46  4641.48
                             4645.45  4645.52

 Zero-point correction=                           0.258467 (Hartree/Particle)
 Thermal correction to Energy=                    0.280382
 Thermal correction to Enthalpy=                  0.281326
 Thermal correction to Gibbs Free Energy=         0.197560
 Sum of electronic and zero-point Energies=          -1947.414931
 Sum of electronic and thermal Energies=             -1947.393016
 Sum of electronic and thermal Enthalpies=           -1947.392072
 Sum of electronic and thermal Free Energies=        -1947.475839

                     E (Thermal)             CV                S
                      KCal/Mol        Cal/Mol-Kelvin    Cal/Mol-Kelvin
 Total                  175.942             79.073            176.301
 Electronic               0.000              0.000              0.000
 Translational            0.889              2.981             43.586
 Rotational               0.889              2.981             37.020
 Vibrational            174.165             73.111             95.695
 Vibration     1          0.592              1.987             11.996
 Vibration     2          0.593              1.987              8.163
 Vibration     3          0.593              1.985              6.490
 Vibration     4          0.593              1.985              6.232
 Vibration     5          0.593              1.984              5.915
 Vibration     6          0.595              1.979              5.021
 Vibration     7          0.595              1.978              4.868
 Vibration     8          0.597              1.971              4.285
 Vibration     9          0.599              1.966              4.026
 Vibration    10          0.602              1.956              3.657
 Vibration    11          0.605              1.946              3.366
 Vibration    12          0.620              1.898              2.622
 Vibration    13          0.637              1.844              2.159
 Vibration    14          0.641              1.830              2.069
 Vibration    15          0.647              1.811              1.962
 Vibration    16          0.662              1.765              1.740
 Vibration    17          0.669              1.744              1.654
 Vibration    18          0.688              1.686              1.453
 Vibration    19          0.695              1.668              1.399
 Vibration    20          0.707              1.630              1.298
 Vibration    21          0.730              1.566              1.147
 Vibration    22          0.747              1.522              1.056
 Vibration    23          0.756              1.496              1.008
 Vibration    24          0.775              1.447              0.924
 Vibration    25          0.783              1.426              0.890
 Vibration    26          0.783              1.425              0.890
 Vibration    27          0.794              1.397              0.848
 Vibration    28          0.817              1.341              0.769
 Vibration    29          0.871              1.214              0.619
 Vibration    30          0.898              1.154              0.558
 Vibration    31          0.954              1.040              0.457

 Optimization completed on the basis of negligible forces.
    -- Stationary point found.
 Normal termination of Gaussian 16 at Sat Aug 22 17:12:27 2020.
 Gaussian 16:  ES64L-G16RevA.03 25-Dec-2016

 ----------------------------------------------------------------------
 # TD(NStates=10, Root=1) B3LYP/6-31G* scf=qc volume pop=NPA density=cu
 rrent Geom=AllCheck Guess=Read
 ----------------------------------------------------------------------

 Structure from the checkpoint file:  "azadicarboxylate_3_conf123.chk"
 -------------------
 Title Card Required
 -------------------
 Charge =  0 Multiplicity = 1

                         Standard orientation:
 ---------------------------------------------------------------------
 Center     Atomic      Atomic             Coordinates (Angstroms)
 Number     Number       Type             X           Y           Z
 ---------------------------------------------------------------------
      1          6           0        4.416211   -0.587603   -0.380970
      2          6           0        4.051393   -2.031888   -0.595636
      3          8           0        2.597736   -2.228986   -0.614475
      4          6           0        2.025636   -2.490589    0.558473
      5          8           0        2.548251   -2.583375    1.641095
      6          7           0        0.625964   -2.807544    0.367582
      7          7           0       -0.095372   -1.796157    0.295348
      8          6           0       -1.508378   -2.122418    0.224838
      9          8           0       -2.128482   -2.585034    1.149315
     10          8           0       -1.970282   -1.724414   -0.959362
     11          6           0       -3.412732   -1.872105   -1.173613
     12          6           0       -4.170349   -0.654007   -0.717397
     13          6           0       -4.369755    0.421964   -1.590994
     14          6           0       -5.061996    1.560244   -1.182028
     15          6           0       -5.558894    1.616294    0.119894
     16          6           0       -5.373226    0.559324    1.010621
     17          6           0       -4.678030   -0.571804    0.586079
     18         17           0       -6.438689    3.043715    0.645262
     19          6           0        4.595448   -0.078159    0.912154
     20          6           0        4.927500    1.260689    1.111246
     21          6           0        5.080652    2.094435    0.003583
     22          6           0        4.906762    1.612486   -1.293319
     23          6           0        4.574676    0.271122   -1.475210
     24         17           0        5.504753    3.782356    0.245683
     25          1           0        4.468545   -2.676588    0.180080
     26          1           0        4.367418   -2.383369   -1.579008
     27          1           0       -3.743656   -2.774146   -0.656175
     28          1           0       -3.494137   -2.014444   -2.252264
     29          1           0       -3.981656    0.372399   -2.605444
     30          1           0       -5.217933    2.391367   -1.861251
     31          1           0       -5.767569    0.621707    2.019126
     32          1           0       -4.517666   -1.394717    1.275833
     33          1           0        4.463309   -0.732449    1.768458
     34          1           0        5.067438    1.654280    2.112226
     35          1           0        5.031966    2.275360   -2.142637
     36          1           0        4.439429   -0.110133   -2.484446
 ---------------------------------------------------------------------

 SCF Done:  E(RB3LYP) =  -1947.67339840     a.u. after    1 cycles

 Excitation energies and oscillator strengths:

 Excited State   1:      Singlet-A      2.8475 eV  435.41 nm  f=0.0001  <S**2>=0.000
      92 -> 95         0.46364
      94 -> 95         0.52495
 This state for optimization and/or second-order correction.
 Total Energy, E(TD-HF/TD-DFT) =  -1947.56875367
 Copying the excited state density for this state as the 1-particle RhoCI density.

 Excited State   2:      Singlet-A      3.9615 eV  312.97 nm  f=0.0117  <S**2>=0.000
      92 -> 95         0.23058
      93 -> 95         0.63368
      94 -> 95        -0.20588

 Excited State   3:      Singlet-A      3.9837 eV  311.23 nm  f=0.0287  <S**2>=0.000
      92 -> 95         0.47207
      93 -> 95        -0.30890
      94 -> 95        -0.42283

 Excited State   4:      Singlet-A      4.4037 eV  281.55 nm  f=0.0008  <S**2>=0.000
      90 -> 95         0.70506

 Excited State   5:      Singlet-A      4.4123 eV  281.00 nm  f=0.0005  <S**2>=0.000
      91 -> 95         0.70404

 Excited State   6:      Singlet-A      4.9432 eV  250.82 nm  f=0.0089  <S**2>=0.000
      87 -> 95         0.29230
      88 -> 95        -0.21167
      89 -> 95         0.57310

 Excited State   7:      Singlet-A      5.1251 eV  241.92 nm  f=0.0829  <S**2>=0.000
      86 -> 95        -0.37215
      88 -> 95         0.53487
      89 -> 95         0.22278

 Excited State   8:      Singlet-A      5.2486 eV  236.23 nm  f=0.0004  <S**2>=0.000
      90 -> 96        -0.40341
      90 -> 97        -0.20177
      92 -> 98         0.15840
      93 -> 98         0.41027
      94 -> 98        -0.31367

 Excited State   9:      Singlet-A      5.2501 eV  236.15 nm  f=0.0006  <S**2>=0.000
      91 -> 96        -0.20560
      91 -> 97         0.39711
      92 -> 99         0.20117
      93 -> 99        -0.31897
      94 -> 99        -0.38929

 Excited State  10:      Singlet-A      5.4187 eV  228.81 nm  f=0.0077  <S**2>=0.000
      84 -> 95        -0.38334
      85 -> 95         0.57030

 The electronic state is 1-A.
 Alpha  occ. eigenvalues -- -101.55441-101.55426 -19.22104 -19.21919 -19.16509
 Alpha  occ. eigenvalues --  -19.16399 -14.43022 -14.42899 -10.36047 -10.35875
 Alpha  occ. eigenvalues --  -10.26902 -10.26829 -10.26368 -10.26354 -10.21735
 Alpha  occ. eigenvalues --  -10.21707 -10.21486 -10.21460 -10.21387 -10.21368
 Alpha  occ. eigenvalues --  -10.21265 -10.21250 -10.21090 -10.21082  -9.47074
 Alpha  occ. eigenvalues --   -9.47059  -7.23470  -7.23455  -7.22503  -7.22489
 Alpha  occ. eigenvalues --   -7.22466  -7.22451  -1.14477  -1.13264  -1.06600
 Alpha  occ. eigenvalues --   -1.04695  -1.04104  -0.89962  -0.89943  -0.85346
 Alpha  occ. eigenvalues --   -0.85171  -0.81423  -0.78462  -0.76901  -0.76882
 Alpha  occ. eigenvalues --   -0.76374  -0.71644  -0.69616  -0.63445  -0.63433
 Alpha  occ. eigenvalues --   -0.62797  -0.60709  -0.59373  -0.57336  -0.56166
 Alpha  occ. eigenvalues --   -0.53287  -0.52809  -0.51305  -0.50584  -0.50148
 Alpha  occ. eigenvalues --   -0.48965  -0.48837  -0.48226  -0.47954  -0.46626
 Alpha  occ. eigenvalues --   -0.45557  -0.44680  -0.44634  -0.43917  -0.43794
 Alpha  occ. eigenvalues --   -0.42389  -0.41840  -0.41010  -0.40318  -0.40104
 Alpha  occ. eigenvalues --   -0.38954  -0.38734  -0.38138  -0.37859  -0.36487
 Alpha  occ. eigenvalues --   -0.36427  -0.33970  -0.33897  -0.32722  -0.32608
 Alpha  occ. eigenvalues --   -0.31912  -0.31867  -0.31662  -0.31580  -0.27227
 Alpha  occ. eigenvalues --   -0.27213  -0.26122  -0.25549  -0.25079
 Alpha virt. eigenvalues --   -0.09164  -0.03185  -0.03112  -0.02242  -0.02219
 Alpha virt. eigenvalues --   -0.00148   0.00422   0.02375   0.02411   0.09580
 Alpha virt. eigenvalues --    0.09750   0.10687   0.10914   0.11949   0.12091

 Mulliken charges:
               1
     1  C    0.152108
     2  C   -0.157739
     3  O   -0.409352
     4  C    0.734989
     5  O   -0.415548
     6  N   -0.236859
     7  N   -0.238757
     8  C    0.739516
     9  O   -0.407055
    10  O   -0.410083
    11  C   -0.157743
    12  C    0.150753
    13  C   -0.164963
    14  C   -0.127991
    15  C   -0.062463
    16  C   -0.129052
    17  C   -0.172134
    18  Cl  -0.013252
    19  C   -0.172474
    20  C   -0.129138
    21  C   -0.062471
    22  C   -0.128212
    23  C   -0.165612
    24  Cl  -0.014617
    25  H    0.187063
    26  H    0.172258
    27  H    0.186169
    28  H    0.172460
    29  H    0.144879
    30  H    0.161074
    31  H    0.163758
    32  H    0.170939
    33  H    0.172262
    34  H    0.163371
    35  H    0.160171
    36  H    0.143744
 Sum of Mulliken charges =  -0.00000

 Dipole moment (field-independent basis, Debye):
    X=              0.2861    Y=             -1.0187    Z=             -3.8107  Tot=              3.9548
 Quadrupole moment (field-independent basis, Debye-Ang):
   XX=           -139.6850   YY=           -157.0644   ZZ=           -141.8764
   XY=             -1.0931   XZ=              0.2755   YZ=              5.7981

 Summary of Natural Population Analysis:

                                       Natural Population
                Natural  -----------------------------------------------
    Atom  No    Charge         Core      Valence    Rydberg      Total
 -----------------------------------------------------------------------
      C    1   -0.09425      1.99901     4.08088    0.01437     6.09425
      C    2   -0.12498      1.99912     4.10660    0.01926     6.12498
      O    3   -0.52288      1.99973     6.51085    0.01230     8.52288
      C    4    0.92256      1.99951     3.02743    0.05050     5.07744
      O    5   -0.55216      1.99977     6.53164    0.02075     8.55216
      N    6   -0.21612      1.99939     5.19027    0.02646     7.21612
      N    7   -0.21364      1.99938     5.18808    0.02617     7.21364
      C    8    0.91454      1.99951     3.03495    0.05100     5.08546
      O    9   -0.53964      1.99977     6.51919    0.02068     8.53964
      O   10   -0.51962      1.99973     6.50765    0.01224     8.51962
      C   11   -0.12709      1.99913     4.10870    0.01926     6.12709
      C   12   -0.09449      1.99901     4.08107    0.01441     6.09449
      C   13   -0.19997      1.99903     4.18784    0.01310     6.19997
      C   14   -0.24317      1.99893     4.22932    0.01491     6.24317
      C   15   -0.03570      1.99856     4.01537    0.02178     6.03570
      C   16   -0.24173      1.99894     4.22785    0.01495     6.24173
      C   17   -0.19919      1.99903     4.18688    0.01327     6.19919
     Cl   18    0.00317      9.99967     6.97785    0.01930    16.99683
      C   19   -0.19931      1.99903     4.18696    0.01332     6.19931
      C   20   -0.24147      1.99894     4.22761    0.01493     6.24147
      C   21   -0.03620      1.99856     4.01589    0.02176     6.03620
      C   22   -0.24375      1.99893     4.22991    0.01491     6.24375
      C   23   -0.20032      1.99903     4.18823    0.01306     6.20032
     Cl   24    0.00209      9.99967     6.97893    0.01930    16.99791
      H   25    0.24393      0.00000     0.75390    0.00217     0.75607
      H   26    0.24239      0.00000     0.75649    0.00112     0.75761
      H   27    0.24351      0.00000     0.75441    0.00208     0.75649
      H   28    0.24260      0.00000     0.75634    0.00106     0.75740
      H   29    0.24332      0.00000     0.75567    0.00101     0.75668
      H   30    0.25645      0.00000     0.74253    0.00102     0.74355
      H   31    0.25777      0.00000     0.74123    0.00100     0.74223
      H   32    0.25809      0.00000     0.74065    0.00126     0.74191
      H   33    0.25908      0.00000     0.73957    0.00135     0.74092
      H   34    0.25750      0.00000     0.74150    0.00100     0.74250
      H   35    0.25600      0.00000     0.74298    0.00102     0.74400
      H   36    0.24267      0.00000     0.75632    0.00101     0.75733
 =======================================================================
   * Total *   -0.00000     63.98137   123.52155    0.49708   188.00000

 Normal termination of Gaussian 16 at Sat Aug 22 17:27:21 2020.
