 Gaussian 16, Revision A.03,

 ---------------------------------
 # opt=CalcAll B3LYP/6-31G* scf=qc
 ---------------------------------

 -------------------
 Title Card Required
 -------------------
 Symbolic Z-matrix:
 Charge =  0 Multiplicity = 1

 SCF Done:  E(RB3LYP) =  -605.111823411     a.u. after   10 cycles
 SCF Done:  E(RB3LYP) =  -605.215921260     a.u. after   33 cycles
 SCF Done:  E(RB3LYP) =  -605.230569550     a.u. after   21 cycles
 SCF Done:  E(RB3LYP) =  -605.261649492     a.u. after   19 cycles
 SCF Done:  E(RB3LYP) =  -605.267323398     a.u. after   15 cycles
 SCF Done:  E(RB3LYP) =  -605.268074588     a.u. after   13 cycles
 SCF Done:  E(RB3LYP) =  -605.268197507     a.u. after   11 cycles
 SCF Done:  E(RB3LYP) =  -605.268215027     a.u. after    9 cycles
 SCF Done:  E(RB3LYP) =  -605.268237865     a.u. after    7 cycles
 SCF Done:  E(RB3LYP) =  -605.268758924     a.u. after   17 cycles
 SCF Done:  E(RB3LYP) =  -605.279098632     a.u. after   19 cycles
 SCF Done:  E(RB3LYP) =  -605.279305720     a.u. after   13 cycles
 SCF Done:  E(RB3LYP) =  -605.279323631     a.u. after    7 cycles
 SCF Done:  E(RB3LYP) =  -605.279324613     a.u. after    3 cycles
 SCF Done:  E(RB3LYP) =  -605.279325369     a.u. after    2 cycles
 SCF Done:  E(RB3LYP) =  -605.279323335     a.u. after    3 cycles
 SCF Done:  E(RB3LYP) =  -605.279330006     a.u. after    7 cycles
 SCF Done:  E(RB3LYP) =  -605.279330109     a.u. after    3 cycles
 Optimization completed.
    -- Stationary point found.
 Normal termination of Gaussian 16 at Sat Aug 22 19:42:16 2020.

 ----------------------------------------------------------------------
 # freq B3LYP/6-31G* scf=qc volume NMR pop=NPA density=current Geom=All
 Check Guess=Read
 ----------------------------------------------------------------------

 Structure from the checkpoint file:  "azadicarboxylate_6_conf112.chk"
 -------------------
 Title Card Required
 -------------------
 Charge =  0 Multiplicity = 1

 SCF Done:  E(RB3LYP) =  -605.279330109     a.u. after    1 cycles

      1  C    Isotropic =    35.5317   Anisotropy =    81.0312

      2  O    Isotropic =    -2.0208   Anisotropy =   439.3239

      3  N    Isotropic =  -357.3983   Anisotropy =   735.9520

      4  N    Isotropic =  -357.3834   Anisotropy =   735.9382

      5  C    Isotropic =    35.5323   Anisotropy =    81.0332

      6  O    Isotropic =    -2.0172   Anisotropy =   439.3122

      7  N    Isotropic =   164.3407   Anisotropy =    80.6906

      8  C    Isotropic =   156.2383   Anisotropy =    48.9320

      9  C    Isotropic =   156.2143   Anisotropy =    46.0165

     10  N    Isotropic =   164.3441   Anisotropy =    80.6909

     11  C    Isotropic =   156.2388   Anisotropy =    48.9317

     12  C    Isotropic =   156.2146   Anisotropy =    46.0151

     13  H    Isotropic =    28.0472   Anisotropy =     6.4813

     14  H    Isotropic =    29.9318   Anisotropy =     8.7870

     15  H    Isotropic =    29.8738   Anisotropy =     8.2972

     16  H    Isotropic =    29.2306   Anisotropy =     8.0933

     17  H    Isotropic =    29.7880   Anisotropy =     8.1463

     18  H    Isotropic =    29.8633   Anisotropy =     8.5515

     19  H    Isotropic =    28.0472   Anisotropy =     6.4813

     20  H    Isotropic =    29.8738   Anisotropy =     8.2974

     21  H    Isotropic =    29.9319   Anisotropy =     8.7869

     22  H    Isotropic =    29.2308   Anisotropy =     8.0934

     23  H    Isotropic =    29.8634   Anisotropy =     8.5514

     24  H    Isotropic =    29.7881   Anisotropy =     8.1465

  Exact polarizability: 137.988   6.511  98.262   1.115  -0.141  63.608
 Approx polarizability: 156.842  11.176 160.805   5.916  -0.173  97.917

                      1                      2                      3
                      A                      A                      A
 Frequencies --     22.7203                51.2530                60.7087
 Red. masses --      4.8443                 6.5541                 4.3798
 Frc consts  --      0.0015                 0.0101                 0.0095
 IR Inten    --      9.6748                 0.0000                 9.4380

                      4                      5                      6
                      A                      A                      A
 Frequencies --     71.6002               103.7043               105.0751
 Red. masses --      2.7755                 1.7478                 1.4323
 Frc consts  --      0.0084                 0.0111                 0.0093
 IR Inten    --      0.3692                 0.0000                 0.0369

                      7                      8                      9
                      A                      A                      A
 Frequencies --    109.1117               151.5156               152.3807
 Red. masses --      2.0121                 1.0575                 1.0908
 Frc consts  --      0.0141                 0.0143                 0.0149
 IR Inten    --      0.0000                 0.2716                 0.0000

                     10                     11                     12
                      A                      A                      A
 Frequencies --    196.5895               226.6086               253.1072
 Red. masses --      2.9861                 2.3577                 4.9267
 Frc consts  --      0.0680                 0.0713                 0.1860
 IR Inten    --      0.6022                 0.0000                 0.0000

                     13                     14                     15
                      A                      A                      A
 Frequencies --    261.9308               296.9959               328.3630
 Red. masses --      3.0786                 3.7717                 4.1771
 Frc consts  --      0.1244                 0.1960                 0.2654
 IR Inten    --     11.7871                 0.0000                29.8076

                     16                     17                     18
                      A                      A                      A
 Frequencies --    382.6292               392.7092               461.4696
 Red. masses --      3.1516                 2.5413                 4.5268
 Frc consts  --      0.2719                 0.2309                 0.5680
 IR Inten    --      0.0000                 2.8051                 0.0000

                     19                     20                     21
                      A                      A                      A
 Frequencies --    581.6128               582.5950               599.2994
 Red. masses --      9.5713                 7.1894                 6.7319
 Frc consts  --      1.9076                 1.4377                 1.4245
 IR Inten    --      0.0009                26.2651                 8.2769

                     22                     23                     24
                      A                      A                      A
 Frequencies --    695.1676               771.3708               799.2547
 Red. masses --      5.9248                 7.4606                11.3897
 Frc consts  --      1.6869                 2.6155                 4.2868
 IR Inten    --      0.0000                 7.9980                20.7534

                     25                     26                     27
                      A                      A                      A
 Frequencies --    923.5346               997.6248              1003.5433
 Red. masses --      6.2745                 4.7037                 3.0351
 Frc consts  --      3.1531                 2.7582                 1.8009
 IR Inten    --      0.0000                 0.0000                13.4309

                     28                     29                     30
                      A                      A                      A
 Frequencies --   1093.9847              1094.1757              1138.8034
 Red. masses --      1.3831                 1.3884                 1.2195
 Frc consts  --      0.9752                 0.9793                 0.9318
 IR Inten    --     11.9886                 0.0020                 0.0000

                     31                     32                     33
                      A                      A                      A
 Frequencies --   1138.8981              1162.6144              1174.5135
 Red. masses --      1.2187                 2.1499                 2.4308
 Frc consts  --      0.9314                 1.7121                 1.9757
 IR Inten    --      0.3651                 0.0000               415.9799

                     34                     35                     36
                      A                      A                      A
 Frequencies --   1189.2582              1189.4789              1291.3046
 Red. masses --      1.3689                 1.3911                 5.7898
 Frc consts  --      1.1407                 1.1596                 5.6881
 IR Inten    --      0.0000                21.5168               133.5031

                     37                     38                     39
                      A                      A                      A
 Frequencies --   1293.0734              1445.9278              1452.3053
 Red. masses --      5.5932                 2.8322                 2.7545
 Frc consts  --      5.5100                 3.4887                 3.4231
 IR Inten    --      0.0000               359.1815                 0.0000

                     40                     41                     42
                      A                      A                      A
 Frequencies --   1458.5842              1458.6111              1493.6847
 Red. masses --      1.1529                 1.1603                 1.1803
 Frc consts  --      1.4452                 1.4545                 1.5515
 IR Inten    --     16.3998                 0.0052                22.4880

                     43                     44                     45
                      A                      A                      A
 Frequencies --   1494.8492              1513.8458              1513.8573
 Red. masses --      1.1968                 1.0463                 1.0448
 Frc consts  --      1.5757                 1.4128                 1.4107
 IR Inten    --      0.0003                 0.1027                 4.3438

                     46                     47                     48
                      A                      A                      A
 Frequencies --   1527.1733              1527.3263              1529.1856
 Red. masses --      1.0482                 1.0489                 1.0465
 Frc consts  --      1.4404                 1.4416                 1.4418
 IR Inten    --      0.0003                28.7340                 0.0006

                     49                     50                     51
                      A                      A                      A
 Frequencies --   1529.3529              1563.6795              1564.9271
 Red. masses --      1.0458                 1.2510                 1.2402
 Frc consts  --      1.4412                 1.8022                 1.7895
 IR Inten    --     33.8020                 0.0000                58.3330

                     52                     53                     54
                      A                      A                      A
 Frequencies --   1656.6118              1783.8611              1804.8205
 Red. masses --     13.0566                10.6261                10.8338
 Frc consts  --     21.1116                19.9226                20.7922
 IR Inten    --      0.0000                 0.0000               771.8913

                     55                     56                     57
                      A                      A                      A
 Frequencies --   3035.9287              3035.9299              3041.9835
 Red. masses --      1.0382                 1.0381                 1.0388
 Frc consts  --      5.6376                 5.6376                 5.6638
 IR Inten    --     43.3278                 2.2555               168.6997

                     58                     59                     60
                      A                      A                      A
 Frequencies --   3042.6374              3088.3274              3088.4621
 Red. masses --      1.0389                 1.1041                 1.1042
 Frc consts  --      5.6665                 6.2046                 6.2054
 IR Inten    --      0.0000                 0.0010               120.2397

                     61                     62                     63
                      A                      A                      A
 Frequencies --   3091.1658              3091.1839              3176.7122
 Red. masses --      1.1052                 1.1052                 1.0983
 Frc consts  --      6.2223                 6.2223                 6.5303
 IR Inten    --      4.1958                 0.0004                 8.3697

                     64                     65                     66
                      A                      A                      A
 Frequencies --   3177.0112              3187.6343              3187.6448
 Red. masses --      1.0984                 1.0975                 1.0975
 Frc consts  --      6.5321                 6.5703                 6.5703
 IR Inten    --      0.0031                 1.7374                 0.0504

 - Thermochemistry -
 -------------------
 Temperature   298.150 Kelvin.  Pressure   1.00000 Atm.
 Atom     1 has atomic number  6 and mass  12.00000

 Molecular mass:   172.09603 amu.
 Principal axes and moments of inertia in atomic units:
                           1         2         3
     Eigenvalues --   831.624633960.177974690.04223
           X            0.99974   0.02269  -0.00376
           Y           -0.02267   0.99972   0.00615
           Z            0.00390  -0.00607   0.99997
 This molecule is an asymmetric top.
 Rotational symmetry number  1.
 Warning -- assumption of classical behavior for rotation
           may cause significant error
 Rotational temperatures (Kelvin)      0.10415     0.02187     0.01847
 Rotational constants (GHZ):           2.17014     0.45572     0.38480
 Zero-point vibrational energy     513866.7 (Joules/Mol)
                                  122.81709 (Kcal/Mol)
 Warning -- explicit consideration of  21 degrees of freedom as
           vibrations may cause significant error
 Vibrational temperatures:     32.69    73.74    87.35   103.02   149.21
          (Kelvin)            151.18   156.99   218.00   219.24   282.85
                              326.04   364.16   376.86   427.31   472.44
                              550.52   565.02   663.95   836.81   838.22
                              862.26  1000.19  1109.83  1149.95  1328.76
                             1435.36  1443.88  1574.00  1574.27  1638.48
                             1638.62  1672.74  1689.86  1711.08  1711.39
                             1857.90  1860.44  2080.37  2089.54  2098.58
                             2098.62  2149.08  2150.75  2178.09  2178.10
                             2197.26  2197.48  2200.16  2200.40  2249.79
                             2251.58  2383.49  2566.58  2596.73  4368.02
                             4368.03  4376.74  4377.68  4443.41  4443.61
                             4447.50  4447.52  4570.58  4571.01  4586.29
                             4586.31

 Zero-point correction=                           0.195721 (Hartree/Particle)
 Thermal correction to Energy=                    0.210245
 Thermal correction to Enthalpy=                  0.211189
 Thermal correction to Gibbs Free Energy=         0.152510
 Sum of electronic and zero-point Energies=           -605.083609
 Sum of electronic and thermal Energies=              -605.069085
 Sum of electronic and thermal Enthalpies=            -605.068141
 Sum of electronic and thermal Free Energies=         -605.126820

                     E (Thermal)             CV                S
                      KCal/Mol        Cal/Mol-Kelvin    Cal/Mol-Kelvin
 Total                  131.931             48.237            123.500
 Electronic               0.000              0.000              0.000
 Translational            0.889              2.981             41.336
 Rotational               0.889              2.981             31.113
 Vibrational            130.153             42.276             51.051
 Vibration     1          0.593              1.985              6.381
 Vibration     2          0.596              1.977              4.768
 Vibration     3          0.597              1.973              4.434
 Vibration     4          0.598              1.968              4.109
 Vibration     5          0.605              1.946              3.383
 Vibration     6          0.605              1.945              3.358
 Vibration     7          0.606              1.942              3.285
 Vibration     8          0.619              1.901              2.653
 Vibration     9          0.619              1.900              2.642
 Vibration    10          0.636              1.845              2.165
 Vibration    11          0.650              1.800              1.906
 Vibration    12          0.664              1.758              1.709
 Vibration    13          0.669              1.742              1.649
 Vibration    14          0.691              1.679              1.434
 Vibration    15          0.712              1.619              1.268
 Vibration    16          0.752              1.507              1.029
 Vibration    17          0.760              1.486              0.990
 Vibration    18          0.819              1.336              0.762
 Vibration    19          0.938              1.071              0.482
 Vibration    20          0.939              1.069              0.481
 Vibration    21          0.957              1.033              0.451

 Optimization completed.
    -- Stationary point found.
 Normal termination of Gaussian 16 at Sat Aug 22 19:47:33 2020.
 Gaussian 16:  ES64L-G16RevA.03 25-Dec-2016

 ----------------------------------------------------------------------
 # TD(NStates=10, Root=1) B3LYP/6-31G* scf=qc volume pop=NPA density=cu
 rrent Geom=AllCheck Guess=Read
 ----------------------------------------------------------------------

 Structure from the checkpoint file:  "azadicarboxylate_6_conf113.chk"
 -------------------
 Title Card Required
 -------------------
 Charge =  0 Multiplicity = 1

                         Standard orientation:
 ---------------------------------------------------------------------
 Center     Atomic      Atomic             Coordinates (Angstroms)
 Number     Number       Type             X           Y           Z
 ---------------------------------------------------------------------
      1          6           0        1.671620   -0.634775    0.144041
      2          8           0        1.697724   -1.853429    0.094113
      3          7           0        0.413946    0.042807    0.461987
      4          7           0       -0.413908   -0.042856   -0.461833
      5          6           0       -1.671576    0.634744   -0.143868
      6          8           0       -1.697612    1.853389   -0.093660
      7          7           0       -2.732901   -0.205489   -0.052215
      8          6           0       -4.059360    0.352018    0.166371
      9          6           0       -2.616465   -1.658449   -0.070706
     10          7           0        2.732878    0.205507    0.052086
     11          6           0        4.059360   -0.351955   -0.166469
     12          6           0        2.616333    1.658462    0.070290
     13          1           0       -3.988066    1.439039    0.143461
     14          1           0       -4.456273    0.032850    1.138600
     15          1           0       -4.745238    0.011246   -0.619265
     16          1           0       -1.596735   -1.956360   -0.314950
     17          1           0       -3.295934   -2.075891   -0.823858
     18          1           0       -2.881991   -2.079695    0.907890
     19          1           0        3.988137   -1.438976   -0.143342
     20          1           0        4.745265   -0.010986    0.619058
     21          1           0        4.456192   -0.032952   -1.138785
     22          1           0        1.596590    1.956349    0.314515
     23          1           0        2.881788    2.079530   -0.908401
     24          1           0        3.295796    2.076112    0.823332
 ---------------------------------------------------------------------

 SCF Done:  E(RB3LYP) =  -605.279330109     a.u. after    1 cycles

 Excitation energies and oscillator strengths:

 Excited State   1:      Singlet-A      2.6043 eV  476.08 nm  f=0.0000  <S**2>=0.000
      46 -> 47         0.69814
 This state for optimization and/or second-order correction.
 Total Energy, E(TD-HF/TD-DFT) =  -605.183625620
 Copying the excited state density for this state as the 1-particle RhoCI density.

 Excited State   2:      Singlet-A      3.8800 eV  319.54 nm  f=0.0000  <S**2>=0.000
      44 -> 47         0.70053

 Excited State   3:      Singlet-A      3.8870 eV  318.97 nm  f=0.0067  <S**2>=0.000
      45 -> 47         0.70096

 Excited State   4:      Singlet-A      4.3007 eV  288.29 nm  f=0.0296  <S**2>=0.000
      43 -> 47         0.69233

 Excited State   5:      Singlet-A      4.9894 eV  248.50 nm  f=0.0000  <S**2>=0.000
      42 -> 47         0.68516
      46 -> 49        -0.11408

 Excited State   6:      Singlet-A      5.8217 eV  212.97 nm  f=0.0482  <S**2>=0.000
      43 -> 49        -0.18996
      46 -> 48         0.67024

 Excited State   7:      Singlet-A      5.8925 eV  210.41 nm  f=0.0000  <S**2>=0.000
      42 -> 47         0.12982
      43 -> 48        -0.19856
      46 -> 49         0.65628

 Excited State   8:      Singlet-A      6.7253 eV  184.35 nm  f=0.1201  <S**2>=0.000
      40 -> 47        -0.19309
      41 -> 47         0.63180
      43 -> 49        -0.15727
      44 -> 48         0.10190

 Excited State   9:      Singlet-A      6.9082 eV  179.47 nm  f=0.0000  <S**2>=0.000
      39 -> 47         0.11104
      42 -> 49         0.26170
      43 -> 48         0.57995
      44 -> 49        -0.12003
      45 -> 48         0.12289
      46 -> 49         0.22129

 Excited State  10:      Singlet-A      6.9241 eV  179.06 nm  f=0.0078  <S**2>=0.000
      41 -> 47         0.13197
      42 -> 48         0.26517
      43 -> 49         0.55572
      45 -> 49         0.21779
      46 -> 48         0.20268

 The electronic state is 1-A.
 Alpha  occ. eigenvalues --  -19.12472 -19.12472 -14.40716 -14.40664 -14.37973
 Alpha  occ. eigenvalues --  -14.37973 -10.31284 -10.31284 -10.22754 -10.22754
 Alpha  occ. eigenvalues --  -10.22269 -10.22269  -1.08631  -1.05001  -1.01177
 Alpha  occ. eigenvalues --   -0.94985  -0.94814  -0.77930  -0.73450  -0.72911
 Alpha  occ. eigenvalues --   -0.71230  -0.67430  -0.57923  -0.54609  -0.52849
 Alpha  occ. eigenvalues --   -0.50073  -0.48673  -0.48407  -0.47425  -0.46757
 Alpha  occ. eigenvalues --   -0.43298  -0.43265  -0.41277  -0.41277  -0.41161
 Alpha  occ. eigenvalues --   -0.41065  -0.41059  -0.39430  -0.38281  -0.38167
 Alpha  occ. eigenvalues --   -0.35960  -0.30281  -0.27251  -0.25248  -0.25173
 Alpha  occ. eigenvalues --   -0.22805
 Alpha virt. eigenvalues --   -0.07393   0.03341   0.03378   0.08945   0.09049
 Alpha virt. eigenvalues --    0.13446   0.13519   0.14158   0.14254   0.14813
 Alpha virt. eigenvalues --    0.15114   0.15657   0.15668   0.16954   0.17003

 Mulliken charges:
               1
     1  C    0.704254
     2  O   -0.463694
     3  N   -0.277702
     4  N   -0.277710
     5  C    0.704269
     6  O   -0.463699
     7  N   -0.386843
     8  C   -0.320151
     9  C   -0.322024
    10  N   -0.386832
    11  C   -0.320151
    12  C   -0.322029
    13  H    0.203667
    14  H    0.162310
    15  H    0.160972
    16  H    0.219706
    17  H    0.158812
    18  H    0.160688
    19  H    0.203667
    20  H    0.160973
    21  H    0.162309
    22  H    0.219713
    23  H    0.160686
    24  H    0.158813
 Sum of Mulliken charges =  -0.00000

 Dipole moment (field-independent basis, Debye):
    X=             -0.0002    Y=              0.0001    Z=             -0.0009  Tot=              0.0009
 Quadrupole moment (field-independent basis, Debye-Ang):
   XX=            -46.6802   YY=            -77.3275   ZZ=            -70.9906
   XY=             10.5399   XZ=             -1.1226   YZ=              0.4902

 Summary of Natural Population Analysis:

                                       Natural Population
                Natural  -----------------------------------------------
    Atom  No    Charge         Core      Valence    Rydberg      Total
 -----------------------------------------------------------------------
      C    1    0.79148      1.99935     3.16278    0.04640     5.20852
      O    2   -0.56890      1.99979     6.55041    0.01871     8.56890
      N    3   -0.24639      1.99941     5.22066    0.02631     7.24639
      N    4   -0.24640      1.99941     5.22068    0.02631     7.24640
      C    5    0.79147      1.99935     3.16278    0.04640     5.20853
      O    6   -0.56890      1.99979     6.55041    0.01871     8.56890
      N    7   -0.45845      1.99930     5.44839    0.01076     7.45845
      C    8   -0.47032      1.99947     4.45889    0.01196     6.47032
      C    9   -0.47244      1.99945     4.46122    0.01177     6.47244
      N   10   -0.45845      1.99930     5.44839    0.01076     7.45845
      C   11   -0.47032      1.99947     4.45889    0.01196     6.47032
      C   12   -0.47244      1.99945     4.46122    0.01177     6.47244
      H   13    0.26036      0.00000     0.73793    0.00171     0.73964
      H   14    0.22449      0.00000     0.77424    0.00127     0.77551
      H   15    0.22533      0.00000     0.77339    0.00128     0.77467
      H   16    0.26602      0.00000     0.73208    0.00190     0.73398
      H   17    0.22549      0.00000     0.77316    0.00135     0.77451
      H   18    0.22333      0.00000     0.77512    0.00155     0.77667
      H   19    0.26036      0.00000     0.73793    0.00171     0.73964
      H   20    0.22533      0.00000     0.77339    0.00128     0.77467
      H   21    0.22449      0.00000     0.77424    0.00127     0.77551
      H   22    0.26602      0.00000     0.73208    0.00190     0.73398
      H   23    0.22333      0.00000     0.77512    0.00155     0.77667
      H   24    0.22549      0.00000     0.77316    0.00135     0.77451
 =======================================================================
   * Total *   -0.00000     23.99350    67.73658    0.26992    92.00000

 Normal termination of Gaussian 16 at Sat Aug 22 19:54:04 2020.
