 Gaussian 16, Revision A.03,

 ---------------------------------
 # opt=CalcAll B3LYP/6-31G* scf=qc
 ---------------------------------

 -------------------
 Title Card Required
 -------------------
 Symbolic Z-matrix:
 Charge =  0 Multiplicity = 1

 SCF Done:  E(RB3LYP) =  -1028.45635146     a.u. after   10 cycles
 SCF Done:  E(RB3LYP) =  -1028.47620688     a.u. after   21 cycles
 SCF Done:  E(RB3LYP) =  -1028.47869747     a.u. after   17 cycles
 SCF Done:  E(RB3LYP) =  -1028.47988271     a.u. after   19 cycles
 SCF Done:  E(RB3LYP) =  -1028.48095529     a.u. after   17 cycles
 SCF Done:  E(RB3LYP) =  -1028.48178260     a.u. after   21 cycles
 SCF Done:  E(RB3LYP) =  -1028.48239015     a.u. after   25 cycles
 SCF Done:  E(RB3LYP) =  -1028.48262557     a.u. after   13 cycles
 SCF Done:  E(RB3LYP) =  -1028.48263691     a.u. after    7 cycles
 SCF Done:  E(RB3LYP) =  -1028.48263708     a.u. after    3 cycles
 SCF Done:  E(RB3LYP) =  -1028.48263706     a.u. after    2 cycles
 Optimization completed.
    -- Stationary point found.
 Normal termination of Gaussian 16 at Sat Aug 22 16:54:19 2020.

 ----------------------------------------------------------------------
 # freq B3LYP/6-31G* scf=qc volume NMR pop=NPA density=current Geom=All
 Check Guess=Read
 ----------------------------------------------------------------------

 Structure from the checkpoint file:  "azadicarboxylate_4_conf212.chk"
 -------------------
 Title Card Required
 -------------------
 Charge =  0 Multiplicity = 1

 SCF Done:  E(RB3LYP) =  -1028.48263706     a.u. after    1 cycles

      1  C    Isotropic =    62.1424   Anisotropy =   173.1151

      2  C    Isotropic =   120.7372   Anisotropy =    39.6567

      3  O    Isotropic =   141.6659   Anisotropy =   138.4018

      4  C    Isotropic =    34.5931   Anisotropy =    77.3483

      5  O    Isotropic =   -18.6780   Anisotropy =   495.0226

      6  N    Isotropic =  -322.8998   Anisotropy =   674.5255

      7  N    Isotropic =  -322.9100   Anisotropy =   674.5305

      8  C    Isotropic =    34.5906   Anisotropy =    77.3247

      9  O    Isotropic =   -18.6724   Anisotropy =   494.9873

     10  O    Isotropic =   141.6643   Anisotropy =   138.4235

     11  C    Isotropic =   120.7378   Anisotropy =    39.6562

     12  C    Isotropic =    62.1416   Anisotropy =   173.1157

     13  C    Isotropic =    63.8923   Anisotropy =   161.6554

     14  C    Isotropic =    67.6150   Anisotropy =   166.7866

     15  C    Isotropic =    66.8726   Anisotropy =   170.9779

     16  C    Isotropic =    68.1514   Anisotropy =   165.6238

     17  C    Isotropic =    65.0781   Anisotropy =   156.2470

     18  C    Isotropic =    65.0782   Anisotropy =   156.2492

     19  C    Isotropic =    68.1513   Anisotropy =   165.6241

     20  C    Isotropic =    66.8725   Anisotropy =   170.9779

     21  C    Isotropic =    67.6152   Anisotropy =   166.7859

     22  C    Isotropic =    63.8916   Anisotropy =   161.6542

     23  H    Isotropic =    27.6669   Anisotropy =     5.4714

     24  H    Isotropic =    26.3847   Anisotropy =     2.4018

     25  H    Isotropic =    27.6670   Anisotropy =     5.4718

     26  H    Isotropic =    26.3845   Anisotropy =     2.4015

     27  H    Isotropic =    24.2861   Anisotropy =     7.5265

     28  H    Isotropic =    24.8326   Anisotropy =     4.9433

     29  H    Isotropic =    24.8663   Anisotropy =     4.3458

     30  H    Isotropic =    24.8892   Anisotropy =     4.6054

     31  H    Isotropic =    24.8649   Anisotropy =     6.7372

     32  H    Isotropic =    24.8648   Anisotropy =     6.7375

     33  H    Isotropic =    24.8892   Anisotropy =     4.6054

     34  H    Isotropic =    24.8663   Anisotropy =     4.3457

     35  H    Isotropic =    24.8326   Anisotropy =     4.9433

     36  H    Isotropic =    24.2861   Anisotropy =     7.5262

  Exact polarizability: 248.079  -2.233 183.695 -43.614  -8.097 126.383
 Approx polarizability: 296.651   0.878 342.218 -79.414 -14.872 203.853

                      1                      2                      3
                      A                      A                      A
 Frequencies --      7.1434                16.8138                24.3705
 Red. masses --      6.0471                 6.8319                 3.8957
 Frc consts  --      0.0002                 0.0011                 0.0014
 IR Inten    --      0.6307                 0.6494                 0.1860

                      4                      5                      6
                      A                      A                      A
 Frequencies --     26.4226                33.7914                47.9493
 Red. masses --      4.6851                 7.7032                 7.9486
 Frc consts  --      0.0019                 0.0052                 0.0108
 IR Inten    --      0.0000                 0.0000                 0.0000

                      7                      8                      9
                      A                      A                      A
 Frequencies --     53.7940                71.2716                82.3725
 Red. masses --      8.3466                 7.0728                 5.5990
 Frc consts  --      0.0142                 0.0212                 0.0224
 IR Inten    --      1.9850                 0.0000                 4.1841

                     10                     11                     12
                      A                      A                      A
 Frequencies --    130.7757               160.7392               196.6763
 Red. masses --      7.7227                 6.7435                 7.2299
 Frc consts  --      0.0778                 0.1027                 0.1648
 IR Inten    --      0.7490                 0.0000                 0.0000

                     13                     14                     15
                      A                      A                      A
 Frequencies --    217.3734               227.9595               246.2566
 Red. masses --      7.2790                 7.2276                 7.5533
 Frc consts  --      0.2026                 0.2213                 0.2699
 IR Inten    --      0.8011                 0.0000                26.8577

                     16                     17                     18
                      A                      A                      A
 Frequencies --    330.1514               353.6009               363.4224
 Red. masses --      5.9148                 2.8000                 4.3410
 Frc consts  --      0.3799                 0.2063                 0.3378
 IR Inten    --      4.0789                 0.0000                 0.0000

                     19                     20                     21
                      A                      A                      A
 Frequencies --    371.3132               417.0496               417.0629
 Red. masses --      2.1980                 2.9669                 2.9651
 Frc consts  --      0.1786                 0.3040                 0.3039
 IR Inten    --     21.1755                 0.0001                 0.1382

                     22                     23                     24
                      A                      A                      A
 Frequencies --    434.1200               482.2021               505.2166
 Red. masses --      5.5372                 4.1234                 4.6159
 Frc consts  --      0.6148                 0.5649                 0.6942
 IR Inten    --      0.0000                 5.6083                 0.0000

                     25                     26                     27
                      A                      A                      A
 Frequencies --    570.4945               601.1788               612.5803
 Red. masses --      6.5527                 7.7599                 5.1355
 Frc consts  --      1.2565                 1.6524                 1.1354
 IR Inten    --     27.9733                 0.0000                 0.0000

                     28                     29                     30
                      A                      A                      A
 Frequencies --    627.8003               635.7310               635.8373
 Red. masses --      6.6934                 6.2691                 6.5115
 Frc consts  --      1.5543                 1.4928                 1.5510
 IR Inten    --     33.1655                 0.0000                 3.5002

                     31                     32                     33
                      A                      A                      A
 Frequencies --    646.9445               713.3418               713.8067
 Red. masses --      5.9865                 1.8526                 1.7799
 Frc consts  --      1.4762                 0.5554                 0.5343
 IR Inten    --     16.2896                 0.0000                66.1143

                     34                     35                     36
                      A                      A                      A
 Frequencies --    771.0618               774.5387               810.9454
 Red. masses --      2.0106                 2.1139                10.5994
 Frc consts  --      0.7043                 0.7472                 4.1069
 IR Inten    --      0.0000                65.8810                26.9678

                     37                     38                     39
                      A                      A                      A
 Frequencies --    827.8791               839.1052               839.5153
 Red. masses --      5.0712                 3.9196                 3.8382
 Frc consts  --      2.0478                 1.6260                 1.5938
 IR Inten    --      0.0000                 0.0001                22.4059

                     40                     41                     42
                      A                      A                      A
 Frequencies --    863.8189               863.8412               879.5864
 Red. masses --      1.2473                 1.2477                 4.8965
 Frc consts  --      0.5484                 0.5486                 2.2320
 IR Inten    --      0.7402                 0.0003                88.1991

                     43                     44                     45
                      A                      A                      A
 Frequencies --    905.7430               939.4537               942.6526
 Red. masses --      5.5299                 1.4834                 1.5669
 Frc consts  --      2.6729                 0.7714                 0.8203
 IR Inten    --      0.0000                21.6710                 0.0000

                     46                     47                     48
                      A                      A                      A
 Frequencies --    973.8946               973.9241               976.5985
 Red. masses --      1.3719                 1.3566                 4.2089
 Frc consts  --      0.7667                 0.7581                 2.3651
 IR Inten    --      1.1561                 0.0002               173.8820

                     49                     50                     51
                      A                      A                      A
 Frequencies --    987.6452              1002.4772              1002.4787
 Red. masses --      3.4654                 1.2763                 1.2767
 Frc consts  --      1.9916                 0.7557                 0.7559
 IR Inten    --      0.0000                 0.1623                 0.0146

                     52                     53                     54
                      A                      A                      A
 Frequencies --   1018.7342              1019.3309              1021.6410
 Red. masses --      3.6300                 5.0337                 3.4071
 Frc consts  --      2.2196                 3.0816                 2.0953
 IR Inten    --     18.4636                 0.0000                13.2550

                     55                     56                     57
                      A                      A                      A
 Frequencies --   1023.3545              1058.9523              1058.9561
 Red. masses --      3.2952                 2.2332                 2.2319
 Frc consts  --      2.0332                 1.4755                 1.4746
 IR Inten    --      0.0000                 0.0046                 2.2973

                     58                     59                     60
                      A                      A                      A
 Frequencies --   1123.5357              1123.5866              1194.8978
 Red. masses --      1.5184                 1.5184                 1.1025
 Frc consts  --      1.1293                 1.1294                 0.9275
 IR Inten    --      0.0000                 3.8152                 0.0002

                     61                     62                     63
                      A                      A                      A
 Frequencies --   1194.9006              1215.7183              1216.2028
 Red. masses --      1.1025                 1.1510                 1.1417
 Frc consts  --      0.9275                 1.0023                 0.9950
 IR Inten    --      0.0107                38.8180                 0.0000

                     64                     65                     66
                      A                      A                      A
 Frequencies --   1239.9559              1240.1152              1248.0863
 Red. masses --      3.1302                 2.9608                 3.9004
 Frc consts  --      2.8355                 2.6828                 3.5797
 IR Inten    --    104.5558                 0.0001              1369.4893

                     67                     68                     69
                      A                      A                      A
 Frequencies --   1260.5154              1297.1933              1298.6663
 Red. masses --      3.6634                 1.4523                 1.5661
 Frc consts  --      3.4295                 1.4398                 1.5562
 IR Inten    --      0.0001               172.3626                 0.0003

                     70                     71                     72
                      A                      A                      A
 Frequencies --   1364.9106              1364.9178              1375.1560
 Red. masses --      4.2151                 4.2122                 1.2659
 Frc consts  --      4.6267                 4.6235                 1.4104
 IR Inten    --      0.0021                 5.4356                 6.7518

                     73                     74                     75
                      A                      A                      A
 Frequencies --   1375.2531              1415.2190              1416.7397
 Red. masses --      1.2668                 1.3481                 1.3635
 Frc consts  --      1.4117                 1.5908                 1.6125
 IR Inten    --      0.0000                 0.0001                39.5897

                     76                     77                     78
                      A                      A                      A
 Frequencies --   1504.7547              1504.7614              1518.4706
 Red. masses --      2.1970                 2.1972                 1.1176
 Frc consts  --      2.9310                 2.9312                 1.5183
 IR Inten    --      0.0228                13.8958                23.7846

                     79                     80                     81
                      A                      A                      A
 Frequencies --   1518.7312              1547.9501              1547.9890
 Red. masses --      1.1195                 2.2112                 2.2089
 Frc consts  --      1.5214                 3.1217                 3.1187
 IR Inten    --      0.0001                10.1471                 0.0006

                     82                     83                     84
                      A                      A                      A
 Frequencies --   1646.2361              1646.2469              1653.4262
 Red. masses --      5.4964                 5.4956                13.9749
 Frc consts  --      8.7764                 8.7751                22.5096
 IR Inten    --      1.6476                 0.0005                 0.0000

                     85                     86                     87
                      A                      A                      A
 Frequencies --   1666.1250              1666.1561              1832.8161
 Red. masses --      5.5125                 5.5114                12.2026
 Frc consts  --      9.0160                 9.0146                24.1513
 IR Inten    --      0.7916                 0.0000                 0.0001

                     88                     89                     90
                      A                      A                      A
 Frequencies --   1847.0827              3111.0740              3111.1295
 Red. masses --     12.1456                 1.0577                 1.0577
 Frc consts  --     24.4142                 6.0316                 6.0318
 IR Inten    --    474.6956                40.4455                 0.0032

                     91                     92                     93
                      A                      A                      A
 Frequencies --   3168.5311              3168.5438              3179.8537
 Red. masses --      1.1107                 1.1107                 1.0866
 Frc consts  --      6.5699                 6.5700                 6.4732
 IR Inten    --      0.0164                 7.6804                 0.0196

                     94                     95                     96
                      A                      A                      A
 Frequencies --   3179.8589              3187.6736              3187.6755
 Red. masses --      1.0866                 1.0877                 1.0877
 Frc consts  --      6.4732                 6.5122                 6.5122
 IR Inten    --      9.2025                 4.7520                 0.1086

                     97                     98                     99
                      A                      A                      A
 Frequencies --   3198.1240              3198.1311              3207.6747
 Red. masses --      1.0914                 1.0914                 1.0948
 Frc consts  --      6.5769                 6.5769                 6.6367
 IR Inten    --      0.0023                44.6979                49.6485

                    100                    101                    102
                      A                      A                      A
 Frequencies --   3207.6969              3215.1933              3215.1985
 Red. masses --      1.0947                 1.0965                 1.0965
 Frc consts  --      6.6367                 6.6785                 6.6785
 IR Inten    --      0.0001                16.2700                 0.1914

 - Thermochemistry -
 -------------------
 Temperature   298.150 Kelvin.  Pressure   1.00000 Atm.
 Atom     1 has atomic number  6 and mass  12.00000

 Molecular mass:   298.09536 amu.
 Principal axes and moments of inertia in atomic units:
                           1         2         3
     Eigenvalues --  1781.97066********************
           X            1.00000  -0.00154  -0.00175
           Y            0.00145   0.99873  -0.05042
           Z            0.00183   0.05042   0.99873
 This molecule is an asymmetric top.
 Rotational symmetry number  1.
 Warning -- assumption of classical behavior for rotation
           may cause significant error
 Rotational temperatures (Kelvin)      0.04861     0.00388     0.00382
 Rotational constants (GHZ):           1.01278     0.08083     0.07966
 Zero-point vibrational energy     729449.1 (Joules/Mol)
                                  174.34252 (Kcal/Mol)
 Warning -- explicit consideration of  27 degrees of freedom as
           vibrations may cause significant error
 Vibrational temperatures:     10.28    24.19    35.06    38.02    48.62
          (Kelvin)             68.99    77.40   102.54   118.52   188.16
                              231.27   282.97   312.75   327.98   354.31
                              475.01   508.75   522.88   534.24   600.04
                              600.06   624.60   693.78   726.89   820.81
                              864.96   881.37   903.26   914.68   914.83
                              930.81  1026.34  1027.01  1109.39  1114.39
                             1166.77  1191.13  1207.29  1207.88  1242.84
                             1242.87  1265.53  1303.16  1351.66  1356.27
                             1401.22  1401.26  1405.11  1421.00  1442.34
                             1442.34  1465.73  1466.59  1469.91  1472.38
                             1523.60  1523.60  1616.52  1616.59  1719.19
                             1719.20  1749.15  1749.84  1784.02  1784.25
                             1795.72  1813.60  1866.37  1868.49  1963.80
                             1963.81  1978.54  1978.68  2036.18  2038.37
                             2165.01  2165.02  2184.74  2185.12  2227.15
                             2227.21  2368.57  2368.58  2378.91  2397.18
                             2397.23  2637.01  2657.54  4476.14  4476.22
                             4558.81  4558.83  4575.10  4575.11  4586.35
                             4586.35  4601.39  4601.40  4615.13  4615.16
                             4625.95  4625.95

 Zero-point correction=                           0.277832 (Hartree/Particle)
 Thermal correction to Energy=                    0.297287
 Thermal correction to Enthalpy=                  0.298231
 Thermal correction to Gibbs Free Energy=         0.222956
 Sum of electronic and zero-point Energies=          -1028.204805
 Sum of electronic and thermal Energies=             -1028.185350
 Sum of electronic and thermal Enthalpies=           -1028.184406
 Sum of electronic and thermal Free Energies=        -1028.259681

                     E (Thermal)             CV                S
                      KCal/Mol        Cal/Mol-Kelvin    Cal/Mol-Kelvin
 Total                  186.550             71.328            158.429
 Electronic               0.000              0.000              0.000
 Translational            0.889              2.981             42.974
 Rotational               0.889              2.981             35.154
 Vibrational            184.773             65.366             80.301
 Vibration     1          0.593              1.987              8.679
 Vibration     2          0.593              1.986              6.979
 Vibration     3          0.593              1.985              6.242
 Vibration     4          0.593              1.985              6.081
 Vibration     5          0.594              1.983              5.593
 Vibration     6          0.595              1.978              4.900
 Vibration     7          0.596              1.976              4.673
 Vibration     8          0.598              1.968              4.118
 Vibration     9          0.600              1.961              3.834
 Vibration    10          0.612              1.923              2.935
 Vibration    11          0.622              1.890              2.541
 Vibration    12          0.636              1.845              2.164
 Vibration    13          0.646              1.815              1.981
 Vibration    14          0.651              1.798              1.895
 Vibration    15          0.661              1.769              1.757
 Vibration    16          0.713              1.615              1.259
 Vibration    17          0.730              1.568              1.150
 Vibration    18          0.737              1.548              1.107
 Vibration    19          0.743              1.531              1.074
 Vibration    20          0.780              1.433              0.902
 Vibration    21          0.780              1.433              0.902
 Vibration    22          0.795              1.396              0.845
 Vibration    23          0.838              1.290              0.704
 Vibration    24          0.860              1.238              0.645
 Vibration    25          0.927              1.095              0.503
 Vibration    26          0.959              1.029              0.448
 Vibration    27          0.972              1.005              0.429

 Optimization completed.
    -- Stationary point found.
 Normal termination of Gaussian 16 at Sat Aug 22 17:05:47 2020.
 Gaussian 16:  ES64L-G16RevA.03 25-Dec-2016

 ----------------------------------------------------------------------
 # TD(NStates=10, Root=1) B3LYP/6-31G* scf=qc volume pop=NPA density=cu
 rrent Geom=AllCheck Guess=Read
 ----------------------------------------------------------------------

 Structure from the checkpoint file:  "azadicarboxylate_4_conf213.chk"
 -------------------
 Title Card Required
 -------------------
 Charge =  0 Multiplicity = 1

                         Standard orientation:
 ---------------------------------------------------------------------
 Center     Atomic      Atomic             Coordinates (Angstroms)
 Number     Number       Type             X           Y           Z
 ---------------------------------------------------------------------
      1          6           0       -4.717270    0.149450   -0.677879
      2          6           0       -3.541502    0.258807   -1.611237
      3          8           0       -2.290468    0.497709   -0.880429
      4          6           0       -1.614892   -0.581340   -0.497288
      5          8           0       -1.882836   -1.741916   -0.687570
      6          7           0       -0.489007   -0.198205    0.330907
      7          7           0        0.488859    0.197462   -0.330420
      8          6           0        1.614750    0.580576    0.497790
      9          8           0        1.882367    1.741137    0.688624
     10          8           0        2.290726   -0.498457    0.880270
     11          6           0        3.541764   -0.259548    1.611064
     12          6           0        4.717410   -0.149463    0.677638
     13          6           0        5.122491    1.098360    0.184393
     14          6           0        6.206961    1.191857   -0.687925
     15          6           0        6.895941    0.040822   -1.075704
     16          6           0        6.497799   -1.206110   -0.589245
     17          6           0        5.413935   -1.298959    0.283355
     18          6           0       -5.413456    1.299317   -0.284081
     19          6           0       -6.497420    1.207143    0.588466
     20          6           0       -6.896005   -0.039481    1.075355
     21          6           0       -6.207367   -1.190882    0.688059
     22          6           0       -5.122794   -1.098059   -0.184205
     23          1           0       -3.621667    1.131976   -2.260554
     24          1           0       -3.413515   -0.640889   -2.215203
     25          1           0        3.622232   -1.132982    2.259986
     26          1           0        3.413597    0.639846    2.215441
     27          1           0        4.577747    1.990326    0.479745
     28          1           0        6.514785    2.163826   -1.063708
     29          1           0        7.742164    0.115248   -1.753492
     30          1           0        7.032321   -2.104208   -0.886568
     31          1           0        5.105138   -2.270185    0.663321
     32          1           0       -5.104314    2.270302   -0.664384
     33          1           0       -7.031676    2.105523    0.885412
     34          1           0       -7.742307   -0.113382    1.753102
     35          1           0       -6.515536   -2.162612    1.064178
     36          1           0       -4.578309   -1.990310   -0.479173
 ---------------------------------------------------------------------

 SCF Done:  E(RB3LYP) =  -1028.48263706     a.u. after    1 cycles

 Excitation energies and oscillator strengths:

 Excited State   1:      Singlet-A      2.9466 eV  420.77 nm  f=0.0000  <S**2>=0.000
      74 -> 79         0.29353
      78 -> 79         0.63707
 This state for optimization and/or second-order correction.
 Total Energy, E(TD-HF/TD-DFT) =  -1028.37435240
 Copying the excited state density for this state as the 1-particle RhoCI density.

 Excited State   2:      Singlet-A      4.2153 eV  294.13 nm  f=0.0050  <S**2>=0.000
      75 -> 79        -0.36557
      77 -> 79         0.60314

 Excited State   3:      Singlet-A      4.2627 eV  290.86 nm  f=0.0000  <S**2>=0.000
      74 -> 79        -0.38753
      76 -> 79         0.55516
      78 -> 79         0.20058

 Excited State   4:      Singlet-A      4.2696 eV  290.39 nm  f=0.0018  <S**2>=0.000
      75 -> 79         0.60400
      77 -> 79         0.36686

 Excited State   5:      Singlet-A      4.2774 eV  289.86 nm  f=0.0000  <S**2>=0.000
      74 -> 79         0.50669
      76 -> 79         0.43684
      78 -> 79        -0.22270

 Excited State   6:      Singlet-A      5.0809 eV  244.02 nm  f=0.1047  <S**2>=0.000
      73 -> 79         0.69298

 Excited State   7:      Singlet-A      5.2122 eV  237.87 nm  f=0.0000  <S**2>=0.000
      70 -> 79         0.41046
      72 -> 79         0.54914

 Excited State   8:      Singlet-A      5.3849 eV  230.24 nm  f=0.0005  <S**2>=0.000
      74 -> 83        -0.21237
      75 -> 81        -0.24690
      75 -> 82         0.20726
      76 -> 80         0.35884
      76 -> 81         0.12107
      77 -> 81        -0.25145
      77 -> 82        -0.20548
      78 -> 83         0.24100

 Excited State   9:      Singlet-A      5.3849 eV  230.24 nm  f=0.0038  <S**2>=0.000
      74 -> 82        -0.21224
      75 -> 80        -0.25453
      75 -> 83         0.20392
      76 -> 80        -0.12322
      76 -> 81         0.35084
      77 -> 80        -0.25493
      77 -> 83        -0.20915
      78 -> 82         0.24139

 Excited State  10:      Singlet-A      5.4132 eV  229.04 nm  f=0.0589  <S**2>=0.000
      71 -> 79         0.69595

 The electronic state is 1-A.
 Alpha  occ. eigenvalues --  -19.21185 -19.21185 -19.15625 -19.15625 -14.42238
 Alpha  occ. eigenvalues --  -14.42187 -10.35193 -10.35193 -10.25869 -10.25869
 Alpha  occ. eigenvalues --  -10.20496 -10.20496 -10.19893 -10.19893 -10.19805
 Alpha  occ. eigenvalues --  -10.19805 -10.19695 -10.19695 -10.19612 -10.19612
 Alpha  occ. eigenvalues --  -10.19554 -10.19554  -1.13693  -1.12433  -1.05596
 Alpha  occ. eigenvalues --   -1.03892  -1.03489  -0.86339  -0.86259  -0.80986
 Alpha  occ. eigenvalues --   -0.78572  -0.76575  -0.75083  -0.75083  -0.71534
 Alpha  occ. eigenvalues --   -0.69589  -0.62323  -0.61430  -0.61326  -0.60201
 Alpha  occ. eigenvalues --   -0.58385  -0.56493  -0.55460  -0.52559  -0.52233
 Alpha  occ. eigenvalues --   -0.50905  -0.49419  -0.49246  -0.47846  -0.47499
 Alpha  occ. eigenvalues --   -0.46878  -0.46648  -0.45273  -0.43974  -0.43239
 Alpha  occ. eigenvalues --   -0.42950  -0.42446  -0.42234  -0.41154  -0.40858
 Alpha  occ. eigenvalues --   -0.39655  -0.37919  -0.37698  -0.36646  -0.36528
 Alpha  occ. eigenvalues --   -0.36194  -0.35980  -0.34587  -0.34587  -0.31750
 Alpha  occ. eigenvalues --   -0.31628  -0.31416  -0.30183  -0.26170  -0.25673
 Alpha  occ. eigenvalues --   -0.25651  -0.25618  -0.24642
 Alpha virt. eigenvalues --   -0.08141  -0.02006  -0.01867  -0.00710  -0.00709
 Alpha virt. eigenvalues --    0.00920   0.00926   0.08961   0.09009   0.11179
 Alpha virt. eigenvalues --    0.11301   0.12157   0.12553   0.13120   0.13160

 Mulliken charges:
               1
     1  C    0.149848
     2  C   -0.155791
     3  O   -0.407647
     4  C    0.735659
     5  O   -0.419773
     6  N   -0.240894
     7  N   -0.240889
     8  C    0.735657
     9  O   -0.419744
    10  O   -0.407634
    11  C   -0.155799
    12  C    0.149855
    13  C   -0.175361
    14  C   -0.129674
    15  C   -0.123341
    16  C   -0.128649
    17  C   -0.166962
    18  C   -0.166959
    19  C   -0.128650
    20  C   -0.123341
    21  C   -0.129674
    22  C   -0.175355
    23  H    0.170266
    24  H    0.184220
    25  H    0.170269
    26  H    0.184223
    27  H    0.160592
    28  H    0.138313
    29  H    0.136434
    30  H    0.136579
    31  H    0.136154
    32  H    0.136153
    33  H    0.136578
    34  H    0.136433
    35  H    0.138311
    36  H    0.160592
 Sum of Mulliken charges =  -0.00000

 Dipole moment (field-independent basis, Debye):
    X=              0.0010    Y=              0.0007    Z=             -0.0009  Tot=              0.0015
 Quadrupole moment (field-independent basis, Debye-Ang):
   XX=            -86.9707   YY=           -123.9599   ZZ=           -118.5480
   XY=             -6.5527   XZ=             -1.4839   YZ=             -3.8884

 Summary of Natural Population Analysis:

                                       Natural Population
                Natural  -----------------------------------------------
    Atom  No    Charge         Core      Valence    Rydberg      Total
 -----------------------------------------------------------------------
      C    1   -0.09145      1.99901     4.07790    0.01454     6.09145
      C    2   -0.12500      1.99912     4.10687    0.01901     6.12500
      O    3   -0.52157      1.99973     6.50951    0.01234     8.52157
      C    4    0.92231      1.99950     3.02761    0.05057     5.07769
      O    5   -0.55456      1.99977     6.53414    0.02065     8.55456
      N    6   -0.21874      1.99938     5.19305    0.02631     7.21874
      N    7   -0.21874      1.99938     5.19305    0.02631     7.21874
      C    8    0.92232      1.99950     3.02760    0.05057     5.07768
      O    9   -0.55454      1.99977     6.53412    0.02065     8.55454
      O   10   -0.52156      1.99973     6.50950    0.01234     8.52156
      C   11   -0.12500      1.99912     4.10687    0.01901     6.12500
      C   12   -0.09145      1.99901     4.07790    0.01454     6.09145
      C   13   -0.21142      1.99903     4.19899    0.01340     6.21142
      C   14   -0.22939      1.99910     4.21644    0.01385     6.22939
      C   15   -0.22158      1.99910     4.20901    0.01347     6.22158
      C   16   -0.23038      1.99910     4.21745    0.01383     6.23038
      C   17   -0.21110      1.99903     4.19889    0.01318     6.21110
      C   18   -0.21110      1.99903     4.19889    0.01318     6.21110
      C   19   -0.23038      1.99910     4.21745    0.01383     6.23038
      C   20   -0.22158      1.99910     4.20901    0.01347     6.22158
      C   21   -0.22939      1.99910     4.21644    0.01385     6.22939
      C   22   -0.21142      1.99903     4.19898    0.01340     6.21142
      H   23    0.24153      0.00000     0.75727    0.00120     0.75847
      H   24    0.24269      0.00000     0.75516    0.00215     0.75731
      H   25    0.24153      0.00000     0.75727    0.00120     0.75847
      H   26    0.24269      0.00000     0.75516    0.00215     0.75731
      H   27    0.25150      0.00000     0.74708    0.00142     0.74850
      H   28    0.24067      0.00000     0.75849    0.00083     0.75933
      H   29    0.23897      0.00000     0.76021    0.00082     0.76103
      H   30    0.23985      0.00000     0.75931    0.00084     0.76015
      H   31    0.23766      0.00000     0.76129    0.00106     0.76234
      H   32    0.23766      0.00000     0.76129    0.00106     0.76234
      H   33    0.23985      0.00000     0.75931    0.00084     0.76015
      H   34    0.23897      0.00000     0.76021    0.00082     0.76103
      H   35    0.24067      0.00000     0.75849    0.00083     0.75933
      H   36    0.25150      0.00000     0.74708    0.00142     0.74850
 =======================================================================
   * Total *   -0.00000     43.98375   111.57728    0.43897   156.00000

 Normal termination of Gaussian 16 at Sat Aug 22 17:18:15 2020.
