 Gaussian 16, Revision A.03,

 ---------------------------------
 # opt=CalcAll B3LYP/6-31G* scf=qc
 ---------------------------------

 -------------------
 Title Card Required
 -------------------
 Symbolic Z-matrix:
 Charge =  0 Multiplicity = 1

 SCF Done:  E(RB3LYP) =  -723.618733114     a.u. after   10 cycles
 SCF Done:  E(RB3LYP) =  -723.644548894     a.u. after   25 cycles
 SCF Done:  E(RB3LYP) =  -723.651409174     a.u. after   22 cycles
 SCF Done:  E(RB3LYP) =  -723.652385583     a.u. after   13 cycles
 SCF Done:  E(RB3LYP) =  -723.652506300     a.u. after    7 cycles
 SCF Done:  E(RB3LYP) =  -723.652512810     a.u. after    5 cycles
 SCF Done:  E(RB3LYP) =  -723.652512982     a.u. after    3 cycles
 SCF Done:  E(RB3LYP) =  -723.652512989     a.u. after    2 cycles
 Optimization completed.
    -- Stationary point found.
 Normal termination of Gaussian 16 at Sat Aug 22 13:40:28 2020.

 ----------------------------------------------------------------------
 # freq B3LYP/6-31G* scf=qc volume NMR pop=NPA density=current Geom=All
 Check Guess=Read
 ----------------------------------------------------------------------

 Structure from the checkpoint file:  "azadicarboxylate_2_conf22.chk"
 -------------------
 Title Card Required
 -------------------
 Charge =  0 Multiplicity = 1

 SCF Done:  E(RB3LYP) =  -723.652512989     a.u. after    1 cycles

      1  C    Isotropic =   168.3283   Anisotropy =    31.3304

      2  C    Isotropic =   118.3735   Anisotropy =    64.5103

      3  C    Isotropic =   168.2940   Anisotropy =    30.0237

      4  O    Isotropic =   134.7317   Anisotropy =   114.1258

      5  C    Isotropic =    35.1708   Anisotropy =    85.8163

      6  O    Isotropic =   -21.2603   Anisotropy =   497.2702

      7  N    Isotropic =  -323.9490   Anisotropy =   676.8519

      8  N    Isotropic =  -323.9487   Anisotropy =   676.8517

      9  C    Isotropic =    35.1709   Anisotropy =    85.8166

     10  O    Isotropic =   -21.2604   Anisotropy =   497.2708

     11  O    Isotropic =   134.7317   Anisotropy =   114.1256

     12  C    Isotropic =   118.3735   Anisotropy =    64.5103

     13  C    Isotropic =   168.3283   Anisotropy =    31.3304

     14  C    Isotropic =   168.2940   Anisotropy =    30.0237

     15  H    Isotropic =    31.1666   Anisotropy =     8.7614

     16  H    Isotropic =    31.0488   Anisotropy =     6.6689

     17  H    Isotropic =    30.3566   Anisotropy =     7.1672

     18  H    Isotropic =    26.9797   Anisotropy =     2.6382

     19  H    Isotropic =    30.7973   Anisotropy =     6.4702

     20  H    Isotropic =    31.0999   Anisotropy =     8.4499

     21  H    Isotropic =    30.7080   Anisotropy =     8.4328

     22  H    Isotropic =    26.9798   Anisotropy =     2.6382

     23  H    Isotropic =    31.0488   Anisotropy =     6.6689

     24  H    Isotropic =    30.3566   Anisotropy =     7.1671

     25  H    Isotropic =    31.1666   Anisotropy =     8.7614

     26  H    Isotropic =    30.7973   Anisotropy =     6.4702

     27  H    Isotropic =    31.0999   Anisotropy =     8.4499

     28  H    Isotropic =    30.7080   Anisotropy =     8.4328

  Exact polarizability: 147.057  -0.000 102.927  -4.203   0.000  87.579
 Approx polarizability: 170.411  -0.000 155.166 -14.571   0.000 133.072

                      1                      2                      3
                      A                      A                      A
 Frequencies --     13.3797                39.3649                44.0780
 Red. masses --      3.9710                 3.4799                 3.9730
 Frc consts  --      0.0004                 0.0032                 0.0045
 IR Inten    --      0.2507                 1.4768                 0.6747

                      4                      5                      6
                      A                      A                      A
 Frequencies --     54.2834                58.9268                82.0401
 Red. masses --      5.2692                 4.3809                 5.5297
 Frc consts  --      0.0091                 0.0090                 0.0219
 IR Inten    --      0.8427                 0.0404                 0.9624

                      7                      8                      9
                      A                      A                      A
 Frequencies --     87.3379               177.6104               212.5029
 Red. masses --      4.5193                 5.0684                 2.3789
 Frc consts  --      0.0203                 0.0942                 0.0633
 IR Inten    --      0.0040                 3.6023                 2.5302

                     10                     11                     12
                      A                      A                      A
 Frequencies --    218.5599               222.2073               222.8136
 Red. masses --      1.8314                 1.0950                 1.3179
 Frc consts  --      0.0515                 0.0319                 0.0385
 IR Inten    --      1.9439                 0.4798                 0.8930

                     13                     14                     15
                      A                      A                      A
 Frequencies --    228.7157               264.6628               266.1718
 Red. masses --      4.6866                 1.4051                 1.4040
 Frc consts  --      0.1444                 0.0580                 0.0586
 IR Inten    --      0.0003                 1.0651                 2.5674

                     16                     17                     18
                      A                      A                      A
 Frequencies --    310.0463               353.4687               407.7576
 Red. masses --      3.0229                 2.6371                 3.9686
 Frc consts  --      0.1712                 0.1941                 0.3888
 IR Inten    --      7.2596                 0.2259                 3.4259

                     19                     20                     21
                      A                      A                      A
 Frequencies --    408.5162               428.0055               460.3945
 Red. masses --      3.6786                 3.2654                 2.6159
 Frc consts  --      0.3617                 0.3524                 0.3267
 IR Inten    --      7.4435                27.3831                 0.1316

                     22                     23                     24
                      A                      A                      A
 Frequencies --    494.6806               581.3883               622.6432
 Red. masses --      2.9927                 9.0929                 8.9549
 Frc consts  --      0.4315                 1.8109                 2.0454
 IR Inten    --      2.7535                 0.1131                10.2000

                     25                     26                     27
                      A                      A                      A
 Frequencies --    623.1989               810.1384               831.4597
 Red. masses --      6.5162                11.5826                 3.2741
 Frc consts  --      1.4911                 4.4789                 1.3336
 IR Inten    --      2.6386                29.7250                26.4658

                     28                     29                     30
                      A                      A                      A
 Frequencies --    838.3001               864.6132               905.4911
 Red. masses --      3.8585                 6.2090                 3.2875
 Frc consts  --      1.5976                 2.7347                 1.5881
 IR Inten    --      0.0921                 0.2871                51.3193

                     31                     32                     33
                      A                      A                      A
 Frequencies --    923.6971               951.2629               951.3002
 Red. masses --      3.2380                 1.2498                 1.2547
 Frc consts  --      1.6278                 0.6663                 0.6690
 IR Inten    --      0.0555                 0.4365                 0.7483

                     34                     35                     36
                      A                      A                      A
 Frequencies --    962.1346               962.6822               986.7458
 Red. masses --      1.3725                 1.3607                 6.3457
 Frc consts  --      0.7486                 0.7430                 3.6403
 IR Inten    --      4.8546                 0.2290                10.0926

                     37                     38                     39
                      A                      A                      A
 Frequencies --   1003.6973              1140.0267              1147.5110
 Red. masses --      9.0752                 1.8605                 1.8023
 Frc consts  --      5.3866                 1.4247                 1.3983
 IR Inten    --     22.6258               357.3315                27.0938

                     40                     41                     42
                      A                      A                      A
 Frequencies --   1175.1173              1175.2981              1217.8021
 Red. masses --      2.0312                 2.0336                 2.0309
 Frc consts  --      1.6526                 1.6551                 1.7746
 IR Inten    --      6.5693                10.1057                81.3178

                     43                     44                     45
                      A                      A                      A
 Frequencies --   1219.1424              1252.6006              1296.1490
 Red. masses --      1.9305                 5.4310                 6.7742
 Frc consts  --      1.6905                 5.0206                 6.7053
 IR Inten    --     12.5797               871.3368               266.9344

                     46                     47                     48
                      A                      A                      A
 Frequencies --   1383.4503              1383.6447              1398.5541
 Red. masses --      1.4016                 1.4120                 1.2486
 Frc consts  --      1.5805                 1.5927                 1.4389
 IR Inten    --      8.3900                 5.2388                 9.5626

                     49                     50                     51
                      A                      A                      A
 Frequencies --   1398.8677              1433.9331              1434.0587
 Red. masses --      1.2622                 1.3394                 1.3400
 Frc consts  --      1.4552                 1.6226                 1.6236
 IR Inten    --      0.4656                19.3341                13.1961

                     52                     53                     54
                      A                      A                      A
 Frequencies --   1448.7589              1448.9201              1511.8207
 Red. masses --      1.2559                 1.2564                 1.0541
 Frc consts  --      1.5531                 1.5540                 1.4194
 IR Inten    --      8.6119                 5.9043                 1.3363

                     55                     56                     57
                      A                      A                      A
 Frequencies --   1511.8420              1516.3408              1516.4140
 Red. masses --      1.0539                 1.0439                 1.0440
 Frc consts  --      1.4193                 1.4142                 1.4145
 IR Inten    --      1.9792                 2.0485                 0.2481

                     58                     59                     60
                      A                      A                      A
 Frequencies --   1525.4370              1525.5116              1539.3432
 Red. masses --      1.0509                 1.0505                 1.0497
 Frc consts  --      1.4407                 1.4404                 1.4656
 IR Inten    --      4.9759                 3.8033                16.1572

                     61                     62                     63
                      A                      A                      A
 Frequencies --   1539.3925              1649.9812              1835.1144
 Red. masses --      1.0497                13.9872                12.6465
 Frc consts  --      1.4656                22.4357                25.0927
 IR Inten    --      3.0708                 0.8314                96.6644

                     64                     65                     66
                      A                      A                      A
 Frequencies --   1851.1602              3058.6334              3058.6406
 Red. masses --     12.5867                 1.0354                 1.0354
 Frc consts  --     25.4127                 5.7068                 5.7069
 IR Inten    --    492.8760                10.7851                10.7197

                     67                     68                     69
                      A                      A                      A
 Frequencies --   3063.0005              3063.0873              3097.9933
 Red. masses --      1.0360                 1.0360                 1.0873
 Frc consts  --      5.7267                 5.7269                 6.1487
 IR Inten    --     16.8674                11.9220                 3.3404

                     70                     71                     72
                      A                      A                      A
 Frequencies --   3098.0151              3127.0638              3127.0757
 Red. masses --      1.0874                 1.1029                 1.1029
 Frc consts  --      6.1489                 6.3544                 6.3544
 IR Inten    --      0.1004                 2.9320                 0.0777

                     73                     74                     75
                      A                      A                      A
 Frequencies --   3136.0869              3136.2244              3139.4924
 Red. masses --      1.1018                 1.1017                 1.1027
 Frc consts  --      6.3843                 6.3847                 6.4037
 IR Inten    --     76.5772                 1.8848                 0.0062

                     76                     77                     78
                      A                      A                      A
 Frequencies --   3139.5492              3148.6169              3148.6498
 Red. masses --      1.1027                 1.1028                 1.1028
 Frc consts  --      6.4039                 6.4413                 6.4414
 IR Inten    --     47.8933                 5.6387                23.8756

 - Thermochemistry -
 -------------------
 Temperature   298.150 Kelvin.  Pressure   1.00000 Atm.
 Atom     1 has atomic number  6 and mass  12.00000

 Molecular mass:   202.09536 amu.
 Principal axes and moments of inertia in atomic units:
                           1         2         3
     Eigenvalues --  1330.202436682.436367331.07534
           X            0.99994   0.00000   0.01072
           Y           -0.00000   1.00000  -0.00000
           Z           -0.01072   0.00000   0.99994
 This molecule is an asymmetric top.
 Rotational symmetry number  1.
 Warning -- assumption of classical behavior for rotation
           may cause significant error
 Rotational temperatures (Kelvin)      0.06511     0.01296     0.01181
 Rotational constants (GHZ):           1.35674     0.27007     0.24618
 Zero-point vibrational energy     597490.4 (Joules/Mol)
                                  142.80364 (Kcal/Mol)
 Warning -- explicit consideration of  23 degrees of freedom as
           vibrations may cause significant error
 Vibrational temperatures:     19.25    56.64    63.42    78.10    84.78
          (Kelvin)            118.04   125.66   255.54   305.74   314.46
                              319.71   320.58   329.07   380.79   382.96
                              446.09   508.56   586.67   587.76   615.80
                              662.40   711.74   836.49   895.84   896.64
                             1165.61  1196.29  1206.13  1243.99  1302.80
                             1328.99  1368.66  1368.71  1384.30  1385.08
                             1419.71  1444.10  1640.24  1651.01  1690.73
                             1690.99  1752.15  1754.07  1802.21  1864.87
                             1990.48  1990.76  2012.21  2012.66  2063.11
                             2063.29  2084.44  2084.67  2175.17  2175.20
                             2181.68  2181.78  2194.76  2194.87  2214.77
                             2214.84  2373.95  2640.32  2663.41  4400.69
                             4400.70  4406.97  4407.10  4457.32  4457.35
                             4499.15  4499.16  4512.13  4512.33  4517.03
                             4517.11  4530.16  4530.20

 Zero-point correction=                           0.227572 (Hartree/Particle)
 Thermal correction to Energy=                    0.243823
 Thermal correction to Enthalpy=                  0.244767
 Thermal correction to Gibbs Free Energy=         0.180912
 Sum of electronic and zero-point Energies=           -723.424941
 Sum of electronic and thermal Energies=              -723.408690
 Sum of electronic and thermal Enthalpies=            -723.407746
 Sum of electronic and thermal Free Energies=         -723.471601

                     E (Thermal)             CV                S
                      KCal/Mol        Cal/Mol-Kelvin    Cal/Mol-Kelvin
 Total                  153.001             56.237            134.396
 Electronic               0.000              0.000              0.000
 Translational            0.889              2.981             41.815
 Rotational               0.889              2.981             32.544
 Vibrational            151.224             50.276             60.037
 Vibration     1          0.593              1.987              7.433
 Vibration     2          0.594              1.981              5.291
 Vibration     3          0.595              1.980              5.067
 Vibration     4          0.596              1.976              4.655
 Vibration     5          0.596              1.974              4.493
 Vibration     6          0.600              1.961              3.841
 Vibration     7          0.601              1.958              3.719
 Vibration     8          0.628              1.870              2.353
 Vibration     9          0.644              1.822              2.022
 Vibration    10          0.646              1.813              1.971
 Vibration    11          0.648              1.807              1.941
 Vibration    12          0.648              1.806              1.936
 Vibration    13          0.651              1.797              1.889
 Vibration    14          0.671              1.738              1.631
 Vibration    15          0.672              1.735              1.621
 Vibration    16          0.699              1.655              1.362
 Vibration    17          0.730              1.568              1.151
 Vibration    18          0.772              1.453              0.935
 Vibration    19          0.773              1.452              0.932
 Vibration    20          0.790              1.409              0.865
 Vibration    21          0.818              1.338              0.765
 Vibration    22          0.850              1.262              0.672
 Vibration    23          0.938              1.072              0.483

 Optimization completed.
    -- Stationary point found.
 Normal termination of Gaussian 16 at Sat Aug 22 13:44:43 2020.
 Gaussian 16:  ES64L-G16RevA.03 25-Dec-2016

 ----------------------------------------------------------------------
 # TD(NStates=10, Root=1) B3LYP/6-31G* scf=qc volume pop=NPA density=cu
 rrent Geom=AllCheck Guess=Read
 ----------------------------------------------------------------------

 Structure from the checkpoint file:  "azadicarboxylate_2_conf23.chk"
 -------------------
 Title Card Required
 -------------------
 Charge =  0 Multiplicity = 1

                         Standard orientation:
 ---------------------------------------------------------------------
 Center     Atomic      Atomic             Coordinates (Angstroms)
 Number     Number       Type             X           Y           Z
 ---------------------------------------------------------------------
      1          6           0        4.229002    0.006779    1.148114
      2          6           0        3.669027   -0.513175   -0.169868
      3          6           0        3.939566   -1.988737   -0.419016
      4          8           0        2.205519   -0.374921   -0.154654
      5          6           0        1.712710    0.809254   -0.506856
      6          8           0        2.312771    1.799502   -0.842936
      7          7           0        0.263838    0.756491   -0.564175
      8          7           0       -0.263840    0.756497    0.564175
      9          6           0       -1.712712    0.809256    0.506855
     10          8           0       -2.312774    1.799504    0.842934
     11          8           0       -2.205518   -0.374920    0.154654
     12          6           0       -3.669026   -0.513176    0.169869
     13          6           0       -4.229002    0.006776   -1.148114
     14          6           0       -3.939562   -1.988739    0.419018
     15          1           0        5.318799   -0.106023    1.158998
     16          1           0        3.814315   -0.555218    1.991864
     17          1           0        3.993940    1.066782    1.277311
     18          1           0        4.036278    0.097384   -0.999817
     19          1           0        3.528706   -2.601320    0.390593
     20          1           0        5.019458   -2.164003   -0.470630
     21          1           0        3.491141   -2.314430   -1.362555
     22          1           0       -4.036278    0.097383    0.999817
     23          1           0       -3.814315   -0.555222   -1.991864
     24          1           0       -3.993941    1.066779   -1.277312
     25          1           0       -5.318799   -0.106028   -1.158997
     26          1           0       -3.528701   -2.601322   -0.390590
     27          1           0       -5.019454   -2.164006    0.470633
     28          1           0       -3.491136   -2.314430    1.362557
 ---------------------------------------------------------------------

 SCF Done:  E(RB3LYP) =  -723.652512989     a.u. after    1 cycles

 Excitation energies and oscillator strengths:

 Excited State   1:      Singlet-A      2.9164 eV  425.13 nm  f=0.0042  <S**2>=0.000
      54 -> 55         0.69945
 This state for optimization and/or second-order correction.
 Total Energy, E(TD-HF/TD-DFT) =  -723.545338263
 Copying the excited state density for this state as the 1-particle RhoCI density.

 Excited State   2:      Singlet-A      4.9203 eV  251.98 nm  f=0.0495  <S**2>=0.000
      53 -> 55         0.68840

 Excited State   3:      Singlet-A      5.1060 eV  242.82 nm  f=0.0000  <S**2>=0.000
      52 -> 55         0.69452

 Excited State   4:      Singlet-A      5.3764 eV  230.61 nm  f=0.0048  <S**2>=0.000
      51 -> 55         0.69729

 Excited State   5:      Singlet-A      5.3890 eV  230.07 nm  f=0.0032  <S**2>=0.000
      50 -> 55         0.69728

 Excited State   6:      Singlet-A      5.7346 eV  216.21 nm  f=0.0000  <S**2>=0.000
      52 -> 57         0.15562
      54 -> 56         0.67630

 Excited State   7:      Singlet-A      5.8353 eV  212.47 nm  f=0.0160  <S**2>=0.000
      52 -> 56         0.14959
      54 -> 57         0.67611

 Excited State   8:      Singlet-A      6.4288 eV  192.86 nm  f=0.0002  <S**2>=0.000
      49 -> 55         0.68650

 Excited State   9:      Singlet-A      6.4998 eV  190.75 nm  f=0.0001  <S**2>=0.000
      45 -> 55         0.10207
      47 -> 55         0.14651
      48 -> 55         0.67748

 Excited State  10:      Singlet-A      6.8940 eV  179.84 nm  f=0.0462  <S**2>=0.000
      45 -> 55         0.11080
      47 -> 55         0.60972
      48 -> 55        -0.15680
      52 -> 56         0.13857
      53 -> 57        -0.17792

 The electronic state is 1-A.
 Alpha  occ. eigenvalues --  -19.20887 -19.20887 -19.15407 -19.15407 -14.42075
 Alpha  occ. eigenvalues --  -14.42024 -10.34999 -10.34998 -10.26214 -10.26214
 Alpha  occ. eigenvalues --  -10.19257 -10.19257 -10.18897 -10.18897  -1.13544
 Alpha  occ. eigenvalues --   -1.12276  -1.05414  -1.03703  -1.03398  -0.82353
 Alpha  occ. eigenvalues --   -0.80686  -0.76580  -0.70596  -0.70595  -0.65831
 Alpha  occ. eigenvalues --   -0.62402  -0.58013  -0.56487  -0.55836  -0.50826
 Alpha  occ. eigenvalues --   -0.49400  -0.48257  -0.47774  -0.46143  -0.45416
 Alpha  occ. eigenvalues --   -0.44908  -0.43741  -0.41846  -0.41530  -0.40503
 Alpha  occ. eigenvalues --   -0.40489  -0.40161  -0.39564  -0.38634  -0.37557
 Alpha  occ. eigenvalues --   -0.36925  -0.36618  -0.35092  -0.34947  -0.31584
 Alpha  occ. eigenvalues --   -0.31537  -0.30872  -0.30413  -0.24900
 Alpha virt. eigenvalues --   -0.08248   0.00845   0.01428   0.08683   0.08715
 Alpha virt. eigenvalues --    0.10450   0.10593   0.13176   0.13197   0.14411
 Alpha virt. eigenvalues --    0.14422   0.16394   0.16442   0.16759   0.16869

 Mulliken charges:
               1
     1  C   -0.459347
     2  C    0.117032
     3  C   -0.454608
     4  O   -0.425501
     5  C    0.737981
     6  O   -0.418264
     7  N   -0.242823
     8  N   -0.242823
     9  C    0.737981
    10  O   -0.418264
    11  O   -0.425501
    12  C    0.117032
    13  C   -0.459347
    14  C   -0.454608
    15  H    0.153665
    16  H    0.160402
    17  H    0.178703
    18  H    0.168505
    19  H    0.163356
    20  H    0.155796
    21  H    0.165104
    22  H    0.168505
    23  H    0.160402
    24  H    0.178703
    25  H    0.153665
    26  H    0.163356
    27  H    0.155796
    28  H    0.165104
 Sum of Mulliken charges =  -0.00000

 Dipole moment (field-independent basis, Debye):
    X=              0.0000    Y=             -4.1246    Z=             -0.0000  Tot=              4.1246
 Quadrupole moment (field-independent basis, Debye-Ang):
   XX=            -59.1231   YY=            -89.6120   ZZ=            -81.9193
   XY=              0.0000   XZ=              2.9730   YZ=             -0.0000

 Summary of Natural Population Analysis:

                                       Natural Population
                Natural  -----------------------------------------------
    Atom  No    Charge         Core      Valence    Rydberg      Total
 -----------------------------------------------------------------------
      C    1   -0.70393      1.99939     4.69598    0.00855     6.70393
      C    2    0.08323      1.99912     3.90016    0.01748     5.91677
      C    3   -0.69638      1.99939     4.68796    0.00903     6.69638
      O    4   -0.53869      1.99972     6.52632    0.01266     8.53869
      C    5    0.91813      1.99950     3.03169    0.05068     5.08187
      O    6   -0.54556      1.99977     6.52508    0.02071     8.54556
      N    7   -0.21549      1.99939     5.18974    0.02637     7.21549
      N    8   -0.21549      1.99939     5.18974    0.02637     7.21549
      C    9    0.91813      1.99950     3.03169    0.05068     5.08187
      O   10   -0.54556      1.99977     6.52508    0.02071     8.54556
      O   11   -0.53869      1.99972     6.52632    0.01266     8.53869
      C   12    0.08323      1.99912     3.90016    0.01748     5.91677
      C   13   -0.70393      1.99939     4.69598    0.00855     6.70393
      C   14   -0.69638      1.99939     4.68796    0.00903     6.69638
      H   15    0.24054      0.00000     0.75870    0.00076     0.75946
      H   16    0.23687      0.00000     0.76178    0.00135     0.76313
      H   17    0.25150      0.00000     0.74748    0.00101     0.74850
      H   18    0.24338      0.00000     0.75390    0.00272     0.75662
      H   19    0.23919      0.00000     0.75954    0.00128     0.76081
      H   20    0.24181      0.00000     0.75754    0.00066     0.75819
      H   21    0.24541      0.00000     0.75362    0.00097     0.75459
      H   22    0.24338      0.00000     0.75390    0.00272     0.75662
      H   23    0.23687      0.00000     0.76178    0.00135     0.76313
      H   24    0.25150      0.00000     0.74748    0.00101     0.74850
      H   25    0.24054      0.00000     0.75870    0.00076     0.75946
      H   26    0.23919      0.00000     0.75954    0.00128     0.76081
      H   27    0.24181      0.00000     0.75754    0.00066     0.75819
      H   28    0.24541      0.00000     0.75362    0.00097     0.75459
 =======================================================================
   * Total *    0.00000     27.99258    79.69895    0.30847   108.00000

 Normal termination of Gaussian 16 at Sat Aug 22 13:49:50 2020.
