 Gaussian 16, Revision A.03,

 ---------------------------------
 # opt=CalcAll B3LYP/6-31G* scf=qc
 ---------------------------------

 -------------------
 Title Card Required
 -------------------
 Symbolic Z-matrix:
 Charge =  0 Multiplicity = 1

 SCF Done:  E(RB3LYP) =  -1028.45453753     a.u. after   10 cycles
 SCF Done:  E(RB3LYP) =  -1028.47599222     a.u. after   23 cycles
 SCF Done:  E(RB3LYP) =  -1028.47974336     a.u. after   19 cycles
 SCF Done:  E(RB3LYP) =  -1028.48111882     a.u. after   19 cycles
 SCF Done:  E(RB3LYP) =  -1028.48126528     a.u. after   17 cycles
 SCF Done:  E(RB3LYP) =  -1028.48151757     a.u. after   25 cycles
 SCF Done:  E(RB3LYP) =  -1028.48167926     a.u. after   13 cycles
 SCF Done:  E(RB3LYP) =  -1028.48168803     a.u. after   15 cycles
 SCF Done:  E(RB3LYP) =  -1028.48169548     a.u. after    9 cycles
 SCF Done:  E(RB3LYP) =  -1028.48169568     a.u. after    4 cycles
 SCF Done:  E(RB3LYP) =  -1028.48169568     a.u. after    2 cycles
 Optimization completed.
    -- Stationary point found.
 Normal termination of Gaussian 16 at Sat Aug 22 16:14:40 2020.

 ----------------------------------------------------------------------
 # freq B3LYP/6-31G* scf=qc volume NMR pop=NPA density=current Geom=All
 Check Guess=Read
 ----------------------------------------------------------------------

 Structure from the checkpoint file:  "azadicarboxylate_4_conf172.chk"
 -------------------
 Title Card Required
 -------------------
 Charge =  0 Multiplicity = 1

 SCF Done:  E(RB3LYP) =  -1028.48169568     a.u. after    1 cycles

      1  C    Isotropic =    62.1063   Anisotropy =   173.2664

      2  C    Isotropic =   120.5982   Anisotropy =    39.0737

      3  O    Isotropic =   140.6734   Anisotropy =   142.8269

      4  C    Isotropic =    34.7183   Anisotropy =    85.7213

      5  O    Isotropic =   -21.0144   Anisotropy =   496.0887

      6  N    Isotropic =  -322.1973   Anisotropy =   674.8123

      7  N    Isotropic =  -326.4995   Anisotropy =   680.0121

      8  C    Isotropic =    35.2072   Anisotropy =    79.1768

      9  O    Isotropic =   -26.7995   Anisotropy =   496.8367

     10  O    Isotropic =   146.6449   Anisotropy =   129.7495

     11  C    Isotropic =   118.8405   Anisotropy =    33.2376

     12  C    Isotropic =    63.2164   Anisotropy =   174.3830

     13  C    Isotropic =    65.0742   Anisotropy =   156.4658

     14  C    Isotropic =    68.0001   Anisotropy =   166.3315

     15  C    Isotropic =    66.9602   Anisotropy =   171.2446

     16  C    Isotropic =    67.8058   Anisotropy =   166.7733

     17  C    Isotropic =    64.7903   Anisotropy =   159.4061

     18  C    Isotropic =    64.0072   Anisotropy =   162.8256

     19  C    Isotropic =    67.7292   Anisotropy =   166.9597

     20  C    Isotropic =    66.9953   Anisotropy =   170.9733

     21  C    Isotropic =    68.2715   Anisotropy =   165.6565

     22  C    Isotropic =    65.0719   Anisotropy =   156.3100

     23  H    Isotropic =    26.4358   Anisotropy =     2.7080

     24  H    Isotropic =    27.5891   Anisotropy =     5.3288

     25  H    Isotropic =    27.2528   Anisotropy =     4.4998

     26  H    Isotropic =    27.1774   Anisotropy =     4.2943

     27  H    Isotropic =    24.9098   Anisotropy =     6.9374

     28  H    Isotropic =    24.9068   Anisotropy =     4.7103

     29  H    Isotropic =    24.8793   Anisotropy =     4.2028

     30  H    Isotropic =    24.8738   Anisotropy =     4.6867

     31  H    Isotropic =    24.8454   Anisotropy =     7.1546

     32  H    Isotropic =    24.4256   Anisotropy =     7.6519

     33  H    Isotropic =    24.9371   Anisotropy =     4.9785

     34  H    Isotropic =    24.9346   Anisotropy =     4.1693

     35  H    Isotropic =    24.9359   Anisotropy =     4.5083

     36  H    Isotropic =    24.9095   Anisotropy =     6.8008

  Exact polarizability: 204.880 -15.214 180.252 -30.926  -1.373 168.734
 Approx polarizability: 239.923 -28.989 305.252 -58.694   6.105 297.956

                      1                      2                      3
                      A                      A                      A
 Frequencies --      5.9906                 9.1363                22.0953
 Red. masses --      5.7006                 3.8211                 5.3539
 Frc consts  --      0.0001                 0.0002                 0.0015
 IR Inten    --      0.5386                 0.1015                 0.1979

                      4                      5                      6
                      A                      A                      A
 Frequencies --     24.0806                27.9671                30.7041
 Red. masses --      4.1872                 7.1782                 8.9009
 Frc consts  --      0.0014                 0.0033                 0.0049
 IR Inten    --      0.1649                 1.2555                 0.8926

                      7                      8                      9
                      A                      A                      A
 Frequencies --     62.8317                74.8004               100.3346
 Red. masses --      8.5377                 6.2010                 6.6662
 Frc consts  --      0.0199                 0.0204                 0.0395
 IR Inten    --      0.8992                 1.6226                 0.6578

                     10                     11                     12
                      A                      A                      A
 Frequencies --    102.4801               150.8968               209.6593
 Red. masses --      6.3245                 6.3083                 8.4537
 Frc consts  --      0.0391                 0.0846                 0.2189
 IR Inten    --      0.1608                 0.5498                 2.6818

                     13                     14                     15
                      A                      A                      A
 Frequencies --    220.8164               226.1352               250.9557
 Red. masses --      7.1723                 8.6296                 8.0667
 Frc consts  --      0.2061                 0.2600                 0.2993
 IR Inten    --      0.3350                15.3064                 8.0053

                     16                     17                     18
                      A                      A                      A
 Frequencies --    295.9345               326.5410               335.8632
 Red. masses --      5.9130                 6.0470                 2.2192
 Frc consts  --      0.3051                 0.3799                 0.1475
 IR Inten    --      0.4086                 2.5543                 1.4505

                     19                     20                     21
                      A                      A                      A
 Frequencies --    367.3514               416.3290               416.9365
 Red. masses --      2.2107                 2.9554                 2.9677
 Frc consts  --      0.1758                 0.3018                 0.3040
 IR Inten    --      9.2334                 0.0164                 0.0360

                     22                     23                     24
                      A                      A                      A
 Frequencies --    433.3729               481.7288               510.9937
 Red. masses --      6.5146                 4.1976                 4.4525
 Frc consts  --      0.7209                 0.5739                 0.6850
 IR Inten    --      2.0897                 7.0122                 0.2652

                     25                     26                     27
                      A                      A                      A
 Frequencies --    574.6749               587.6746               592.2180
 Red. masses --      6.5103                 5.1907                 7.9950
 Frc consts  --      1.2668                 1.0562                 1.6521
 IR Inten    --     22.0412                11.9278                19.9229

                     28                     29                     30
                      A                      A                      A
 Frequencies --    635.4770               635.9589               643.3098
 Red. masses --      6.3351                 6.3175                 5.4591
 Frc consts  --      1.5073                 1.5054                 1.3311
 IR Inten    --      0.3809                 0.0318                 6.0930

                     31                     32                     33
                      A                      A                      A
 Frequencies --    652.9413               712.3581               713.6420
 Red. masses --      9.5558                 1.8472                 1.7928
 Frc consts  --      2.4003                 0.5523                 0.5379
 IR Inten    --     11.7911                22.3185                38.2811

                     34                     35                     36
                      A                      A                      A
 Frequencies --    770.9897               773.9159               810.8519
 Red. masses --      1.9547                 2.0428                 9.7793
 Frc consts  --      0.6846                 0.7209                 3.7883
 IR Inten    --      3.8699                66.8680                26.5106

                     37                     38                     39
                      A                      A                      A
 Frequencies --    819.2931               839.3742               857.9455
 Red. masses --      5.8354                 3.8313                 4.6939
 Frc consts  --      2.3078                 1.5904                 2.0357
 IR Inten    --      6.2764                13.9046                30.6399

                     40                     41                     42
                      A                      A                      A
 Frequencies --    860.2928               863.6337               903.7790
 Red. masses --      1.2488                 1.2481                 5.8701
 Frc consts  --      0.5446                 0.5485                 2.8250
 IR Inten    --      0.0056                 0.0783                25.5014

                     43                     44                     45
                      A                      A                      A
 Frequencies --    922.2295               941.6190               966.1622
 Red. masses --      1.7037                 1.5257                 4.1438
 Frc consts  --      0.8537                 0.7970                 2.2790
 IR Inten    --     32.1042                 5.8346                45.3745

                     46                     47                     48
                      A                      A                      A
 Frequencies --    968.6081               973.9125               979.7876
 Red. masses --      1.3574                 1.3599                 3.2075
 Frc consts  --      0.7503                 0.7600                 1.8142
 IR Inten    --      0.0807                 0.3062               102.8814

                     49                     50                     51
                      A                      A                      A
 Frequencies --    985.2874              1000.8641              1002.2852
 Red. masses --      1.9409                 1.3276                 1.2960
 Frc consts  --      1.1101                 0.7836                 0.7671
 IR Inten    --     22.9611                 0.9867                 1.3879

                     52                     53                     54
                      A                      A                      A
 Frequencies --   1003.1183              1018.9125              1020.0996
 Red. masses --      6.1006                 3.9301                 6.2735
 Frc consts  --      3.6168                 2.4039                 3.8463
 IR Inten    --     27.0360                 9.0383                 1.0618

                     55                     56                     57
                      A                      A                      A
 Frequencies --   1021.8189              1058.6872              1059.0084
 Red. masses --      3.4437                 2.1979                 2.2312
 Frc consts  --      2.1185                 1.4514                 1.4743
 IR Inten    --      8.1775                 0.3620                 0.9237

                     58                     59                     60
                      A                      A                      A
 Frequencies --   1121.1562              1123.6241              1194.8287
 Red. masses --      1.5110                 1.5185                 1.1024
 Frc consts  --      1.1190                 1.1296                 0.9273
 IR Inten    --      2.1101                 1.7733                 0.0081

                     61                     62                     63
                      A                      A                      A
 Frequencies --   1194.9304              1214.6023              1216.0557
 Red. masses --      1.1031                 1.1429                 1.1451
 Frc consts  --      0.9280                 0.9934                 0.9977
 IR Inten    --      0.0046                18.0441                13.6053

                     64                     65                     66
                      A                      A                      A
 Frequencies --   1239.9086              1244.6678              1249.5188
 Red. masses --      3.1404                 3.1988                 3.2602
 Frc consts  --      2.8446                 2.9197                 2.9990
 IR Inten    --     72.3798               481.4507               623.7359

                     67                     68                     69
                      A                      A                      A
 Frequencies --   1259.6387              1266.8293              1299.3216
 Red. masses --      1.3198                 3.4466                 1.5085
 Frc consts  --      1.2338                 3.2589                 1.5005
 IR Inten    --     10.3388               364.0927                67.7074

                     70                     71                     72
                      A                      A                      A
 Frequencies --   1363.2974              1365.1840              1370.1476
 Red. masses --      5.0852                 4.1311                 1.2933
 Frc consts  --      5.5686                 4.5363                 1.4305
 IR Inten    --      0.6054                 2.8118                 0.6036

                     73                     74                     75
                      A                      A                      A
 Frequencies --   1375.4647              1417.5890              1420.7280
 Red. masses --      1.2678                 1.3585                 1.4899
 Frc consts  --      1.4132                 1.6084                 1.7719
 IR Inten    --      2.8157                21.7983                23.9282

                     76                     77                     78
                      A                      A                      A
 Frequencies --   1503.7839              1504.8739              1516.6997
 Red. masses --      2.2163                 2.1990                 1.1177
 Frc consts  --      2.9529                 2.9341                 1.5149
 IR Inten    --      7.1435                 7.0213                11.2664

                     79                     80                     81
                      A                      A                      A
 Frequencies --   1528.9204              1548.0423              1550.2152
 Red. masses --      1.0970                 2.2118                 2.2761
 Frc consts  --      1.5109                 3.1229                 3.2228
 IR Inten    --      4.8622                 4.5088                 2.7656

                     82                     83                     84
                      A                      A                      A
 Frequencies --   1646.4569              1647.8003              1647.9443
 Red. masses --      5.5267                 5.8392                12.2271
 Frc consts  --      8.8271                 9.3414                19.5640
 IR Inten    --      0.8117                 0.2880                 0.2085

                     85                     86                     87
                      A                      A                      A
 Frequencies --   1666.1432              1668.4819              1834.1562
 Red. masses --      5.5101                 5.5846                12.2791
 Frc consts  --      9.0123                 9.1598                24.3383
 IR Inten    --      0.5559                 0.3852                11.3966

                     88                     89                     90
                      A                      A                      A
 Frequencies --   1848.7187              3088.6995              3107.1442
 Red. masses --     12.4437                 1.0577                 1.0575
 Frc consts  --     25.0578                 5.9453                 6.0154
 IR Inten    --    569.8563                14.3123                22.7924

                     91                     92                     93
                      A                      A                      A
 Frequencies --   3139.6192              3164.9816              3179.8820
 Red. masses --      1.1101                 1.1108                 1.0864
 Frc consts  --      6.4469                 6.5557                 6.4725
 IR Inten    --      9.8120                 4.6553                 4.4018

                     94                     95                     96
                      A                      A                      A
 Frequencies --   3180.9401              3183.8116              3187.5275
 Red. masses --      1.0859                 1.0879                 1.0878
 Frc consts  --      6.4734                 6.4975                 6.5117
 IR Inten    --      4.4543                 2.7492                 2.7299

                     97                     98                     99
                      A                      A                      A
 Frequencies --   3192.7035              3198.1153              3202.7895
 Red. masses --      1.0906                 1.0914                 1.0942
 Frc consts  --      6.5498                 6.5770                 6.6130
 IR Inten    --     10.5791                22.5706                32.5150

                    100                    101                    102
                      A                      A                      A
 Frequencies --   3207.8421              3212.4674              3215.4201
 Red. masses --      1.0949                 1.0980                 1.0963
 Frc consts  --      6.6381                 6.6763                 6.6782
 IR Inten    --     24.1546                16.8363                 7.4215

 - Thermochemistry -
 -------------------
 Temperature   298.150 Kelvin.  Pressure   1.00000 Atm.
 Atom     1 has atomic number  6 and mass  12.00000

 Molecular mass:   298.09536 amu.
 Principal axes and moments of inertia in atomic units:
                           1         2         3
     Eigenvalues --  3137.71747********************
           X            1.00000  -0.00109  -0.00286
           Y            0.00100   0.99954  -0.03024
           Z            0.00290   0.03024   0.99954
 This molecule is an asymmetric top.
 Rotational symmetry number  1.
 Warning -- assumption of classical behavior for rotation
           may cause significant error
 Rotational temperatures (Kelvin)      0.02760     0.00444     0.00429
 Rotational constants (GHZ):           0.57518     0.09250     0.08948
 Zero-point vibrational energy     728444.1 (Joules/Mol)
                                  174.10231 (Kcal/Mol)
 Warning -- explicit consideration of  27 degrees of freedom as
           vibrations may cause significant error
 Vibrational temperatures:      8.62    13.15    31.79    34.65    40.24
          (Kelvin)             44.18    90.40   107.62   144.36   147.45
                              217.11   301.65   317.71   325.36   361.07
                              425.78   469.82   483.23   528.54   599.00
                              599.88   623.53   693.10   735.21   826.83
                              845.53   852.07   914.31   915.00   925.58
                              939.44  1024.92  1026.77  1109.28  1113.49
                             1166.64  1178.78  1207.67  1234.39  1237.77
                             1242.58  1300.34  1326.88  1354.78  1390.09
                             1393.61  1401.24  1409.70  1417.61  1440.02
                             1442.06  1443.26  1465.99  1467.70  1470.17
                             1523.21  1523.68  1613.09  1616.64  1719.09
                             1719.24  1747.54  1749.63  1783.95  1790.80
                             1797.78  1812.34  1822.68  1869.43  1961.48
                             1964.20  1971.34  1978.99  2039.59  2044.11
                             2163.61  2165.18  2182.19  2199.78  2227.29
                             2230.41  2368.88  2370.82  2371.02  2397.21
                             2400.57  2638.94  2659.89  4443.95  4470.49
                             4517.21  4553.70  4575.14  4576.66  4580.79
                             4586.14  4593.59  4601.37  4608.10  4615.37
                             4622.02  4626.27

 Zero-point correction=                           0.277450 (Hartree/Particle)
 Thermal correction to Energy=                    0.297064
 Thermal correction to Enthalpy=                  0.298008
 Thermal correction to Gibbs Free Energy=         0.221029
 Sum of electronic and zero-point Energies=          -1028.204246
 Sum of electronic and thermal Energies=             -1028.184631
 Sum of electronic and thermal Enthalpies=           -1028.183687
 Sum of electronic and thermal Free Energies=        -1028.260666

                     E (Thermal)             CV                S
                      KCal/Mol        Cal/Mol-Kelvin    Cal/Mol-Kelvin
 Total                  186.411             71.469            162.016
 Electronic               0.000              0.000              0.000
 Translational            0.889              2.981             42.974
 Rotational               0.889              2.981             35.467
 Vibrational            184.633             65.507             83.576
 Vibration     1          0.593              1.987              9.029
 Vibration     2          0.593              1.987              8.191
 Vibration     3          0.593              1.985              6.436
 Vibration     4          0.593              1.985              6.266
 Vibration     5          0.593              1.984              5.969
 Vibration     6          0.594              1.984              5.783
 Vibration     7          0.597              1.972              4.366
 Vibration     8          0.599              1.966              4.023
 Vibration     9          0.604              1.949              3.448
 Vibration    10          0.605              1.947              3.407
 Vibration    11          0.618              1.902              2.661
 Vibration    12          0.642              1.826              2.047
 Vibration    13          0.648              1.809              1.952
 Vibration    14          0.650              1.801              1.909
 Vibration    15          0.663              1.761              1.724
 Vibration    16          0.690              1.681              1.440
 Vibration    17          0.710              1.622              1.277
 Vibration    18          0.717              1.604              1.232
 Vibration    19          0.740              1.539              1.091
 Vibration    20          0.780              1.435              0.905
 Vibration    21          0.780              1.433              0.902
 Vibration    22          0.794              1.398              0.848
 Vibration    23          0.838              1.291              0.705
 Vibration    24          0.866              1.226              0.631
 Vibration    25          0.931              1.086              0.495
 Vibration    26          0.945              1.058              0.471
 Vibration    27          0.950              1.048              0.463

 Optimization completed.
    -- Stationary point found.
 Normal termination of Gaussian 16 at Sat Aug 22 16:23:57 2020.
 Gaussian 16:  ES64L-G16RevA.03 25-Dec-2016

 ----------------------------------------------------------------------
 # TD(NStates=10, Root=1) B3LYP/6-31G* scf=qc volume pop=NPA density=cu
 rrent Geom=AllCheck Guess=Read
 ----------------------------------------------------------------------

 Structure from the checkpoint file:  "azadicarboxylate_4_conf173.chk"
 -------------------
 Title Card Required
 -------------------
 Charge =  0 Multiplicity = 1

                         Standard orientation:
 ---------------------------------------------------------------------
 Center     Atomic      Atomic             Coordinates (Angstroms)
 Number     Number       Type             X           Y           Z
 ---------------------------------------------------------------------
      1          6           0        4.555044   -0.005792    0.366794
      2          6           0        3.922384   -1.113419    1.165990
      3          8           0        2.576045   -1.435004    0.678031
      4          6           0        1.571437   -0.768140    1.238854
      5          8           0        1.619961    0.070311    2.104965
      6          7           0        0.297993   -1.269733    0.761718
      7          7           0        0.046264   -0.921747   -0.407490
      8          6           0       -1.225162   -1.428867   -0.883970
      9          8           0       -1.282116   -2.336933   -1.674855
     10          8           0       -2.226549   -0.689946   -0.414078
     11          6           0       -3.552718   -1.039114   -0.931152
     12          6           0       -4.538431   -0.038079   -0.401704
     13          6           0       -4.867451    1.098156   -1.150239
     14          6           0       -5.773133    2.035643   -0.653648
     15          6           0       -6.357757    1.844565    0.599670
     16          6           0       -6.034819    0.714269    1.353801
     17          6           0       -5.130497   -0.221973    0.853980
     18          6           0        4.412159    1.331173    0.762053
     19          6           0        4.995965    2.352451    0.012613
     20          6           0        5.726556    2.048084   -1.137912
     21          6           0        5.872236    0.718479   -1.538713
     22          6           0        5.289010   -0.302312   -0.788554
     23          1           0        3.844242   -0.858934    2.224658
     24          1           0        4.463618   -2.053669    1.048862
     25          1           0       -3.778720   -2.057122   -0.602370
     26          1           0       -3.500652   -1.034641   -2.022952
     27          1           0       -4.412013    1.247596   -2.126422
     28          1           0       -6.023380    2.912391   -1.244612
     29          1           0       -7.065214    2.572897    0.986829
     30          1           0       -6.489109    0.561098    2.328824
     31          1           0       -4.878976   -1.101769    1.441501
     32          1           0        3.833980    1.564979    1.651196
     33          1           0        4.881351    3.386003    0.327807
     34          1           0        6.182664    2.844614   -1.719769
     35          1           0        6.441089    0.476698   -2.432372
     36          1           0        5.403660   -1.337946   -1.100457
 ---------------------------------------------------------------------

 SCF Done:  E(RB3LYP) =  -1028.48169568     a.u. after    1 cycles

 Excitation energies and oscillator strengths:

 Excited State   1:      Singlet-A      2.9267 eV  423.63 nm  f=0.0002  <S**2>=0.000
      74 -> 79         0.27556
      78 -> 79         0.63650
 This state for optimization and/or second-order correction.
 Total Energy, E(TD-HF/TD-DFT) =  -1028.37414219
 Copying the excited state density for this state as the 1-particle RhoCI density.

 Excited State   2:      Singlet-A      4.1530 eV  298.54 nm  f=0.0094  <S**2>=0.000
      74 -> 79         0.14890
      76 -> 79         0.46416
      77 -> 79         0.48081
      78 -> 79        -0.16828

 Excited State   3:      Singlet-A      4.1884 eV  296.02 nm  f=0.0066  <S**2>=0.000
      76 -> 79        -0.47402
      77 -> 79         0.51151

 Excited State   4:      Singlet-A      4.2966 eV  288.56 nm  f=0.0054  <S**2>=0.000
      74 -> 79         0.57800
      75 -> 79        -0.23843
      76 -> 79        -0.21316
      78 -> 79        -0.22895

 Excited State   5:      Singlet-A      4.3154 eV  287.31 nm  f=0.0004  <S**2>=0.000
      74 -> 79         0.22249
      75 -> 79         0.66428

 Excited State   6:      Singlet-A      5.0236 eV  246.80 nm  f=0.1013  <S**2>=0.000
      72 -> 79        -0.22934
      73 -> 79         0.64942

 Excited State   7:      Singlet-A      5.1318 eV  241.60 nm  f=0.0166  <S**2>=0.000
      70 -> 79        -0.16218
      71 -> 79        -0.18352
      72 -> 79         0.60445
      73 -> 79         0.22664

 Excited State   8:      Singlet-A      5.3994 eV  229.62 nm  f=0.0021  <S**2>=0.000
      71 -> 79        -0.10105
      74 -> 82         0.28854
      75 -> 80         0.50245
      76 -> 82        -0.21856
      78 -> 82        -0.27432

 Excited State   9:      Singlet-A      5.4004 eV  229.58 nm  f=0.0017  <S**2>=0.000
      74 -> 83        -0.11642
      76 -> 81        -0.11988
      76 -> 83        -0.35615
      77 -> 81         0.50268
      78 -> 83         0.23937

 Excited State  10:      Singlet-A      5.4111 eV  229.13 nm  f=0.0072  <S**2>=0.000
      70 -> 79        -0.16936
      71 -> 79         0.65159
      72 -> 79         0.13397

 The electronic state is 1-A.
 Alpha  occ. eigenvalues --  -19.21196 -19.21128 -19.15633 -19.15523 -14.42171
 Alpha  occ. eigenvalues --  -14.42121 -10.35173 -10.34999 -10.25929 -10.25858
 Alpha  occ. eigenvalues --  -10.20720 -10.20410 -10.20073 -10.20025 -10.19995
 Alpha  occ. eigenvalues --  -10.19881 -10.19862 -10.19799 -10.19712 -10.19598
 Alpha  occ. eigenvalues --  -10.19516 -10.19455  -1.13687  -1.12448  -1.05532
 Alpha  occ. eigenvalues --   -1.03846  -1.03451  -0.86577  -0.86206  -0.80969
 Alpha  occ. eigenvalues --   -0.78677  -0.76608  -0.75349  -0.74988  -0.71334
 Alpha  occ. eigenvalues --   -0.69500  -0.62092  -0.61556  -0.61291  -0.59986
 Alpha  occ. eigenvalues --   -0.58757  -0.56894  -0.55445  -0.52451  -0.52355
 Alpha  occ. eigenvalues --   -0.51196  -0.49597  -0.49050  -0.48420  -0.47321
 Alpha  occ. eigenvalues --   -0.46842  -0.46585  -0.45122  -0.44131  -0.43077
 Alpha  occ. eigenvalues --   -0.42987  -0.42798  -0.42255  -0.40974  -0.40546
 Alpha  occ. eigenvalues --   -0.39209  -0.38730  -0.37748  -0.36984  -0.36430
 Alpha  occ. eigenvalues --   -0.35966  -0.35179  -0.35073  -0.34506  -0.31993
 Alpha  occ. eigenvalues --   -0.31760  -0.31179  -0.30199  -0.26281  -0.25874
 Alpha  occ. eigenvalues --   -0.25657  -0.25536  -0.24646
 Alpha virt. eigenvalues --   -0.08271  -0.01989  -0.01714  -0.00964  -0.00605
 Alpha virt. eigenvalues --    0.00978   0.01048   0.08317   0.09041   0.10814
 Alpha virt. eigenvalues --    0.11273   0.12261   0.12467   0.12586   0.13214

 Mulliken charges:
               1
     1  C    0.150262
     2  C   -0.155812
     3  O   -0.409303
     4  C    0.736249
     5  O   -0.424917
     6  N   -0.242126
     7  N   -0.238357
     8  C    0.741537
     9  O   -0.419011
    10  O   -0.409475
    11  C   -0.142588
    12  C    0.145778
    13  C   -0.164913
    14  C   -0.128889
    15  C   -0.122791
    16  C   -0.128795
    17  C   -0.160406
    18  C   -0.174713
    19  C   -0.129752
    20  C   -0.123734
    21  C   -0.128677
    22  C   -0.167084
    23  H    0.183455
    24  H    0.170164
    25  H    0.173750
    26  H    0.175700
    27  H    0.136941
    28  H    0.137879
    29  H    0.137674
    30  H    0.138543
    31  H    0.139107
    32  H    0.160770
    33  H    0.137410
    34  H    0.135347
    35  H    0.135699
    36  H    0.135077
 Sum of Mulliken charges =   0.00000

 Dipole moment (field-independent basis, Debye):
    X=             -0.4852    Y=              1.2842    Z=             -0.2627  Tot=              1.3977
 Quadrupole moment (field-independent basis, Debye-Ang):
   XX=            -89.9536   YY=           -120.4781   ZZ=           -123.0779
   XY=             -4.3179   XZ=             -3.8666   YZ=             -7.6718

 Summary of Natural Population Analysis:

                                       Natural Population
                Natural  -----------------------------------------------
    Atom  No    Charge         Core      Valence    Rydberg      Total
 -----------------------------------------------------------------------
      C    1   -0.09125      1.99901     4.07775    0.01450     6.09125
      C    2   -0.12335      1.99912     4.10510    0.01913     6.12335
      O    3   -0.52311      1.99973     6.51111    0.01227     8.52311
      C    4    0.91823      1.99950     3.03197    0.05030     5.08177
      O    5   -0.55912      1.99977     6.53868    0.02067     8.55912
      N    6   -0.21685      1.99938     5.19109    0.02637     7.21685
      N    7   -0.21273      1.99938     5.18717    0.02617     7.21273
      C    8    0.91811      1.99951     3.03222    0.05016     5.08189
      O    9   -0.54472      1.99978     6.52427    0.02067     8.54472
      O   10   -0.52226      1.99972     6.51022    0.01232     8.52226
      C   11   -0.12367      1.99914     4.10656    0.01797     6.12367
      C   12   -0.08190      1.99901     4.06759    0.01529     6.08190
      C   13   -0.20923      1.99903     4.19712    0.01308     6.20923
      C   14   -0.22904      1.99910     4.21611    0.01383     6.22904
      C   15   -0.22102      1.99910     4.20845    0.01347     6.22102
      C   16   -0.22838      1.99910     4.21545    0.01383     6.22838
      C   17   -0.20745      1.99903     4.19527    0.01315     6.20745
      C   18   -0.21172      1.99903     4.19933    0.01336     6.21172
      C   19   -0.22919      1.99910     4.21626    0.01383     6.22919
      C   20   -0.22287      1.99910     4.21030    0.01347     6.22287
      C   21   -0.23059      1.99910     4.21766    0.01383     6.23059
      C   22   -0.21171      1.99903     4.19951    0.01317     6.21171
      H   23    0.24196      0.00000     0.75582    0.00222     0.75804
      H   24    0.24136      0.00000     0.75750    0.00114     0.75864
      H   25    0.23733      0.00000     0.76088    0.00179     0.76267
      H   26    0.23773      0.00000     0.76036    0.00191     0.76227
      H   27    0.23809      0.00000     0.76089    0.00102     0.76191
      H   28    0.24050      0.00000     0.75866    0.00084     0.75950
      H   29    0.23971      0.00000     0.75947    0.00081     0.76029
      H   30    0.24081      0.00000     0.75835    0.00084     0.75919
      H   31    0.23934      0.00000     0.75963    0.00103     0.76066
      H   32    0.25183      0.00000     0.74682    0.00135     0.74817
      H   33    0.24019      0.00000     0.75897    0.00084     0.75981
      H   34    0.23847      0.00000     0.76070    0.00082     0.76153
      H   35    0.23942      0.00000     0.75973    0.00085     0.76058
      H   36    0.23705      0.00000     0.76189    0.00106     0.76295
 =======================================================================
   * Total *    0.00000     43.98376   111.57886    0.43737   156.00000

 Normal termination of Gaussian 16 at Sat Aug 22 16:33:26 2020.
