 Gaussian 16, Revision A.03,

 ---------------------------------
 # opt=CalcAll B3LYP/6-31G* scf=qc
 ---------------------------------

 -------------------
 Title Card Required
 -------------------
 Symbolic Z-matrix:
 Charge =  0 Multiplicity = 1

 SCF Done:  E(RB3LYP) =  -723.619026628     a.u. after   10 cycles
 SCF Done:  E(RB3LYP) =  -723.645925504     a.u. after   27 cycles
 SCF Done:  E(RB3LYP) =  -723.651602682     a.u. after   27 cycles
 SCF Done:  E(RB3LYP) =  -723.652639145     a.u. after   13 cycles
 SCF Done:  E(RB3LYP) =  -723.652778691     a.u. after   11 cycles
 SCF Done:  E(RB3LYP) =  -723.652784359     a.u. after    5 cycles
 SCF Done:  E(RB3LYP) =  -723.652784482     a.u. after    4 cycles
 Optimization completed.
    -- Stationary point found.
 Normal termination of Gaussian 16 at Sat Aug 22 13:34:59 2020.

 ----------------------------------------------------------------------
 # freq B3LYP/6-31G* scf=qc volume NMR pop=NPA density=current Geom=All
 Check Guess=Read
 ----------------------------------------------------------------------

 Structure from the checkpoint file:  "azadicarboxylate_2_conf12.chk"
 -------------------
 Title Card Required
 -------------------
 Charge =  0 Multiplicity = 1

 SCF Done:  E(RB3LYP) =  -723.652784482     a.u. after    1 cycles

      1  C    Isotropic =   168.9960   Anisotropy =    30.5363

      2  C    Isotropic =   118.4090   Anisotropy =    64.8842

      3  C    Isotropic =   168.3039   Anisotropy =    30.3936

      4  O    Isotropic =   134.2271   Anisotropy =   117.8831

      5  C    Isotropic =    34.7311   Anisotropy =    77.2396

      6  O    Isotropic =   -20.0351   Anisotropy =   495.3962

      7  N    Isotropic =  -324.1707   Anisotropy =   677.1904

      8  N    Isotropic =  -322.2750   Anisotropy =   675.2740

      9  C    Isotropic =    34.9681   Anisotropy =    84.5335

     10  O    Isotropic =   -21.0084   Anisotropy =   497.3177

     11  O    Isotropic =   133.5472   Anisotropy =   115.5735

     12  C    Isotropic =   118.2821   Anisotropy =    64.4806

     13  C    Isotropic =   168.3009   Anisotropy =    31.2046

     14  C    Isotropic =   168.3262   Anisotropy =    30.1470

     15  H    Isotropic =    31.1332   Anisotropy =     8.5830

     16  H    Isotropic =    30.9696   Anisotropy =     6.6132

     17  H    Isotropic =    30.1901   Anisotropy =     7.3466

     18  H    Isotropic =    26.9443   Anisotropy =     2.5238

     19  H    Isotropic =    30.7853   Anisotropy =     6.5200

     20  H    Isotropic =    31.1266   Anisotropy =     8.4862

     21  H    Isotropic =    30.7350   Anisotropy =     8.7249

     22  H    Isotropic =    26.9895   Anisotropy =     2.5885

     23  H    Isotropic =    31.0252   Anisotropy =     6.7056

     24  H    Isotropic =    30.3900   Anisotropy =     7.0303

     25  H    Isotropic =    31.1704   Anisotropy =     8.6740

     26  H    Isotropic =    30.7654   Anisotropy =     6.6394

     27  H    Isotropic =    31.1139   Anisotropy =     8.4496

     28  H    Isotropic =    30.7018   Anisotropy =     8.5038

  Exact polarizability: 152.624   3.412 101.438   1.152  -0.514  85.150
 Approx polarizability: 166.888  12.087 169.034   2.050  -3.539 123.261

                      1                      2                      3
                      A                      A                      A
 Frequencies --      8.4583                39.8724                48.1129
 Red. masses --      4.2368                 3.0166                 4.7588
 Frc consts  --      0.0002                 0.0028                 0.0065
 IR Inten    --      2.2909                 1.2025                 2.2436

                      4                      5                      6
                      A                      A                      A
 Frequencies --     53.2234                60.5483                76.7513
 Red. masses --      4.2932                 5.3508                 5.4849
 Frc consts  --      0.0072                 0.0116                 0.0190
 IR Inten    --      0.3257                 0.0533                 1.0481

                      7                      8                      9
                      A                      A                      A
 Frequencies --     88.6403               183.1991               202.2867
 Red. masses --      4.6228                 4.6334                 6.6159
 Frc consts  --      0.0214                 0.0916                 0.1595
 IR Inten    --      0.1998                 0.3376                 0.9853

                     10                     11                     12
                      A                      A                      A
 Frequencies --    212.2817               219.7466               223.0114
 Red. masses --      2.5711                 1.1591                 1.0953
 Frc consts  --      0.0683                 0.0330                 0.0321
 IR Inten    --     13.0757                 0.3361                 1.8539

                     13                     14                     15
                      A                      A                      A
 Frequencies --    226.1064               264.5744               266.2378
 Red. masses --      2.0223                 1.3004                 1.4580
 Frc consts  --      0.0609                 0.0536                 0.0609
 IR Inten    --      2.3320                 5.1182                 1.5232

                     16                     17                     18
                      A                      A                      A
 Frequencies --    329.3717               339.1287               407.2997
 Red. masses --      2.4932                 3.2051                 3.7105
 Frc consts  --      0.1594                 0.2172                 0.3627
 IR Inten    --      0.5523                 0.4748                12.5839

                     19                     20                     21
                      A                      A                      A
 Frequencies --    420.7271               430.2230               459.0127
 Red. masses --      3.3293                 4.5422                 2.7453
 Frc consts  --      0.3472                 0.4953                 0.3408
 IR Inten    --      3.9234                 2.5058                 7.5943

                     22                     23                     24
                      A                      A                      A
 Frequencies --    487.3120               563.5380               607.4946
 Red. masses --      2.8855                 5.1016                 8.9950
 Frc consts  --      0.4037                 0.9546                 1.9558
 IR Inten    --      1.3440                 1.6218                 0.3723

                     25                     26                     27
                      A                      A                      A
 Frequencies --    655.8764               814.4930               817.6729
 Red. masses --     10.8963                12.1462                 3.6328
 Frc consts  --      2.7617                 4.7475                 1.4310
 IR Inten    --     16.0673                31.1851                 0.0936

                     28                     29                     30
                      A                      A                      A
 Frequencies --    843.9524               863.8251               907.9214
 Red. masses --      3.2466                 6.8166                 3.4547
 Frc consts  --      1.3624                 2.9969                 1.6779
 IR Inten    --     28.4876                 0.1078                63.6168

                     31                     32                     33
                      A                      A                      A
 Frequencies --    918.2884               950.8157               951.3376
 Red. masses --      2.9822                 1.2537                 1.2551
 Frc consts  --      1.4817                 0.6678                 0.6693
 IR Inten    --      0.1005                 0.6235                 0.7476

                     34                     35                     36
                      A                      A                      A
 Frequencies --    961.8925               962.5198               988.7422
 Red. masses --      1.3701                 1.3587                 6.4449
 Frc consts  --      0.7469                 0.7417                 3.7122
 IR Inten    --      6.2234                 0.4517                32.8326

                     37                     38                     39
                      A                      A                      A
 Frequencies --   1003.8364              1140.7451              1147.4795
 Red. masses --      9.2327                 1.8371                 1.7953
 Frc consts  --      5.4816                 1.4085                 1.3928
 IR Inten    --      0.2823               387.8073                 0.2515

                     40                     41                     42
                      A                      A                      A
 Frequencies --   1175.2342              1175.3284              1218.2718
 Red. masses --      2.0346                 2.0329                 1.9657
 Frc consts  --      1.6557                 1.6546                 1.7190
 IR Inten    --     12.4791                 5.8947                56.9956

                     43                     44                     45
                      A                      A                      A
 Frequencies --   1218.9721              1273.1038              1283.2958
 Red. masses --      1.9413                 5.7018                 7.1012
 Frc consts  --      1.6995                 5.4449                 6.8903
 IR Inten    --      9.2023              1209.1282                 8.1678

                     46                     47                     48
                      A                      A                      A
 Frequencies --   1383.6417              1384.7590              1397.6107
 Red. masses --      1.4061                 1.4103                 1.2512
 Frc consts  --      1.5860                 1.5934                 1.4400
 IR Inten    --      6.3878                13.2031                 4.8344

                     49                     50                     51
                      A                      A                      A
 Frequencies --   1398.8882              1433.8897              1434.0623
 Red. masses --      1.2583                 1.3423                 1.3403
 Frc consts  --      1.4508                 1.6260                 1.6240
 IR Inten    --      7.4073                14.3852                21.7949

                     52                     53                     54
                      A                      A                      A
 Frequencies --   1448.8174              1448.9540              1511.7234
 Red. masses --      1.2568                 1.2564                 1.0539
 Frc consts  --      1.5543                 1.5541                 1.4190
 IR Inten    --      7.2536                 6.4199                 1.7037

                     55                     56                     57
                      A                      A                      A
 Frequencies --   1511.7631              1516.3409              1516.4662
 Red. masses --      1.0537                 1.0441                 1.0442
 Frc consts  --      1.4189                 1.4145                 1.4148
 IR Inten    --      1.8311                 1.3389                 0.9551

                     58                     59                     60
                      A                      A                      A
 Frequencies --   1525.4456              1525.6333              1539.4284
 Red. masses --      1.0507                 1.0506                 1.0497
 Frc consts  --      1.4406                 1.4408                 1.4657
 IR Inten    --      4.8096                 3.7426                 9.8482

                     61                     62                     63
                      A                      A                      A
 Frequencies --   1539.7698              1648.7854              1833.6276
 Red. masses --      1.0494                13.9799                12.6453
 Frc consts  --      1.4659                22.3915                25.0496
 IR Inten    --      9.3458                 0.0991                 2.6406

                     64                     65                     66
                      A                      A                      A
 Frequencies --   1847.6100              3058.6232              3058.8393
 Red. masses --     12.5965                 1.0354                 1.0353
 Frc consts  --     25.3350                 5.7071                 5.7075
 IR Inten    --    565.1941                10.3346                11.0075

                     67                     68                     69
                      A                      A                      A
 Frequencies --   3063.1768              3063.2986              3097.6151
 Red. masses --      1.0359                 1.0359                 1.0873
 Frc consts  --      5.7267                 5.7272                 6.1470
 IR Inten    --     23.3118                 6.4760                 2.0374

                     70                     71                     72
                      A                      A                      A
 Frequencies --   3102.2326              3126.8551              3127.4441
 Red. masses --      1.0879                 1.1029                 1.1029
 Frc consts  --      6.1686                 6.3532                 6.3557
 IR Inten    --      1.2702                 2.2084                 1.7741

                     73                     74                     75
                      A                      A                      A
 Frequencies --   3136.2654              3136.6265              3140.1865
 Red. masses --      1.1018                 1.1014                 1.1028
 Frc consts  --      6.3853                 6.3844                 6.4071
 IR Inten    --     44.8941                34.7154                22.3894

                     76                     77                     78
                      A                      A                      A
 Frequencies --   3141.4341              3147.0682              3147.9992
 Red. masses --      1.1028                 1.1027                 1.1029
 Frc consts  --      6.4123                 6.4347                 6.4393
 IR Inten    --     19.7613                17.6672                16.1708

 - Thermochemistry -
 -------------------
 Temperature   298.150 Kelvin.  Pressure   1.00000 Atm.
 Atom     1 has atomic number  6 and mass  12.00000

 Molecular mass:   202.09536 amu.
 Principal axes and moments of inertia in atomic units:
                           1         2         3
     Eigenvalues --  1002.747417401.751907775.47212
           X            0.99993  -0.01159  -0.00055
           Y            0.01160   0.99976   0.01867
           Z            0.00034  -0.01867   0.99983
 This molecule is an asymmetric top.
 Rotational symmetry number  1.
 Warning -- assumption of classical behavior for rotation
           may cause significant error
 Rotational temperatures (Kelvin)      0.08638     0.01170     0.01114
 Rotational constants (GHZ):           1.79980     0.24383     0.23211
 Zero-point vibrational energy     597448.8 (Joules/Mol)
                                  142.79370 (Kcal/Mol)
 Warning -- explicit consideration of  24 degrees of freedom as
           vibrations may cause significant error
 Vibrational temperatures:     12.17    57.37    69.22    76.58    87.12
          (Kelvin)            110.43   127.53   263.58   291.05   305.43
                              316.17   320.86   325.32   380.66   383.06
                              473.89   487.93   586.01   605.33   618.99
                              660.42   701.13   810.81   874.05   943.66
                             1171.87  1176.45  1214.26  1242.85  1306.30
                             1321.21  1368.01  1368.76  1383.95  1384.85
                             1422.58  1444.30  1641.28  1650.97  1690.90
                             1691.04  1752.82  1753.83  1831.71  1846.38
                             1990.75  1992.36  2010.85  2012.69  2063.05
                             2063.30  2084.53  2084.72  2175.03  2175.09
                             2181.68  2181.86  2194.78  2195.05  2214.89
                             2215.39  2372.23  2638.18  2658.30  4400.68
                             4400.99  4407.23  4407.40  4456.78  4463.42
                             4498.85  4499.69  4512.39  4512.91  4518.03
                             4519.82  4527.93  4529.27

 Zero-point correction=                           0.227556 (Hartree/Particle)
 Thermal correction to Energy=                    0.243830
 Thermal correction to Enthalpy=                  0.244774
 Thermal correction to Gibbs Free Energy=         0.180558
 Sum of electronic and zero-point Energies=           -723.425228
 Sum of electronic and thermal Energies=              -723.408955
 Sum of electronic and thermal Enthalpies=            -723.408011
 Sum of electronic and thermal Free Energies=         -723.472227

                     E (Thermal)             CV                S
                      KCal/Mol        Cal/Mol-Kelvin    Cal/Mol-Kelvin
 Total                  153.005             56.251            135.154
 Electronic               0.000              0.000              0.000
 Translational            0.889              2.981             41.815
 Rotational               0.889              2.981             32.423
 Vibrational            151.228             50.289             60.916
 Vibration     1          0.593              1.987              8.344
 Vibration     2          0.594              1.981              5.265
 Vibration     3          0.595              1.978              4.893
 Vibration     4          0.596              1.976              4.694
 Vibration     5          0.597              1.973              4.439
 Vibration     6          0.599              1.965              3.972
 Vibration     7          0.601              1.957              3.690
 Vibration     8          0.631              1.863              2.296
 Vibration     9          0.639              1.837              2.112
 Vibration    10          0.643              1.822              2.024
 Vibration    11          0.647              1.811              1.961
 Vibration    12          0.649              1.806              1.935
 Vibration    13          0.650              1.801              1.910
 Vibration    14          0.671              1.738              1.631
 Vibration    15          0.672              1.735              1.621
 Vibration    16          0.712              1.617              1.263
 Vibration    17          0.719              1.597              1.216
 Vibration    18          0.772              1.454              0.936
 Vibration    19          0.783              1.425              0.890
 Vibration    20          0.791              1.404              0.858
 Vibration    21          0.817              1.341              0.769
 Vibration    22          0.843              1.278              0.691
 Vibration    23          0.919              1.110              0.517
 Vibration    24          0.966              1.016              0.437

 Optimization completed.
    -- Stationary point found.
 Normal termination of Gaussian 16 at Sat Aug 22 13:39:33 2020.
 Gaussian 16:  ES64L-G16RevA.03 25-Dec-2016

 ----------------------------------------------------------------------
 # TD(NStates=10, Root=1) B3LYP/6-31G* scf=qc volume pop=NPA density=cu
 rrent Geom=AllCheck Guess=Read
 ----------------------------------------------------------------------

 Structure from the checkpoint file:  "azadicarboxylate_2_conf13.chk"
 -------------------
 Title Card Required
 -------------------
 Charge =  0 Multiplicity = 1

                         Standard orientation:
 ---------------------------------------------------------------------
 Center     Atomic      Atomic             Coordinates (Angstroms)
 Number     Number       Type             X           Y           Z
 ---------------------------------------------------------------------
      1          6           0        4.464595    0.670802    1.088830
      2          6           0        3.882444    0.025405   -0.162458
      3          6           0        4.525855   -1.301929   -0.531816
      4          8           0        2.461923   -0.276902    0.069739
      5          6           0        1.597237    0.714601   -0.117194
      6          8           0        1.818530    1.849299   -0.461203
      7          7           0        0.263879    0.297040    0.270942
      8          7           0       -0.304789   -0.383825   -0.603599
      9          6           0       -1.638971   -0.798434   -0.214307
     10          8           0       -1.878860   -1.954548    0.032849
     11          8           0       -2.485403    0.223522   -0.286470
     12          6           0       -3.903723   -0.070817   -0.036081
     13          6           0       -4.155823   -0.047547    1.466247
     14          6           0       -4.683710    0.979315   -0.811520
     15          1           0        5.528205    0.884651    0.935638
     16          1           0        4.367733    0.000385    1.949669
     17          1           0        3.956731    1.613234    1.311940
     18          1           0        3.925281    0.725900   -1.000902
     19          1           0        4.442812   -2.017207    0.293356
     20          1           0        5.587876   -1.150013   -0.752337
     21          1           0        4.046723   -1.734703   -1.415099
     22          1           0       -4.094364   -1.072260   -0.432704
     23          1           0       -3.901703    0.932305    1.884515
     24          1           0       -3.561456   -0.814402    1.970577
     25          1           0       -5.214098   -0.246700    1.668462
     26          1           0       -4.453193    1.984713   -0.443555
     27          1           0       -5.758528    0.805556   -0.692483
     28          1           0       -4.442591    0.936685   -1.877998
 ---------------------------------------------------------------------

 SCF Done:  E(RB3LYP) =  -723.652784482     a.u. after    1 cycles

 Excitation energies and oscillator strengths:

 Excited State   1:      Singlet-A      2.9477 eV  420.61 nm  f=0.0000  <S**2>=0.000
      54 -> 55         0.70105
 This state for optimization and/or second-order correction.
 Total Energy, E(TD-HF/TD-DFT) =  -723.544458343
 Copying the excited state density for this state as the 1-particle RhoCI density.

 Excited State   2:      Singlet-A      5.0073 eV  247.61 nm  f=0.0753  <S**2>=0.000
      52 -> 55        -0.18956
      53 -> 55         0.66600

 Excited State   3:      Singlet-A      5.1161 eV  242.34 nm  f=0.0057  <S**2>=0.000
      50 -> 55         0.27626
      52 -> 55         0.60207
      53 -> 55         0.19076

 Excited State   4:      Singlet-A      5.3479 eV  231.84 nm  f=0.0151  <S**2>=0.000
      50 -> 55         0.22361
      51 -> 55         0.63642
      52 -> 55        -0.19560

 Excited State   5:      Singlet-A      5.4103 eV  229.16 nm  f=0.0025  <S**2>=0.000
      50 -> 55         0.59877
      51 -> 55        -0.28077
      52 -> 55        -0.22791

 Excited State   6:      Singlet-A      5.7354 eV  216.17 nm  f=0.0072  <S**2>=0.000
      53 -> 56        -0.14038
      54 -> 56         0.66509
      54 -> 57         0.10358

 Excited State   7:      Singlet-A      5.7868 eV  214.25 nm  f=0.0085  <S**2>=0.000
      53 -> 57         0.14511
      54 -> 56        -0.10250
      54 -> 57         0.66836

 Excited State   8:      Singlet-A      6.4574 eV  192.00 nm  f=0.0016  <S**2>=0.000
      45 -> 55         0.10123
      48 -> 55        -0.21718
      49 -> 55         0.65322

 Excited State   9:      Singlet-A      6.4918 eV  190.99 nm  f=0.0011  <S**2>=0.000
      48 -> 55         0.64909
      49 -> 55         0.22454

 Excited State  10:      Singlet-A      6.8013 eV  182.30 nm  f=0.0173  <S**2>=0.000
      47 -> 55         0.13304
      50 -> 56         0.17322
      50 -> 57         0.13241
      52 -> 56         0.26244
      52 -> 57         0.15199
      53 -> 56         0.52655
      54 -> 56         0.15921
      54 -> 57         0.10484

 The electronic state is 1-A.
 Alpha  occ. eigenvalues --  -19.20814 -19.20802 -19.15387 -19.15380 -14.42055
 Alpha  occ. eigenvalues --  -14.42003 -10.34987 -10.34967 -10.26151 -10.26132
 Alpha  occ. eigenvalues --  -10.19099 -10.19076 -10.18942 -10.18843  -1.13502
 Alpha  occ. eigenvalues --   -1.12234  -1.05393  -1.03698  -1.03303  -0.82317
 Alpha  occ. eigenvalues --   -0.80604  -0.76559  -0.70542  -0.70496  -0.65787
 Alpha  occ. eigenvalues --   -0.62441  -0.57744  -0.56491  -0.55791  -0.50975
 Alpha  occ. eigenvalues --   -0.48974  -0.48179  -0.47814  -0.46706  -0.45477
 Alpha  occ. eigenvalues --   -0.44644  -0.42796  -0.41742  -0.41659  -0.40666
 Alpha  occ. eigenvalues --   -0.40367  -0.40058  -0.39470  -0.38210  -0.37904
 Alpha  occ. eigenvalues --   -0.36966  -0.36759  -0.34951  -0.34872  -0.31664
 Alpha  occ. eigenvalues --   -0.31429  -0.31008  -0.29966  -0.24911
 Alpha virt. eigenvalues --   -0.08097   0.00905   0.01150   0.08785   0.08830
 Alpha virt. eigenvalues --    0.10453   0.10752   0.13272   0.13297   0.14488
 Alpha virt. eigenvalues --    0.14529   0.16493   0.16518   0.16882   0.17019

 Mulliken charges:
               1
     1  C   -0.460287
     2  C    0.116531
     3  C   -0.454373
     4  O   -0.422185
     5  C    0.735086
     6  O   -0.418136
     7  N   -0.241131
     8  N   -0.241524
     9  C    0.735283
    10  O   -0.423854
    11  O   -0.423597
    12  C    0.117448
    13  C   -0.459491
    14  C   -0.454672
    15  H    0.155721
    16  H    0.161081
    17  H    0.176288
    18  H    0.168705
    19  H    0.164272
    20  H    0.154545
    21  H    0.167943
    22  H    0.168124
    23  H    0.161506
    24  H    0.176998
    25  H    0.153469
    26  H    0.165217
    27  H    0.155084
    28  H    0.165947
 Sum of Mulliken charges =   0.00000

 Dipole moment (field-independent basis, Debye):
    X=              0.1401    Y=              0.1580    Z=              0.3761  Tot=              0.4313
 Quadrupole moment (field-independent basis, Debye-Ang):
   XX=            -51.6087   YY=            -91.9349   ZZ=            -80.4960
   XY=             -5.3432   XZ=              0.1998   YZ=              2.1070

 Summary of Natural Population Analysis:

                                       Natural Population
                Natural  -----------------------------------------------
    Atom  No    Charge         Core      Valence    Rydberg      Total
 -----------------------------------------------------------------------
      C    1   -0.70469      1.99939     4.69676    0.00853     6.70469
      C    2    0.08280      1.99912     3.90067    0.01740     5.91720
      C    3   -0.69649      1.99939     4.68800    0.00910     6.69649
      O    4   -0.53560      1.99971     6.52311    0.01277     8.53560
      C    5    0.92033      1.99950     3.02919    0.05098     5.07967
      O    6   -0.54786      1.99977     6.52749    0.02059     8.54786
      N    7   -0.21534      1.99938     5.18989    0.02607     7.21534
      N    8   -0.21401      1.99939     5.18831    0.02631     7.21401
      C    9    0.91692      1.99950     3.03276    0.05082     5.08308
      O   10   -0.55283      1.99977     6.53243    0.02063     8.55283
      O   11   -0.53692      1.99971     6.52448    0.01273     8.53692
      C   12    0.08370      1.99912     3.89967    0.01751     5.91630
      C   13   -0.70383      1.99939     4.69590    0.00853     6.70383
      C   14   -0.69654      1.99939     4.68810    0.00905     6.69654
      H   15    0.24228      0.00000     0.75700    0.00073     0.75772
      H   16    0.23719      0.00000     0.76145    0.00136     0.76281
      H   17    0.24997      0.00000     0.74890    0.00112     0.75003
      H   18    0.24391      0.00000     0.75342    0.00267     0.75609
      H   19    0.23961      0.00000     0.75912    0.00127     0.76039
      H   20    0.24094      0.00000     0.75840    0.00066     0.75906
      H   21    0.24709      0.00000     0.75195    0.00096     0.75291
      H   22    0.24333      0.00000     0.75393    0.00274     0.75667
      H   23    0.23743      0.00000     0.76122    0.00135     0.76257
      H   24    0.25058      0.00000     0.74839    0.00103     0.74942
      H   25    0.24045      0.00000     0.75879    0.00076     0.75955
      H   26    0.24023      0.00000     0.75850    0.00127     0.75977
      H   27    0.24141      0.00000     0.75793    0.00066     0.75859
      H   28    0.24593      0.00000     0.75310    0.00097     0.75407
 =======================================================================
   * Total *   -0.00000     27.99256    79.69887    0.30857   108.00000

 Normal termination of Gaussian 16 at Sat Aug 22 13:45:08 2020.
