 Gaussian 16, Revision A.03,

 ---------------------------------
 # opt=CalcAll B3LYP/6-31G* scf=qc
 ---------------------------------

 -------------------
 Title Card Required
 -------------------
 Symbolic Z-matrix:
 Charge =  0 Multiplicity = 1

 SCF Done:  E(RB3LYP) =  -1028.44769873     a.u. after   10 cycles
 SCF Done:  E(RB3LYP) =  -1028.47037824     a.u. after   19 cycles
 SCF Done:  E(RB3LYP) =  -1028.47543942     a.u. after   19 cycles
 SCF Done:  E(RB3LYP) =  -1028.47749969     a.u. after   21 cycles
 SCF Done:  E(RB3LYP) =  -1028.48012473     a.u. after   25 cycles
 SCF Done:  E(RB3LYP) =  -1028.48099058     a.u. after   15 cycles
 SCF Done:  E(RB3LYP) =  -1028.48151967     a.u. after   20 cycles
 SCF Done:  E(RB3LYP) =  -1028.48207797     a.u. after   13 cycles
 SCF Done:  E(RB3LYP) =  -1028.48210181     a.u. after   11 cycles
 SCF Done:  E(RB3LYP) =  -1028.48212708     a.u. after   17 cycles
 SCF Done:  E(RB3LYP) =  -1028.48161427     a.u. after   27 cycles
 SCF Done:  E(RB3LYP) =  -1028.48221087     a.u. after   10 cycles
 SCF Done:  E(RB3LYP) =  -1028.48154266     a.u. after   21 cycles
 SCF Done:  E(RB3LYP) =  -1028.48224326     a.u. after    9 cycles
 SCF Done:  E(RB3LYP) =  -1028.48225061     a.u. after    7 cycles
 SCF Done:  E(RB3LYP) =  -1028.48225120     a.u. after    5 cycles
 SCF Done:  E(RB3LYP) =  -1028.48225181     a.u. after    7 cycles
 SCF Done:  E(RB3LYP) =  -1028.48225182     a.u. after    2 cycles
 Optimization completed.
    -- Stationary point found.
 Normal termination of Gaussian 16 at Sat Aug 22 18:41:34 2020.

 ----------------------------------------------------------------------
 # freq B3LYP/6-31G* scf=qc volume NMR pop=NPA density=current Geom=All
 Check Guess=Read
 ----------------------------------------------------------------------

 Structure from the checkpoint file:  "azadicarboxylate_4_conf262.chk"
 -------------------
 Title Card Required
 -------------------
 Charge =  0 Multiplicity = 1

 SCF Done:  E(RB3LYP) =  -1028.48225182     a.u. after    1 cycles

      1  C    Isotropic =    62.0874   Anisotropy =   173.4679

      2  C    Isotropic =   120.8219   Anisotropy =    39.7487

      3  O    Isotropic =   142.7085   Anisotropy =   139.9465

      4  C    Isotropic =    34.5969   Anisotropy =    75.4754

      5  O    Isotropic =   -18.4033   Anisotropy =   490.8870

      6  N    Isotropic =  -325.6372   Anisotropy =   677.1722

      7  N    Isotropic =  -320.9054   Anisotropy =   671.2255

      8  C    Isotropic =    34.7135   Anisotropy =    84.4617

      9  O    Isotropic =   -19.6789   Anisotropy =   490.8312

     10  O    Isotropic =   141.6106   Anisotropy =   142.1937

     11  C    Isotropic =   120.6508   Anisotropy =    39.2824

     12  C    Isotropic =    62.1087   Anisotropy =   173.3005

     13  C    Isotropic =    65.2803   Anisotropy =   155.6574

     14  C    Isotropic =    68.4337   Anisotropy =   165.5601

     15  C    Isotropic =    66.9791   Anisotropy =   171.1696

     16  C    Isotropic =    67.5695   Anisotropy =   167.3991

     17  C    Isotropic =    63.9703   Anisotropy =   163.5110

     18  C    Isotropic =    63.8667   Anisotropy =   162.5086

     19  C    Isotropic =    67.5608   Anisotropy =   167.2730

     20  C    Isotropic =    66.9265   Anisotropy =   171.1528

     21  C    Isotropic =    68.3050   Anisotropy =   165.6059

     22  C    Isotropic =    65.2159   Anisotropy =   155.9035

     23  H    Isotropic =    26.3569   Anisotropy =     2.7649

     24  H    Isotropic =    27.6922   Anisotropy =     5.4346

     25  H    Isotropic =    26.3855   Anisotropy =     2.7809

     26  H    Isotropic =    27.6374   Anisotropy =     5.1966

     27  H    Isotropic =    24.9913   Anisotropy =     6.5553

     28  H    Isotropic =    25.0028   Anisotropy =     4.5053

     29  H    Isotropic =    24.9633   Anisotropy =     4.1114

     30  H    Isotropic =    24.9248   Anisotropy =     4.8646

     31  H    Isotropic =    24.3910   Anisotropy =     7.8703

     32  H    Isotropic =    24.2994   Anisotropy =     7.5083

     33  H    Isotropic =    24.8691   Anisotropy =     4.8287

     34  H    Isotropic =    24.9077   Anisotropy =     4.2030

     35  H    Isotropic =    24.9293   Anisotropy =     4.5129

     36  H    Isotropic =    24.9096   Anisotropy =     6.5678

  Exact polarizability: 179.226 -14.778 192.100   6.563  -4.758 176.562
 Approx polarizability: 213.363 -30.084 309.844  12.966 -17.478 319.266

                      1                      2                      3
                      A                      A                      A
 Frequencies --      5.1956                13.7957                23.5788
 Red. masses --      4.8566                 6.1663                 4.3449
 Frc consts  --      0.0001                 0.0007                 0.0014
 IR Inten    --      0.0968                 0.2794                 0.1899

                      4                      5                      6
                      A                      A                      A
 Frequencies --     24.6512                35.6108                46.5391
 Red. masses --      4.3160                 7.9400                 8.2964
 Frc consts  --      0.0015                 0.0059                 0.0106
 IR Inten    --      0.0517                 0.5007                 0.6631

                      7                      8                      9
                      A                      A                      A
 Frequencies --     56.5789                70.3158                76.6652
 Red. masses --      9.5449                 6.6722                 5.3818
 Frc consts  --      0.0180                 0.0194                 0.0186
 IR Inten    --      1.2949                 1.3084                 0.9501

                     10                     11                     12
                      A                      A                      A
 Frequencies --    133.1605               155.9291               199.7966
 Red. masses --      7.6957                 6.4723                 6.3246
 Frc consts  --      0.0804                 0.0927                 0.1488
 IR Inten    --      0.6998                 0.3351                 0.4875

                     13                     14                     15
                      A                      A                      A
 Frequencies --    223.5948               248.2806               250.5471
 Red. masses --      7.1479                 8.1649                 8.7939
 Frc consts  --      0.2105                 0.2965                 0.3252
 IR Inten    --      6.4501                 3.8286                 3.3134

                     16                     17                     18
                      A                      A                      A
 Frequencies --    299.6415               348.4597               357.0550
 Red. masses --      7.1141                 4.2899                 2.2492
 Frc consts  --      0.3763                 0.3069                 0.1689
 IR Inten    --      1.9838                 4.3055                 0.8738

                     19                     20                     21
                      A                      A                      A
 Frequencies --    381.2528               416.9422               417.0479
 Red. masses --      2.4398                 2.9669                 2.9676
 Frc consts  --      0.2089                 0.3039                 0.3041
 IR Inten    --      6.1422                 0.0536                 0.0859

                     22                     23                     24
                      A                      A                      A
 Frequencies --    434.0482               491.1680               503.4816
 Red. masses --      4.9970                 4.1645                 4.6494
 Frc consts  --      0.5547                 0.5919                 0.6944
 IR Inten    --     23.6951                 0.4355                39.4361

                     25                     26                     27
                      A                      A                      A
 Frequencies --    577.2087               583.8139               606.2102
 Red. masses --      9.1992                 6.2680                 6.8198
 Frc consts  --      1.8058                 1.2587                 1.4766
 IR Inten    --      5.2855                14.7865                 4.1053

                     28                     29                     30
                      A                      A                      A
 Frequencies --    635.1181               635.5154               640.8570
 Red. masses --      6.3228                 6.3425                 5.6468
 Frc consts  --      1.5027                 1.5092                 1.3664
 IR Inten    --      1.9241                 0.3468                 9.8993

                     31                     32                     33
                      A                      A                      A
 Frequencies --    648.8667               713.6564               713.8437
 Red. masses --      5.6522                 1.8062                 1.7953
 Frc consts  --      1.4021                 0.5420                 0.5390
 IR Inten    --      1.9149                52.3815                 9.2637

                     34                     35                     36
                      A                      A                      A
 Frequencies --    771.9680               774.1121               808.7573
 Red. masses --      2.0887                 2.0860                10.3232
 Frc consts  --      0.7334                 0.7365                 3.9783
 IR Inten    --     75.4453                 3.0852                25.5212

                     37                     38                     39
                      A                      A                      A
 Frequencies --    827.9774               839.4523               839.6307
 Red. masses --      5.1013                 3.8820                 3.8420
 Frc consts  --      2.0605                 1.6118                 1.5958
 IR Inten    --      1.7578                11.8535                11.9287

                     40                     41                     42
                      A                      A                      A
 Frequencies --    863.7805               864.1048               870.1511
 Red. masses --      1.2475                 1.2478                 4.8485
 Frc consts  --      0.5484                 0.5489                 2.1629
 IR Inten    --      0.1211                 0.3252                73.0872

                     43                     44                     45
                      A                      A                      A
 Frequencies --    918.9088               939.3246               943.7115
 Red. masses --      4.6599                 1.4905                 1.6729
 Frc consts  --      2.3183                 0.7749                 0.8778
 IR Inten    --      6.5807                17.4962                 0.1467

                     46                     47                     48
                      A                      A                      A
 Frequencies --    973.1328               974.2185               974.2816
 Red. masses --      3.8413                 1.3676                 1.3809
 Frc consts  --      2.1432                 0.7647                 0.7723
 IR Inten    --    104.3307                 2.8888                 7.3530

                     49                     50                     51
                      A                      A                      A
 Frequencies --    989.5553              1002.6504              1002.7421
 Red. masses --      3.7328                 1.2811                 1.2801
 Frc consts  --      2.1536                 0.7588                 0.7583
 IR Inten    --     13.0479                 0.1182                 0.2044

                     52                     53                     54
                      A                      A                      A
 Frequencies --   1018.5090              1018.9835              1021.5607
 Red. masses --      3.5244                 4.4252                 3.5935
 Frc consts  --      2.1541                 2.7072                 2.2095
 IR Inten    --      7.7311                 7.9764                 4.9029

                     55                     56                     57
                      A                      A                      A
 Frequencies --   1022.4582              1058.9690              1058.9980
 Red. masses --      3.3170                 2.2311                 2.2323
 Frc consts  --      2.0431                 1.4741                 1.4750
 IR Inten    --      9.8924                 0.7289                 1.3952

                     58                     59                     60
                      A                      A                      A
 Frequencies --   1123.5222              1123.6514              1194.8636
 Red. masses --      1.5185                 1.5187                 1.1025
 Frc consts  --      1.1293                 1.1297                 0.9274
 IR Inten    --      3.5623                 0.7841                 0.0250

                     61                     62                     63
                      A                      A                      A
 Frequencies --   1194.8899              1215.0024              1216.3131
 Red. masses --      1.1025                 1.2157                 1.1405
 Frc consts  --      0.9275                 1.0573                 0.9941
 IR Inten    --      0.0252               127.4490                 1.0654

                     64                     65                     66
                      A                      A                      A
 Frequencies --   1229.5876              1240.1840              1240.2799
 Red. masses --      4.2112                 2.9727                 2.9270
 Frc consts  --      3.7512                 2.6938                 2.6529
 IR Inten    --   1072.8134                17.6353                 6.5664

                     67                     68                     69
                      A                      A                      A
 Frequencies --   1269.6656              1296.6336              1302.5931
 Red. masses --      2.6871                 1.3979                 1.7987
 Frc consts  --      2.5522                 1.3847                 1.7981
 IR Inten    --    161.1292                57.7146               117.5761

                     70                     71                     72
                      A                      A                      A
 Frequencies --   1364.9341              1365.1339              1375.2224
 Red. masses --      4.1875                 4.1472                 1.2657
 Frc consts  --      4.5965                 4.5536                 1.4104
 IR Inten    --      2.3989                 3.0452                 3.8072

                     73                     74                     75
                      A                      A                      A
 Frequencies --   1375.3826              1416.2343              1417.4680
 Red. masses --      1.2675                 1.3464                 1.3678
 Frc consts  --      1.4127                 1.5911                 1.6192
 IR Inten    --      2.1427                16.9475                21.1728

                     76                     77                     78
                      A                      A                      A
 Frequencies --   1504.7415              1504.8804              1516.7800
 Red. masses --      2.1978                 2.2014                 1.1169
 Frc consts  --      2.9320                 2.9374                 1.5140
 IR Inten    --      6.3896                 7.6975                13.2838

                     79                     80                     81
                      A                      A                      A
 Frequencies --   1518.5118              1547.9352              1547.9816
 Red. masses --      1.1185                 2.2125                 2.2100
 Frc consts  --      1.5196                 3.1234                 3.1201
 IR Inten    --     10.8559                 4.2540                 4.9920

                     82                     83                     84
                      A                      A                      A
 Frequencies --   1646.1586              1646.3603              1656.3331
 Red. masses --      5.4956                 5.4999                13.9627
 Frc consts  --      8.7742                 8.7832                22.5692
 IR Inten    --      0.7311                 0.8519                 0.6745

                     85                     86                     87
                      A                      A                      A
 Frequencies --   1666.1261              1666.1638              1832.8931
 Red. masses --      5.5123                 5.5107                12.1841
 Frc consts  --      9.0157                 9.0135                24.1167
 IR Inten    --      0.0908                 0.9789                60.9872

                     88                     89                     90
                      A                      A                      A
 Frequencies --   1849.3614              3107.2290              3110.8565
 Red. masses --     12.1340                 1.0575                 1.0577
 Frc consts  --     24.4510                 6.0157                 6.0309
 IR Inten    --    447.8555                22.6175                22.1473

                     91                     92                     93
                      A                      A                      A
 Frequencies --   3165.0170              3168.2475              3179.1959
 Red. masses --      1.1107                 1.1106                 1.0867
 Frc consts  --      6.5556                 6.5683                 6.4711
 IR Inten    --      4.2409                 3.8158                 3.5134

                     94                     95                     96
                      A                      A                      A
 Frequencies --   3179.2391              3187.6215              3187.6579
 Red. masses --      1.0867                 1.0877                 1.0877
 Frc consts  --      6.4716                 6.5116                 6.5116
 IR Inten    --      6.8386                 1.9986                 3.6059

                     97                     98                     99
                      A                      A                      A
 Frequencies --   3198.1991              3198.2348              3207.7920
 Red. masses --      1.0914                 1.0914                 1.0949
 Frc consts  --      6.5772                 6.5773                 6.6379
 IR Inten    --      8.3913                36.5670                 5.1668

                    100                    101                    102
                      A                      A                      A
 Frequencies --   3207.8422              3215.6953              3215.7239
 Red. masses --      1.0949                 1.0963                 1.0963
 Frc consts  --      6.6380                 6.6793                 6.6793
 IR Inten    --     40.7184                 5.7094                 9.1583

 - Thermochemistry -
 -------------------
 Temperature   298.150 Kelvin.  Pressure   1.00000 Atm.
 Atom     1 has atomic number  6 and mass  12.00000

 Molecular mass:   298.09536 amu.
 Principal axes and moments of inertia in atomic units:
                           1         2         3
     Eigenvalues --  3975.04157********************
           X            1.00000   0.00093   0.00091
           Y           -0.00094   0.99996   0.00859
           Z           -0.00090  -0.00859   0.99996
 This molecule is an asymmetric top.
 Rotational symmetry number  1.
 Warning -- assumption of classical behavior for rotation
           may cause significant error
 Rotational temperatures (Kelvin)      0.02179     0.00527     0.00470
 Rotational constants (GHZ):           0.45402     0.10981     0.09791
 Zero-point vibrational energy     729367.4 (Joules/Mol)
                                  174.32299 (Kcal/Mol)
 Warning -- explicit consideration of  27 degrees of freedom as
           vibrations may cause significant error
 Vibrational temperatures:      7.48    19.85    33.92    35.47    51.24
          (Kelvin)             66.96    81.40   101.17   110.30   191.59
                              224.35   287.46   321.70   357.22   360.48
                              431.12   501.36   513.72   548.54   599.89
                              600.04   624.50   706.68   724.40   830.47
                              839.98   872.20   913.79   914.36   922.05
                              933.57  1026.79  1027.06  1110.69  1113.77
                             1163.62  1191.27  1207.78  1208.04  1242.79
                             1243.25  1251.95  1322.10  1351.48  1357.79
                             1400.12  1401.68  1401.77  1423.75  1442.59
                             1442.72  1465.41  1466.09  1469.80  1471.09
                             1523.62  1523.66  1616.50  1616.68  1719.14
                             1719.18  1748.12  1750.00  1769.10  1784.35
                             1784.49  1826.77  1865.57  1874.14  1963.84
                             1964.12  1978.64  1978.87  2037.65  2039.42
                             2164.99  2165.19  2182.31  2184.80  2227.13
                             2227.20  2368.45  2368.75  2383.09  2397.18
                             2397.24  2637.12  2660.82  4470.61  4475.83
                             4553.75  4558.40  4574.15  4574.22  4586.28
                             4586.33  4601.50  4601.55  4615.30  4615.37
                             4626.67  4626.71

 Zero-point correction=                           0.277801 (Hartree/Particle)
 Thermal correction to Energy=                    0.297269
 Thermal correction to Enthalpy=                  0.298213
 Thermal correction to Gibbs Free Energy=         0.222245
 Sum of electronic and zero-point Energies=          -1028.204450
 Sum of electronic and thermal Energies=             -1028.184983
 Sum of electronic and thermal Enthalpies=           -1028.184039
 Sum of electronic and thermal Free Energies=        -1028.260006

                     E (Thermal)             CV                S
                      KCal/Mol        Cal/Mol-Kelvin    Cal/Mol-Kelvin
 Total                  186.539             71.336            159.888
 Electronic               0.000              0.000              0.000
 Translational            0.889              2.981             42.974
 Rotational               0.889              2.981             35.442
 Vibrational            184.762             65.374             81.472
 Vibration     1          0.593              1.987              9.312
 Vibration     2          0.593              1.986              7.372
 Vibration     3          0.593              1.985              6.307
 Vibration     4          0.593              1.985              6.219
 Vibration     5          0.594              1.982              5.489
 Vibration     6          0.595              1.979              4.959
 Vibration     7          0.596              1.975              4.573
 Vibration     8          0.598              1.968              4.144
 Vibration     9          0.599              1.965              3.974
 Vibration    10          0.613              1.920              2.900
 Vibration    11          0.620              1.896              2.599
 Vibration    12          0.638              1.840              2.135
 Vibration    13          0.649              1.805              1.930
 Vibration    14          0.662              1.766              1.743
 Vibration    15          0.663              1.762              1.727
 Vibration    16          0.692              1.674              1.419
 Vibration    17          0.726              1.578              1.173
 Vibration    18          0.732              1.561              1.135
 Vibration    19          0.751              1.510              1.034
 Vibration    20          0.780              1.433              0.902
 Vibration    21          0.780              1.433              0.902
 Vibration    22          0.795              1.396              0.846
 Vibration    23          0.847              1.270              0.681
 Vibration    24          0.859              1.242              0.649
 Vibration    25          0.934              1.081              0.491
 Vibration    26          0.941              1.066              0.478
 Vibration    27          0.965              1.019              0.439

 Optimization completed.
    -- Stationary point found.
 Normal termination of Gaussian 16 at Sat Aug 22 18:52:42 2020.
 Gaussian 16:  ES64L-G16RevA.03 25-Dec-2016

 ----------------------------------------------------------------------
 # TD(NStates=10, Root=1) B3LYP/6-31G* scf=qc volume pop=NPA density=cu
 rrent Geom=AllCheck Guess=Read
 ----------------------------------------------------------------------

 Structure from the checkpoint file:  "azadicarboxylate_4_conf263.chk"
 -------------------
 Title Card Required
 -------------------
 Charge =  0 Multiplicity = 1

                         Standard orientation:
 ---------------------------------------------------------------------
 Center     Atomic      Atomic             Coordinates (Angstroms)
 Number     Number       Type             X           Y           Z
 ---------------------------------------------------------------------
      1          6           0        4.278517   -0.008859    0.334957
      2          6           0        3.626407    1.292442    0.718237
      3          8           0        2.161513    1.192922    0.692865
      4          6           0        1.570090    1.487234   -0.462151
      5          8           0        2.078376    1.846877   -1.494579
      6          7           0        0.152891    1.198670   -0.372702
      7          7           0       -0.506862    2.140674    0.103537
      8          6           0       -1.935178    1.892666    0.093409
      9          8           0       -2.662399    2.463303   -0.681003
     10          8           0       -2.267611    1.085122    1.097164
     11          6           0       -3.703370    0.850760    1.294776
     12          6           0       -4.181604   -0.353966    0.529589
     13          6           0       -4.149407   -1.622489    1.122067
     14          6           0       -4.583715   -2.744945    0.417378
     15          6           0       -5.055413   -2.607361   -0.889534
     16          6           0       -5.090620   -1.346022   -1.487955
     17          6           0       -4.656202   -0.223856   -0.782803
     18          6           0        4.606340   -0.276376   -1.001347
     19          6           0        5.202168   -1.488256   -1.350522
     20          6           0        5.476049   -2.443399   -0.369310
     21          6           0        5.152072   -2.184433    0.964033
     22          6           0        4.556457   -0.972549    1.312632
     23          1           0        3.920775    2.108202    0.056073
     24          1           0        3.840974    1.560981    1.753805
     25          1           0       -4.234717    1.758012    1.001372
     26          1           0       -3.788918    0.702282    2.372479
     27          1           0       -3.783216   -1.729904    2.140627
     28          1           0       -4.556271   -3.724050    0.887825
     29          1           0       -5.396296   -3.480488   -1.439506
     30          1           0       -5.457935   -1.235307   -2.504546
     31          1           0       -4.672675    0.757055   -1.248685
     32          1           0        4.382921    0.464583   -1.763300
     33          1           0        5.454124   -1.685970   -2.388828
     34          1           0        5.942723   -3.386081   -0.642425
     35          1           0        5.365690   -2.923620    1.731310
     36          1           0        4.306035   -0.770430    2.351644
 ---------------------------------------------------------------------

 SCF Done:  E(RB3LYP) =  -1028.48225182     a.u. after    1 cycles

 Excitation energies and oscillator strengths:

 Excited State   1:      Singlet-A      2.9399 eV  421.73 nm  f=0.0021  <S**2>=0.000
      74 -> 79        -0.27238
      78 -> 79         0.64200
 This state for optimization and/or second-order correction.
 Total Energy, E(TD-HF/TD-DFT) =  -1028.37421161
 Copying the excited state density for this state as the 1-particle RhoCI density.

 Excited State   2:      Singlet-A      4.1989 eV  295.28 nm  f=0.0096  <S**2>=0.000
      74 -> 79        -0.18691
      75 -> 79        -0.15714
      76 -> 79        -0.32505
      77 -> 79         0.56016
      78 -> 79        -0.13553

 Excited State   3:      Singlet-A      4.2379 eV  292.56 nm  f=0.0042  <S**2>=0.000
      75 -> 79         0.15593
      76 -> 79         0.56654
      77 -> 79         0.38968

 Excited State   4:      Singlet-A      4.2612 eV  290.96 nm  f=0.0114  <S**2>=0.000
      74 -> 79         0.57914
      75 -> 79         0.16586
      76 -> 79        -0.20941
      77 -> 79         0.17772
      78 -> 79         0.24270

 Excited State   5:      Singlet-A      4.2887 eV  289.09 nm  f=0.0025  <S**2>=0.000
      74 -> 79        -0.21702
      75 -> 79         0.64885
      76 -> 79        -0.16392

 Excited State   6:      Singlet-A      5.0731 eV  244.39 nm  f=0.0732  <S**2>=0.000
      73 -> 79         0.68422

 Excited State   7:      Singlet-A      5.1994 eV  238.46 nm  f=0.0008  <S**2>=0.000
      72 -> 79         0.67861

 Excited State   8:      Singlet-A      5.3884 eV  230.09 nm  f=0.0020  <S**2>=0.000
      74 -> 82        -0.28746
      75 -> 80         0.46933
      75 -> 82         0.11838
      76 -> 80        -0.22675
      76 -> 82         0.20607
      78 -> 82        -0.25226

 Excited State   9:      Singlet-A      5.4037 eV  229.44 nm  f=0.0017  <S**2>=0.000
      74 -> 83         0.17564
      75 -> 83         0.14283
      76 -> 81         0.21603
      76 -> 83         0.29119
      77 -> 81         0.47183
      77 -> 83        -0.16311
      78 -> 83         0.22646

 Excited State  10:      Singlet-A      5.4329 eV  228.21 nm  f=0.0034  <S**2>=0.000
      70 -> 79        -0.28129
      71 -> 79         0.60464
      78 -> 80         0.12323
      78 -> 84        -0.11675

 The electronic state is 1-A.
 Alpha  occ. eigenvalues --  -19.21259 -19.21205 -19.15667 -19.15608 -14.42234
 Alpha  occ. eigenvalues --  -14.42182 -10.35218 -10.35189 -10.25925 -10.25916
 Alpha  occ. eigenvalues --  -10.20545 -10.20464 -10.19962 -10.19872 -10.19854
 Alpha  occ. eigenvalues --  -10.19756 -10.19753 -10.19655 -10.19645 -10.19583
 Alpha  occ. eigenvalues --  -10.19544 -10.19481  -1.13704  -1.12454  -1.05630
 Alpha  occ. eigenvalues --   -1.03877  -1.03526  -0.86362  -0.86245  -0.81012
 Alpha  occ. eigenvalues --   -0.78611  -0.76564  -0.75132  -0.75034  -0.71575
 Alpha  occ. eigenvalues --   -0.69553  -0.62318  -0.61432  -0.61329  -0.60173
 Alpha  occ. eigenvalues --   -0.58579  -0.56382  -0.55528  -0.52547  -0.52251
 Alpha  occ. eigenvalues --   -0.50773  -0.49683  -0.49014  -0.48015  -0.47400
 Alpha  occ. eigenvalues --   -0.46848  -0.46718  -0.45293  -0.44133  -0.43068
 Alpha  occ. eigenvalues --   -0.43041  -0.42434  -0.42367  -0.41869  -0.39867
 Alpha  occ. eigenvalues --   -0.39799  -0.38037  -0.37821  -0.36624  -0.36493
 Alpha  occ. eigenvalues --   -0.36098  -0.35953  -0.34636  -0.34558  -0.31827
 Alpha  occ. eigenvalues --   -0.31705  -0.31032  -0.30715  -0.26046  -0.25709
 Alpha  occ. eigenvalues --   -0.25653  -0.25574  -0.24650
 Alpha virt. eigenvalues --   -0.08141  -0.01969  -0.01733  -0.00759  -0.00657
 Alpha virt. eigenvalues --    0.00652   0.01020   0.08919   0.08977   0.11168
 Alpha virt. eigenvalues --    0.11242   0.12119   0.12345   0.13157   0.13210

 Mulliken charges:
               1
     1  C    0.151154
     2  C   -0.157605
     3  O   -0.407889
     4  C    0.738171
     5  O   -0.411612
     6  N   -0.238609
     7  N   -0.245041
     8  C    0.737703
     9  O   -0.418902
    10  O   -0.409523
    11  C   -0.157458
    12  C    0.151786
    13  C   -0.168055
    14  C   -0.128487
    15  C   -0.123743
    16  C   -0.129464
    17  C   -0.175596
    18  C   -0.176148
    19  C   -0.129495
    20  C   -0.123378
    21  C   -0.128535
    22  C   -0.167567
    23  H    0.184971
    24  H    0.169317
    25  H    0.184020
    26  H    0.168816
    27  H    0.132968
    28  H    0.134943
    29  H    0.135468
    30  H    0.138252
    31  H    0.161652
    32  H    0.161479
    33  H    0.139084
    34  H    0.136618
    35  H    0.136115
    36  H    0.134587
 Sum of Mulliken charges =   0.00000

 Dipole moment (field-independent basis, Debye):
    X=              0.7180    Y=             -3.0064    Z=              2.6123  Tot=              4.0470
 Quadrupole moment (field-independent basis, Debye-Ang):
   XX=           -102.5501   YY=           -121.2985   ZZ=           -118.6938
   XY=              1.9290   XZ=              0.4214   YZ=              6.3363

 Summary of Natural Population Analysis:

                                       Natural Population
                Natural  -----------------------------------------------
    Atom  No    Charge         Core      Valence    Rydberg      Total
 -----------------------------------------------------------------------
      C    1   -0.09164      1.99901     4.07809    0.01454     6.09164
      C    2   -0.12588      1.99912     4.10777    0.01899     6.12588
      O    3   -0.52173      1.99973     6.50967    0.01232     8.52173
      C    4    0.92496      1.99951     3.02507    0.05047     5.07504
      O    5   -0.54509      1.99977     6.52462    0.02070     8.54509
      N    6   -0.21794      1.99938     5.19223    0.02633     7.21794
      N    7   -0.22279      1.99938     5.19689    0.02652     7.22279
      C    8    0.92158      1.99950     3.02862    0.05029     5.07842
      O    9   -0.55226      1.99977     6.53178    0.02072     8.55226
      O   10   -0.52358      1.99973     6.51158    0.01227     8.52358
      C   11   -0.12392      1.99912     4.10574    0.01907     6.12392
      C   12   -0.09146      1.99901     4.07794    0.01451     6.09146
      C   13   -0.21268      1.99903     4.20050    0.01314     6.21268
      C   14   -0.23070      1.99910     4.21778    0.01383     6.23070
      C   15   -0.22311      1.99910     4.21054    0.01347     6.22311
      C   16   -0.22846      1.99910     4.21551    0.01384     6.22846
      C   17   -0.21194      1.99903     4.19956    0.01335     6.21194
      C   18   -0.21155      1.99903     4.19914    0.01338     6.21155
      C   19   -0.22884      1.99910     4.21587    0.01386     6.22884
      C   20   -0.22169      1.99910     4.20912    0.01347     6.22169
      C   21   -0.23046      1.99910     4.21753    0.01383     6.23046
      C   22   -0.21170      1.99903     4.19951    0.01316     6.21170
      H   23    0.24293      0.00000     0.75493    0.00214     0.75707
      H   24    0.24077      0.00000     0.75805    0.00118     0.75923
      H   25    0.24208      0.00000     0.75571    0.00221     0.75792
      H   26    0.24037      0.00000     0.75848    0.00115     0.75963
      H   27    0.23599      0.00000     0.76295    0.00106     0.76401
      H   28    0.23904      0.00000     0.76011    0.00085     0.76096
      H   29    0.23857      0.00000     0.76060    0.00082     0.76143
      H   30    0.24062      0.00000     0.75855    0.00083     0.75938
      H   31    0.25212      0.00000     0.74652    0.00136     0.74788
      H   32    0.25175      0.00000     0.74685    0.00140     0.74825
      H   33    0.24107      0.00000     0.75810    0.00083     0.75893
      H   34    0.23908      0.00000     0.76010    0.00082     0.76092
      H   35    0.23962      0.00000     0.75954    0.00085     0.76038
      H   36    0.23688      0.00000     0.76206    0.00106     0.76312
 =======================================================================
   * Total *    0.00000     43.98375   111.57760    0.43865   156.00000

 Normal termination of Gaussian 16 at Sat Aug 22 19:03:57 2020.
