 Gaussian 16, Revision A.03,

 ---------------------------------
 # opt=CalcAll B3LYP/6-31G* scf=qc
 ---------------------------------

 -------------------
 Title Card Required
 -------------------
 Symbolic Z-matrix:
 Charge =  0 Multiplicity = 1

 SCF Done:  E(RB3LYP) =  -1947.58866800     a.u. after    9 cycles
 SCF Done:  E(RB3LYP) =  -1947.62721720     a.u. after   19 cycles
 SCF Done:  E(RB3LYP) =  -1947.63907713     a.u. after   19 cycles
 SCF Done:  E(RB3LYP) =  -1947.66271759     a.u. after   23 cycles
 SCF Done:  E(RB3LYP) =  -1947.66834429     a.u. after   23 cycles
 SCF Done:  E(RB3LYP) =  -1947.67101658     a.u. after   21 cycles
 SCF Done:  E(RB3LYP) =  -1947.67170250     a.u. after   17 cycles
 SCF Done:  E(RB3LYP) =  -1947.67191201     a.u. after   17 cycles
 SCF Done:  E(RB3LYP) =  -1947.67210035     a.u. after   17 cycles
 SCF Done:  E(RB3LYP) =  -1947.67189569     a.u. after   21 cycles
 SCF Done:  E(RB3LYP) =  -1947.67223268     a.u. after   16 cycles
 SCF Done:  E(RB3LYP) =  -1947.67233372     a.u. after   13 cycles
 SCF Done:  E(RB3LYP) =  -1947.67234750     a.u. after   15 cycles
 SCF Done:  E(RB3LYP) =  -1947.67236061     a.u. after   11 cycles
 SCF Done:  E(RB3LYP) =  -1947.67236063     a.u. after    5 cycles
 SCF Done:  E(RB3LYP) =  -1947.67236064     a.u. after    2 cycles
 Optimization completed on the basis of negligible forces.
    -- Stationary point found.
 Normal termination of Gaussian 16 at Sat Aug 22 17:20:33 2020.

 ----------------------------------------------------------------------
 # freq B3LYP/6-31G* scf=qc volume NMR pop=NPA density=current Geom=All
 Check Guess=Read
 ----------------------------------------------------------------------

 Structure from the checkpoint file:  "azadicarboxylate_3_conf162.chk"
 -------------------
 Title Card Required
 -------------------
 Charge =  0 Multiplicity = 1

 SCF Done:  E(RB3LYP) =  -1947.67236064     a.u. after    1 cycles

      1  C    Isotropic =    63.7085   Anisotropy =   171.8643

      2  C    Isotropic =   121.5829   Anisotropy =    40.3876

      3  O    Isotropic =   142.2750   Anisotropy =   140.6981

      4  C    Isotropic =    34.7847   Anisotropy =    85.1218

      5  O    Isotropic =   -20.6896   Anisotropy =   492.4318

      6  N    Isotropic =  -323.7050   Anisotropy =   675.2004

      7  N    Isotropic =  -326.0614   Anisotropy =   678.9016

      8  C    Isotropic =    35.8296   Anisotropy =    81.8074

      9  O    Isotropic =   -27.8978   Anisotropy =   499.6758

     10  O    Isotropic =   148.9788   Anisotropy =   131.3833

     11  C    Isotropic =   119.8622   Anisotropy =    34.0357

     12  C    Isotropic =    64.5674   Anisotropy =   173.6008

     13  C    Isotropic =    63.9772   Anisotropy =   154.0794

     14  C    Isotropic =    66.9597   Anisotropy =   142.1327

     15  C    Isotropic =    51.2113   Anisotropy =   111.6385

     16  C    Isotropic =    66.9748   Anisotropy =   142.1303

     17  C    Isotropic =    63.8464   Anisotropy =   154.7747

     18  Cl   Isotropic =   718.0705   Anisotropy =   454.4108

     19  C    Isotropic =    64.2479   Anisotropy =   151.8708

     20  C    Isotropic =    67.4909   Anisotropy =   140.8734

     21  C    Isotropic =    51.2127   Anisotropy =   111.0703

     22  C    Isotropic =    66.6539   Anisotropy =   142.4996

     23  C    Isotropic =    62.7580   Anisotropy =   159.7982

     24  Cl   Isotropic =   718.3036   Anisotropy =   454.4118

     25  H    Isotropic =    27.7420   Anisotropy =     4.9896

     26  H    Isotropic =    26.5017   Anisotropy =     2.8941

     27  H    Isotropic =    27.3514   Anisotropy =     4.7767

     28  H    Isotropic =    27.2160   Anisotropy =     3.9874

     29  H    Isotropic =    24.9624   Anisotropy =     6.6662

     30  H    Isotropic =    25.0577   Anisotropy =     6.9960

     31  H    Isotropic =    25.0673   Anisotropy =     6.9627

     32  H    Isotropic =    24.9779   Anisotropy =     6.7128

     33  H    Isotropic =    25.0973   Anisotropy =     6.3947

     34  H    Isotropic =    25.1558   Anisotropy =     6.9378

     35  H    Isotropic =    25.0803   Anisotropy =     7.2361

     36  H    Isotropic =    24.4442   Anisotropy =     7.9129

  Exact polarizability: 248.396 -24.812 210.533 -43.813  -8.919 172.440
 Approx polarizability: 310.864 -51.922 348.436 -80.312 -21.428 287.519

                      1                      2                      3
                      A                      A                      A
 Frequencies --      3.1186                11.0185                16.9815
 Red. masses --     10.9044                 3.7847                 9.3082
 Frc consts  --      0.0001                 0.0003                 0.0016
 IR Inten    --      0.1022                 0.0039                 0.1938

                      4                      5                      6
                      A                      A                      A
 Frequencies --     18.4174                23.4485                28.8446
 Red. masses --      8.5845                 5.2942                 7.9291
 Frc consts  --      0.0017                 0.0017                 0.0039
 IR Inten    --      0.2616                 1.2216                 1.0799

                      7                      8                      9
                      A                      A                      A
 Frequencies --     48.7889                64.9776                70.1317
 Red. masses --     10.8844                11.2012                 7.6990
 Frc consts  --      0.0153                 0.0279                 0.0223
 IR Inten    --      1.3699                 1.1165                 1.2367

                     10                     11                     12
                      A                      A                      A
 Frequencies --     95.3291               106.3630               160.6646
 Red. masses --     10.1253                 7.3336                 9.1043
 Frc consts  --      0.0542                 0.0489                 0.1385
 IR Inten    --      0.2439                 0.2922                 0.1188

                     13                     14                     15
                      A                      A                      A
 Frequencies --    190.1099               202.4401               214.5772
 Red. masses --     10.5615                11.8905                 8.1524
 Frc consts  --      0.2249                 0.2871                 0.2212
 IR Inten    --      3.8580                 4.0823                 2.1883

                     16                     17                     18
                      A                      A                      A
 Frequencies --    245.1480               253.4072               261.0970
 Red. masses --      6.8820                12.2930                 4.5766
 Frc consts  --      0.2437                 0.4651                 0.1838
 IR Inten    --      0.8339                 2.0436                 1.4586

                     19                     20                     21
                      A                      A                      A
 Frequencies --    298.6681               318.5394               354.9992
 Red. masses --      4.7053                 7.9994                 7.0709
 Frc consts  --      0.2473                 0.4782                 0.5250
 IR Inten    --      3.0351                 0.8379                 1.1092

                     22                     23                     24
                      A                      A                      A
 Frequencies --    368.9731               384.1352               412.7561
 Red. masses --      2.7282                 2.5346                 7.9901
 Frc consts  --      0.2188                 0.2204                 0.8020
 IR Inten    --      0.4996                 3.6591                54.5689

                     25                     26                     27
                      A                      A                      A
 Frequencies --    420.0199               420.6557               424.4526
 Red. masses --      3.0272                 3.0707                 7.1114
 Frc consts  --      0.3147                 0.3201                 0.7549
 IR Inten    --      0.0471                 1.1168                10.7430

                     28                     29                     30
                      A                      A                      A
 Frequencies --    456.6426               524.1297               544.1283
 Red. masses --      5.3404                 3.6369                 3.9861
 Frc consts  --      0.6561                 0.5887                 0.6953
 IR Inten    --      2.5369                 4.7688                40.1621

                     31                     32                     33
                      A                      A                      A
 Frequencies --    582.1508               613.9800               640.7546
 Red. masses --     10.7724                 7.7198                 7.7385
 Frc consts  --      2.1510                 1.7146                 1.8719
 IR Inten    --      1.3485                 3.8729                 4.5863

                     34                     35                     36
                      A                      A                      A
 Frequencies --    648.4456               648.7199               666.8102
 Red. masses --      6.8542                 6.6229                 4.9218
 Frc consts  --      1.6981                 1.6421                 1.2894
 IR Inten    --      0.1126                 0.0807                 3.7392

                     37                     38                     39
                      A                      A                      A
 Frequencies --    676.2671               730.3693               739.3621
 Red. masses --      5.7982                 4.3617                 4.2103
 Frc consts  --      1.5624                 1.3708                 1.3560
 IR Inten    --      1.3196                 0.3615                 4.0702

                     40                     41                     42
                      A                      A                      A
 Frequencies --    808.2790               820.6784               822.2765
 Red. masses --      9.8201                 4.5480                 2.5193
 Frc consts  --      3.7800                 1.8048                 1.0036
 IR Inten    --     24.1862                12.5598                54.6979

                     43                     44                     45
                      A                      A                      A
 Frequencies --    836.5563               841.4367               843.9701
 Red. masses --      1.7993                 1.2478                 1.3061
 Frc consts  --      0.7419                 0.5205                 0.5481
 IR Inten    --     40.8741                 0.1068                 2.7033

                     46                     47                     48
                      A                      A                      A
 Frequencies --    854.6415               865.0131               913.7579
 Red. masses --      3.6656                 2.4830                 6.5644
 Frc consts  --      1.5775                 1.0946                 3.2293
 IR Inten    --    118.9447                10.4321                17.8003

                     49                     50                     51
                      A                      A                      A
 Frequencies --    950.3336               962.3237               964.3071
 Red. masses --      2.4791                 1.3868                 1.3450
 Frc consts  --      1.3191                 0.7567                 0.7369
 IR Inten    --     31.1425                 5.9739                 0.0693

                     52                     53                     54
                      A                      A                      A
 Frequencies --    974.7680               976.9056               981.3377
 Red. masses --      2.0691                 1.5875                 2.5647
 Frc consts  --      1.1584                 0.8926                 1.4552
 IR Inten    --     44.3162                16.0533                48.9094

                     55                     56                     57
                      A                      A                      A
 Frequencies --    989.6728              1003.9699              1024.3698
 Red. masses --      1.7987                 7.8922                 2.5083
 Frc consts  --      1.0380                 4.6869                 1.5508
 IR Inten    --      8.0980                51.0718                17.9983

                     58                     59                     60
                      A                      A                      A
 Frequencies --   1035.0067              1035.4513              1110.7992
 Red. masses --      3.7618                 3.8011                 3.1226
 Frc consts  --      2.3743                 2.4011                 2.2701
 IR Inten    --     24.7281                16.4509               101.8284

                     61                     62                     63
                      A                      A                      A
 Frequencies --   1111.3376              1144.6166              1146.4628
 Red. masses --      3.1334                 1.3194                 1.3246
 Frc consts  --      2.2801                 1.0185                 1.0258
 IR Inten    --     55.3692                 2.9058                 3.2474

                     64                     65                     66
                      A                      A                      A
 Frequencies --   1213.6107              1215.6750              1228.2352
 Red. masses --      1.2161                 1.1604                 4.4630
 Frc consts  --      1.0553                 1.0104                 3.9668
 IR Inten    --    115.4394                28.4010              1110.8822

                     67                     68                     69
                      A                      A                      A
 Frequencies --   1240.3735              1247.7128              1259.2574
 Red. masses --      3.0641                 2.6920                 1.1862
 Frc consts  --      2.7775                 2.4692                 1.1082
 IR Inten    --      7.0156                32.4526                 7.5414

                     70                     71                     72
                      A                      A                      A
 Frequencies --   1274.3435              1299.3847              1335.5584
 Red. masses --      3.3581                 1.7272                 1.7600
 Frc consts  --      3.2130                 1.7182                 1.8496
 IR Inten    --    262.5255                96.0118                 0.5440

                     73                     74                     75
                      A                      A                      A
 Frequencies --   1336.5586              1358.0629              1363.7582
 Red. masses --      1.8124                 2.6212                 2.1522
 Frc consts  --      1.9075                 2.8483                 2.3584
 IR Inten    --      1.0708                 0.6452                 6.1964

                     76                     77                     78
                      A                      A                      A
 Frequencies --   1417.8521              1420.8234              1453.8806
 Red. masses --      1.3537                 1.4827                 2.6889
 Frc consts  --      1.6034                 1.7635                 3.3487
 IR Inten    --     23.8200                21.2274                 6.9328

                     79                     80                     81
                      A                      A                      A
 Frequencies --   1456.3897              1516.8515              1529.2773
 Red. masses --      2.6020                 1.1179                 1.1014
 Frc consts  --      3.2517                 1.5154                 1.5176
 IR Inten    --      7.1762                11.5982                 7.5206

                     82                     83                     84
                      A                      A                      A
 Frequencies --   1541.5784              1543.8075              1631.1766
 Red. masses --      2.3099                 2.3689                 6.6807
 Frc consts  --      3.2343                 3.3264                10.4731
 IR Inten    --     45.2322                38.1314                 0.7537

                     85                     86                     87
                      A                      A                      A
 Frequencies --   1632.6812              1652.7742              1656.1017
 Red. masses --      6.7402                13.9350                 5.5908
 Frc consts  --     10.5858                22.4277                 9.0344
 IR Inten    --      1.0376                 0.7613                30.6196

                     88                     89                     90
                      A                      A                      A
 Frequencies --   1658.9912              1836.2228              1853.8409
 Red. masses --      5.6745                12.3141                12.4625
 Frc consts  --      9.2016                24.4627                25.2348
 IR Inten    --     29.2701                94.5245               534.0202

                     91                     92                     93
                      A                      A                      A
 Frequencies --   3090.3662              3108.8525              3141.0347
 Red. masses --      1.0577                 1.0577                 1.1102
 Frc consts  --      5.9515                 6.0227                 6.4538
 IR Inten    --     13.3356                19.9307                 8.7688

                     94                     95                     96
                      A                      A                      A
 Frequencies --   3166.7822              3189.9968              3192.6357
 Red. masses --      1.1109                 1.0896                 1.0897
 Frc consts  --      6.5637                 6.5330                 6.5441
 IR Inten    --      3.8921                 9.3429                 8.3241

                     97                     98                     99
                      A                      A                      A
 Frequencies --   3193.3270              3212.7923              3225.9434
 Red. masses --      1.0897                 1.0890                 1.0935
 Frc consts  --      6.5471                 6.6228                 6.7046
 IR Inten    --      7.0682                 0.7822                 3.4918

                    100                    101                    102
                      A                      A                      A
 Frequencies --   3226.4236              3227.3214              3228.8199
 Red. masses --      1.0933                 1.0940                 1.0949
 Frc consts  --      6.7058                 6.7135                 6.7250
 IR Inten    --      4.2568                 0.6285                 1.1973

 - Thermochemistry -
 -------------------
 Temperature   298.150 Kelvin.  Pressure   1.00000 Atm.
 Atom     1 has atomic number  6 and mass  12.00000

 Molecular mass:   366.01741 amu.
 Principal axes and moments of inertia in atomic units:
                           1         2         3
     Eigenvalues --  5787.23106********************
           X            0.99997   0.00320   0.00660
           Y           -0.00321   0.99999   0.00124
           Z           -0.00660  -0.00126   0.99998
 This molecule is an asymmetric top.
 Rotational symmetry number  1.
 Warning -- assumption of classical behavior for rotation
           may cause significant error
 Rotational temperatures (Kelvin)      0.01497     0.00281     0.00263
 Rotational constants (GHZ):           0.31185     0.05863     0.05478
 Zero-point vibrational energy     677607.8 (Joules/Mol)
                                  161.95214 (Kcal/Mol)
 Warning -- explicit consideration of  32 degrees of freedom as
           vibrations may cause significant error
 Vibrational temperatures:      4.49    15.85    24.43    26.50    33.74
          (Kelvin)             41.50    70.20    93.49   100.90   137.16
                              153.03   231.16   273.53   291.27   308.73
                              352.71   364.60   375.66   429.72   458.31
                              510.76   530.87   552.68   593.86   604.31
                              605.23   610.69   657.01   754.11   782.88
                              837.59   883.38   921.90   932.97   933.36
                              959.39   973.00  1050.84  1063.78  1162.93
                             1180.77  1183.07  1203.62  1210.64  1214.28
                             1229.64  1244.56  1314.69  1367.32  1384.57
                             1387.42  1402.47  1405.55  1411.93  1423.92
                             1444.49  1473.84  1489.14  1489.78  1598.19
                             1598.97  1646.85  1649.50  1746.12  1749.09
                             1767.16  1784.62  1795.18  1811.79  1833.50
                             1869.52  1921.57  1923.01  1953.95  1962.14
                             2039.97  2044.25  2091.81  2095.42  2182.41
                             2200.29  2217.99  2221.19  2346.90  2349.06
                             2377.97  2382.76  2386.92  2641.92  2667.26
                             4446.35  4472.95  4519.25  4556.29  4589.69
                             4593.49  4594.49  4622.49  4641.41  4642.10
                             4643.40  4645.55

 Zero-point correction=                           0.258087 (Hartree/Particle)
 Thermal correction to Energy=                    0.280162
 Thermal correction to Enthalpy=                  0.281106
 Thermal correction to Gibbs Free Energy=         0.196976
 Sum of electronic and zero-point Energies=          -1947.414273
 Sum of electronic and thermal Energies=             -1947.392199
 Sum of electronic and thermal Enthalpies=           -1947.391255
 Sum of electronic and thermal Free Energies=        -1947.475384

                     E (Thermal)             CV                S
                      KCal/Mol        Cal/Mol-Kelvin    Cal/Mol-Kelvin
 Total                  175.804             79.214            177.066
 Electronic               0.000              0.000              0.000
 Translational            0.889              2.981             43.586
 Rotational               0.889              2.981             37.015
 Vibrational            174.027             73.253             96.465
 Vibration     1          0.592              1.987             10.326
 Vibration     2          0.593              1.987              7.818
 Vibration     3          0.593              1.986              6.959
 Vibration     4          0.593              1.986              6.798
 Vibration     5          0.593              1.985              6.318
 Vibration     6          0.593              1.984              5.907
 Vibration     7          0.595              1.978              4.866
 Vibration     8          0.597              1.971              4.300
 Vibration     9          0.598              1.968              4.150
 Vibration    10          0.603              1.953              3.548
 Vibration    11          0.605              1.944              3.334
 Vibration    12          0.622              1.891              2.542
 Vibration    13          0.633              1.854              2.227
 Vibration    14          0.639              1.836              2.111
 Vibration    15          0.645              1.819              2.004
 Vibration    16          0.660              1.771              1.765
 Vibration    17          0.665              1.757              1.707
 Vibration    18          0.669              1.744              1.654
 Vibration    19          0.692              1.676              1.424
 Vibration    20          0.705              1.638              1.318
 Vibration    21          0.731              1.565              1.144
 Vibration    22          0.741              1.536              1.084
 Vibration    23          0.753              1.504              1.023
 Vibration    24          0.777              1.443              0.917
 Vibration    25          0.783              1.427              0.892
 Vibration    26          0.783              1.425              0.890
 Vibration    27          0.786              1.417              0.877
 Vibration    28          0.815              1.346              0.776
 Vibration    29          0.879              1.197              0.600
 Vibration    30          0.899              1.153              0.556
 Vibration    31          0.939              1.070              0.481
 Vibration    32          0.973              1.002              0.426

 Optimization completed on the basis of negligible forces.
    -- Stationary point found.
 Normal termination of Gaussian 16 at Sat Aug 22 17:30:19 2020.
 Gaussian 16:  ES64L-G16RevA.03 25-Dec-2016

 ----------------------------------------------------------------------
 # TD(NStates=10, Root=1) B3LYP/6-31G* scf=qc volume pop=NPA density=cu
 rrent Geom=AllCheck Guess=Read
 ----------------------------------------------------------------------

 Structure from the checkpoint file:  "azadicarboxylate_3_conf163.chk"
 -------------------
 Title Card Required
 -------------------
 Charge =  0 Multiplicity = 1

                         Standard orientation:
 ---------------------------------------------------------------------
 Center     Atomic      Atomic             Coordinates (Angstroms)
 Number     Number       Type             X           Y           Z
 ---------------------------------------------------------------------
      1          6           0        3.955111    0.415867    1.278566
      2          6           0        2.902132   -0.054488    2.245597
      3          8           0        1.688807   -0.501057    1.552563
      4          6           0        1.642593   -1.789498    1.221013
      5          8           0        2.473885   -2.641030    1.415050
      6          7           0        0.341333   -2.119235    0.674900
      7          7           0        0.202484   -1.747990   -0.505443
      8          6           0       -1.059622   -2.168590   -1.082713
      9          8           0       -1.119845   -3.053520   -1.897429
     10          8           0       -2.045643   -1.376276   -0.663376
     11          6           0       -3.347863   -1.629741   -1.283003
     12          6           0       -4.307406   -0.586678   -0.788263
     13          6           0       -4.469427    0.618252   -1.481869
     14          6           0       -5.345942    1.599176   -1.021427
     15          6           0       -6.066479    1.365856    0.149651
     16          6           0       -5.924049    0.174293    0.860355
     17          6           0       -5.043140   -0.795017    0.384213
     18         17           0       -7.178104    2.592825    0.737144
     19          6           0        3.996815    1.756258    0.876606
     20          6           0        4.961393    2.206467   -0.023111
     21          6           0        5.893213    1.297824   -0.523719
     22          6           0        5.873143   -0.043225   -0.140827
     23          6           0        4.902131   -0.477338    0.759816
     24         17           0        7.117643    1.854454   -1.654517
     25          1           0        2.546962    0.759624    2.879231
     26          1           0        3.258531   -0.878938    2.865879
     27          1           0       -3.658569   -2.641011   -1.007548
     28          1           0       -3.218554   -1.594890   -2.367873
     29          1           0       -3.905466    0.795115   -2.394256
     30          1           0       -5.472481    2.530666   -1.562436
     31          1           0       -6.495186    0.009587    1.767572
     32          1           0       -4.927948   -1.725400    0.934482
     33          1           0        3.268697    2.460858    1.271019
     34          1           0        4.993805    3.246007   -0.330896
     35          1           0        6.606780   -0.734606   -0.541108
     36          1           0        4.871317   -1.521626    1.055306
 ---------------------------------------------------------------------

 SCF Done:  E(RB3LYP) =  -1947.67236064     a.u. after    1 cycles

 Excitation energies and oscillator strengths:

 Excited State   1:      Singlet-A      2.9143 eV  425.44 nm  f=0.0022  <S**2>=0.000
      92 -> 95         0.39521
      93 -> 95        -0.22132
      94 -> 95         0.53269
 This state for optimization and/or second-order correction.
 Total Energy, E(TD-HF/TD-DFT) =  -1947.56526245
 Copying the excited state density for this state as the 1-particle RhoCI density.

 Excited State   2:      Singlet-A      3.9874 eV  310.94 nm  f=0.0192  <S**2>=0.000
      92 -> 95        -0.18058
      93 -> 95         0.56896
      94 -> 95         0.37526

 Excited State   3:      Singlet-A      4.1424 eV  299.31 nm  f=0.0165  <S**2>=0.000
      92 -> 95         0.54629
      93 -> 95         0.35153
      94 -> 95        -0.26907

 Excited State   4:      Singlet-A      4.4238 eV  280.26 nm  f=0.0008  <S**2>=0.000
      91 -> 95         0.70553

 Excited State   5:      Singlet-A      4.5881 eV  270.23 nm  f=0.0007  <S**2>=0.000
      90 -> 95         0.70508

 Excited State   6:      Singlet-A      4.9995 eV  247.99 nm  f=0.0741  <S**2>=0.000
      88 -> 95        -0.11256
      89 -> 95         0.67221

 Excited State   7:      Singlet-A      5.1856 eV  239.09 nm  f=0.0013  <S**2>=0.000
      87 -> 95         0.55956
      88 -> 95        -0.39743

 Excited State   8:      Singlet-A      5.2415 eV  236.55 nm  f=0.0014  <S**2>=0.000
      90 -> 96         0.43251
      92 -> 98        -0.27540
      93 -> 98        -0.34011
      94 -> 98         0.33088

 Excited State   9:      Singlet-A      5.2509 eV  236.12 nm  f=0.0004  <S**2>=0.000
      91 -> 97         0.44924
      93 -> 99         0.36154
      94 -> 99         0.39303

 Excited State  10:      Singlet-A      5.4425 eV  227.81 nm  f=0.1061  <S**2>=0.000
      84 -> 95         0.16013
      92 -> 96         0.18581
      93 -> 96        -0.16812
      94 -> 96         0.59420
      94 -> 97         0.10135
      94 ->100        -0.11519

 The electronic state is 1-A.
 Alpha  occ. eigenvalues -- -101.55803-101.55421 -19.22078 -19.21991 -19.16455
 Alpha  occ. eigenvalues --  -19.16275 -14.42967 -14.42910 -10.36000 -10.35761
 Alpha  occ. eigenvalues --  -10.26945 -10.26863 -10.26754 -10.26343 -10.22123
 Alpha  occ. eigenvalues --  -10.21813 -10.21796 -10.21747 -10.21736 -10.21708
 Alpha  occ. eigenvalues --  -10.21455 -10.21359 -10.21239 -10.21065  -9.47436
 Alpha  occ. eigenvalues --   -9.47054  -7.23833  -7.23450  -7.22865  -7.22827
 Alpha  occ. eigenvalues --   -7.22483  -7.22446  -1.14508  -1.13282  -1.06378
 Alpha  occ. eigenvalues --   -1.04644  -1.04296  -0.90372  -0.89936  -0.85694
 Alpha  occ. eigenvalues --   -0.85224  -0.81359  -0.78578  -0.77355  -0.76875
 Alpha  occ. eigenvalues --   -0.76550  -0.71417  -0.69639  -0.63849  -0.63418
 Alpha  occ. eigenvalues --   -0.62633  -0.60645  -0.59783  -0.57820  -0.56556
 Alpha  occ. eigenvalues --   -0.53223  -0.52987  -0.52002  -0.50640  -0.50225
 Alpha  occ. eigenvalues --   -0.49114  -0.48822  -0.48212  -0.47963  -0.46984
 Alpha  occ. eigenvalues --   -0.45657  -0.44899  -0.44569  -0.44256  -0.43771
 Alpha  occ. eigenvalues --   -0.42889  -0.41269  -0.40808  -0.40275  -0.39987
 Alpha  occ. eigenvalues --   -0.39771  -0.38767  -0.37919  -0.37311  -0.37209
 Alpha  occ. eigenvalues --   -0.36456  -0.34376  -0.33903  -0.32741  -0.32653
 Alpha  occ. eigenvalues --   -0.32185  -0.31957  -0.31766  -0.31412  -0.27658
 Alpha  occ. eigenvalues --   -0.27200  -0.26426  -0.25669  -0.25143
 Alpha virt. eigenvalues --   -0.09037  -0.03496  -0.03115  -0.02686  -0.02214
 Alpha virt. eigenvalues --   -0.00117   0.00438   0.01920   0.02400   0.08872
 Alpha virt. eigenvalues --    0.09649   0.10569   0.10798   0.11457   0.11928

 Mulliken charges:
               1
     1  C    0.152056
     2  C   -0.157593
     3  O   -0.408925
     4  C    0.739049
     5  O   -0.417668
     6  N   -0.242867
     7  N   -0.241894
     8  C    0.744888
     9  O   -0.412854
    10  O   -0.412292
    11  C   -0.142889
    12  C    0.146843
    13  C   -0.161137
    14  C   -0.129014
    15  C   -0.062181
    16  C   -0.128790
    17  C   -0.159983
    18  Cl  -0.011354
    19  C   -0.165684
    20  C   -0.128292
    21  C   -0.062478
    22  C   -0.129004
    23  C   -0.172132
    24  Cl  -0.014611
    25  H    0.172774
    26  H    0.186690
    27  H    0.176943
    28  H    0.178871
    29  H    0.148371
    30  H    0.162871
    31  H    0.163022
    32  H    0.149225
    33  H    0.144212
    34  H    0.160251
    35  H    0.163447
    36  H    0.172130
 Sum of Mulliken charges =  -0.00000

 Dipole moment (field-independent basis, Debye):
    X=             -1.7653    Y=              2.0977    Z=              1.4847  Tot=              3.1178
 Quadrupole moment (field-independent basis, Debye-Ang):
   XX=           -150.0564   YY=           -156.6234   ZZ=           -143.5118
   XY=              8.6462   XZ=              9.9954   YZ=             -3.6254

 Summary of Natural Population Analysis:

                                       Natural Population
                Natural  -----------------------------------------------
    Atom  No    Charge         Core      Valence    Rydberg      Total
 -----------------------------------------------------------------------
      C    1   -0.09405      1.99901     4.08068    0.01436     6.09405
      C    2   -0.12466      1.99912     4.10628    0.01925     6.12466
      O    3   -0.52338      1.99973     6.51139    0.01226     8.52338
      C    4    0.92151      1.99950     3.02874    0.05024     5.07849
      O    5   -0.55130      1.99977     6.53077    0.02076     8.55130
      N    6   -0.21994      1.99938     5.19407    0.02648     7.21994
      N    7   -0.21602      1.99938     5.19028    0.02636     7.21602
      C    8    0.91863      1.99951     3.03187    0.04999     5.08137
      O    9   -0.53667      1.99977     6.51607    0.02083     8.53667
      O   10   -0.52547      1.99972     6.51350    0.01225     8.52547
      C   11   -0.12510      1.99914     4.10788    0.01809     6.12510
      C   12   -0.08379      1.99901     4.06962    0.01517     6.08379
      C   13   -0.19673      1.99903     4.18465    0.01305     6.19673
      C   14   -0.24198      1.99894     4.22813    0.01491     6.24198
      C   15   -0.03566      1.99856     4.01530    0.02180     6.03566
      C   16   -0.24175      1.99894     4.22790    0.01491     6.24175
      C   17   -0.19613      1.99903     4.18405    0.01305     6.19613
     Cl   18    0.00476      9.99967     6.97624    0.01933    16.99524
      C   19   -0.20031      1.99903     4.18822    0.01306     6.20031
      C   20   -0.24376      1.99893     4.22992    0.01491     6.24376
      C   21   -0.03611      1.99856     4.01580    0.02175     6.03611
      C   22   -0.24139      1.99894     4.22753    0.01493     6.24139
      C   23   -0.19915      1.99903     4.18681    0.01331     6.19915
     Cl   24    0.00211      9.99967     6.97892    0.01930    16.99789
      H   25    0.24275      0.00000     0.75614    0.00112     0.75725
      H   26    0.24371      0.00000     0.75411    0.00217     0.75629
      H   27    0.23912      0.00000     0.75913    0.00175     0.76088
      H   28    0.23975      0.00000     0.75837    0.00188     0.76025
      H   29    0.24521      0.00000     0.75382    0.00097     0.75479
      H   30    0.25731      0.00000     0.74168    0.00101     0.74269
      H   31    0.25738      0.00000     0.74162    0.00101     0.74262
      H   32    0.24567      0.00000     0.75336    0.00097     0.75433
      H   33    0.24289      0.00000     0.75611    0.00101     0.75711
      H   34    0.25604      0.00000     0.74294    0.00102     0.74396
      H   35    0.25755      0.00000     0.74145    0.00100     0.74245
      H   36    0.25898      0.00000     0.73969    0.00133     0.74102
 =======================================================================
   * Total *    0.00000     63.98138   123.52305    0.49557   188.00000

 Normal termination of Gaussian 16 at Sat Aug 22 17:40:32 2020.
