 Gaussian 16, Revision A.03,

 ---------------------------------
 # opt=CalcAll B3LYP/6-31G* scf=qc
 ---------------------------------

 -------------------
 Title Card Required
 -------------------
 Symbolic Z-matrix:
 Charge =  0 Multiplicity = 1

 SCF Done:  E(RB3LYP) =  -1947.63401783     a.u. after   10 cycles
 SCF Done:  E(RB3LYP) =  -1947.65956308     a.u. after   17 cycles
 SCF Done:  E(RB3LYP) =  -1947.66588843     a.u. after   19 cycles
 SCF Done:  E(RB3LYP) =  -1947.66965531     a.u. after   25 cycles
 SCF Done:  E(RB3LYP) =  -1947.67085983     a.u. after   23 cycles
 SCF Done:  E(RB3LYP) =  -1947.67177324     a.u. after   19 cycles
 SCF Done:  E(RB3LYP) =  -1947.67250254     a.u. after   23 cycles
 SCF Done:  E(RB3LYP) =  -1947.67284770     a.u. after   17 cycles
 SCF Done:  E(RB3LYP) =  -1947.67351272     a.u. after   19 cycles
 SCF Done:  E(RB3LYP) =  -1947.67386105     a.u. after   15 cycles
 SCF Done:  E(RB3LYP) =  -1947.67391035     a.u. after   13 cycles
 SCF Done:  E(RB3LYP) =  -1947.67391323     a.u. after    7 cycles
 SCF Done:  E(RB3LYP) =  -1947.67391619     a.u. after    5 cycles
 SCF Done:  E(RB3LYP) =  -1947.67391629     a.u. after    2 cycles
 Optimization completed.
    -- Stationary point found.
 Normal termination of Gaussian 16 at Sat Aug 22 17:06:40 2020.

 ----------------------------------------------------------------------
 # freq B3LYP/6-31G* scf=qc volume NMR pop=NPA density=current Geom=All
 Check Guess=Read
 ----------------------------------------------------------------------

 Structure from the checkpoint file:  "azadicarboxylate_3_conf272.chk"
 -------------------
 Title Card Required
 -------------------
 Charge =  0 Multiplicity = 1

 SCF Done:  E(RB3LYP) =  -1947.67391629     a.u. after    1 cycles

      1  C    Isotropic =    63.7696   Anisotropy =   171.9956

      2  C    Isotropic =   121.5109   Anisotropy =    40.1937

      3  O    Isotropic =   141.2589   Anisotropy =   142.2897

      4  C    Isotropic =    34.6909   Anisotropy =    84.5963

      5  O    Isotropic =   -22.0540   Anisotropy =   494.8639

      6  N    Isotropic =  -323.5024   Anisotropy =   676.5386

      7  N    Isotropic =  -323.5038   Anisotropy =   676.5406

      8  C    Isotropic =    34.6914   Anisotropy =    84.5954

      9  O    Isotropic =   -22.0551   Anisotropy =   494.8639

     10  O    Isotropic =   141.2615   Anisotropy =   142.2956

     11  C    Isotropic =   121.5115   Anisotropy =    40.1909

     12  C    Isotropic =    63.7702   Anisotropy =   171.9962

     13  C    Isotropic =    64.0436   Anisotropy =   152.8378

     14  C    Isotropic =    67.3429   Anisotropy =   141.1123

     15  C    Isotropic =    51.2522   Anisotropy =   110.8796

     16  C    Isotropic =    66.8660   Anisotropy =   142.0712

     17  C    Isotropic =    62.7954   Anisotropy =   159.0369

     18  Cl   Isotropic =   718.4723   Anisotropy =   454.6963

     19  C    Isotropic =    62.7954   Anisotropy =   159.0419

     20  C    Isotropic =    66.8656   Anisotropy =   142.0723

     21  C    Isotropic =    51.2520   Anisotropy =   110.8799

     22  C    Isotropic =    67.3433   Anisotropy =   141.1116

     23  C    Isotropic =    64.0437   Anisotropy =   152.8324

     24  Cl   Isotropic =   718.4725   Anisotropy =   454.6948

     25  H    Isotropic =    27.6771   Anisotropy =     5.2570

     26  H    Isotropic =    26.5611   Anisotropy =     2.7848

     27  H    Isotropic =    27.6769   Anisotropy =     5.2568

     28  H    Isotropic =    26.5613   Anisotropy =     2.7848

     29  H    Isotropic =    25.0124   Anisotropy =     6.5616

     30  H    Isotropic =    25.1175   Anisotropy =     6.8660

     31  H    Isotropic =    25.0990   Anisotropy =     7.2936

     32  H    Isotropic =    24.4825   Anisotropy =     7.6644

     33  H    Isotropic =    24.4823   Anisotropy =     7.6652

     34  H    Isotropic =    25.0990   Anisotropy =     7.2938

     35  H    Isotropic =    25.1176   Anisotropy =     6.8659

     36  H    Isotropic =    25.0125   Anisotropy =     6.5612

  Exact polarizability: 276.743  54.443 162.576   1.154   3.076 190.265
 Approx polarizability: 333.862  98.019 257.405   3.975  -1.621 358.084

                      1                      2                      3
                      A                      A                      A
 Frequencies --      5.1005                11.4407                18.3056
 Red. masses --     10.4846                13.9487                 8.9510
 Frc consts  --      0.0002                 0.0011                 0.0018
 IR Inten    --      0.3209                 0.1597                 0.0000

                      4                      5                      6
                      A                      A                      A
 Frequencies --     25.2393                26.9919                44.4650
 Red. masses --      3.9405                 5.1004                10.8718
 Frc consts  --      0.0015                 0.0022                 0.0127
 IR Inten    --      0.1436                 0.0000                 3.4994

                      7                      8                      9
                      A                      A                      A
 Frequencies --     63.4524                70.0811                75.8453
 Red. masses --     10.8282                 8.8070                 7.4509
 Frc consts  --      0.0257                 0.0255                 0.0253
 IR Inten    --      0.0000                 0.0000                 3.3394

                     10                     11                     12
                      A                      A                      A
 Frequencies --     98.0359               101.4497               168.5050
 Red. masses --     10.6871                10.1193                10.8735
 Frc consts  --      0.0605                 0.0614                 0.1819
 IR Inten    --      1.1534                 0.0000                 3.4826

                     13                     14                     15
                      A                      A                      A
 Frequencies --    198.9064               216.0293               218.0800
 Red. masses --      9.8621                 8.0885                11.2301
 Frc consts  --      0.2299                 0.2224                 0.3147
 IR Inten    --      0.0000                10.3293                 0.0000

                     16                     17                     18
                      A                      A                      A
 Frequencies --    239.1693               260.8643               295.8074
 Red. masses --      8.5825                11.2831                 4.3415
 Frc consts  --      0.2892                 0.4524                 0.2238
 IR Inten    --      0.0000                 1.8137                 0.0000

                     19                     20                     21
                      A                      A                      A
 Frequencies --    300.6317               340.4448               348.3743
 Red. masses --      4.8482                 8.4541                 8.4986
 Frc consts  --      0.2582                 0.5773                 0.6077
 IR Inten    --     12.7528                 8.3204                 0.0000

                     22                     23                     24
                      A                      A                      A
 Frequencies --    378.2374               386.2407               412.7423
 Red. masses --      2.6111                 2.3234                 6.7893
 Frc consts  --      0.2201                 0.2042                 0.6814
 IR Inten    --      0.0000                16.6629                 0.0000

                     25                     26                     27
                      A                      A                      A
 Frequencies --    420.4805               420.8928               431.2710
 Red. masses --      3.0362                 3.1014                 6.9410
 Frc consts  --      0.3163                 0.3237                 0.7606
 IR Inten    --      0.0345                 0.0000                34.4898

                     28                     29                     30
                      A                      A                      A
 Frequencies --    457.6719               515.8997               539.1435
 Red. masses --      5.6254                 3.9475                 4.0008
 Frc consts  --      0.6942                 0.6190                 0.6852
 IR Inten    --      0.0000                17.7557                 0.0000

                     31                     32                     33
                      A                      A                      A
 Frequencies --    611.4978               616.9140               644.1262
 Red. masses --      6.6918                 8.5177                 8.0479
 Frc consts  --      1.4743                 1.9100                 1.9673
 IR Inten    --     33.8960                 0.0000                11.5556

                     34                     35                     36
                      A                      A                      A
 Frequencies --    648.0966               648.2711               664.8568
 Red. masses --      6.7513                 6.8587                 4.9437
 Frc consts  --      1.6708                 1.6983                 1.2875
 IR Inten    --      0.0000                 1.9381                 9.3503

                     37                     38                     39
                      A                      A                      A
 Frequencies --    668.1343               737.9200               738.4824
 Red. masses --      4.9932                 4.3036                 4.1518
 Frc consts  --      1.3133                 1.3807                 1.3340
 IR Inten    --      0.0000                 0.0000                11.3658

                     40                     41                     42
                      A                      A                      A
 Frequencies --    811.2894               820.3954               822.6760
 Red. masses --     10.7245                 2.4288                 2.5046
 Frc consts  --      4.1589                 0.9632                 0.9987
 IR Inten    --     16.7106                 0.0000                98.4940

                     43                     44                     45
                      A                      A                      A
 Frequencies --    828.4783               843.3286               843.4352
 Red. masses --      5.1648                 1.2834                 1.2843
 Frc consts  --      2.0887                 0.5378                 0.5383
 IR Inten    --      0.0000                 0.0007                 3.0404

                     46                     47                     48
                      A                      A                      A
 Frequencies --    860.2125               861.4640               883.9295
 Red. masses --      2.4688                 2.3123                 4.0773
 Frc consts  --      1.0763                 1.0110                 1.8770
 IR Inten    --    140.0854                 0.0000                31.4263

                     49                     50                     51
                      A                      A                      A
 Frequencies --    912.9868               962.2374               963.7337
 Red. masses --      6.6427                 1.4080                 1.3515
 Frc consts  --      3.2623                 0.7681                 0.7396
 IR Inten    --      0.0000                21.0697                 0.0000

                     52                     53                     54
                      A                      A                      A
 Frequencies --    974.4997               975.9556               980.8152
 Red. masses --      1.5162                 1.3352                 2.9380
 Frc consts  --      0.8483                 0.7493                 1.6652
 IR Inten    --     51.9334                 0.0009               148.7006

                     55                     56                     57
                      A                      A                      A
 Frequencies --    991.9715              1023.6334              1025.5508
 Red. masses --      4.1623                 2.6186                 2.4506
 Frc consts  --      2.4131                 1.6166                 1.5186
 IR Inten    --      0.0000                 0.0000                43.0157

                     58                     59                     60
                      A                      A                      A
 Frequencies --   1035.4254              1035.4921              1110.6904
 Red. masses --      3.8326                 3.7885                 3.1184
 Frc consts  --      2.4209                 2.3934                 2.2666
 IR Inten    --      0.0000                36.4115               146.8501

                     61                     62                     63
                      A                      A                      A
 Frequencies --   1110.9615              1146.3758              1146.4717
 Red. masses --      3.1199                 1.3243                 1.3243
 Frc consts  --      2.2688                 1.0254                 1.0256
 IR Inten    --      0.0000                 0.0002                 5.7937

                     64                     65                     66
                      A                      A                      A
 Frequencies --   1215.5184              1216.0284              1239.8833
 Red. masses --      1.1575                 1.1447                 3.3230
 Frc consts  --      1.0076                 0.9973                 3.0098
 IR Inten    --     38.4015                 0.0001               148.6429

                     67                     68                     69
                      A                      A                      A
 Frequencies --   1240.2111              1246.4104              1255.3848
 Red. masses --      3.1048                 3.8681                 3.7508
 Frc consts  --      2.8137                 3.5405                 3.4828
 IR Inten    --      0.0020              1245.9971                 0.0000

                     70                     71                     72
                      A                      A                      A
 Frequencies --   1297.2217              1298.5875              1336.5242
 Red. masses --      1.5107                 1.6021                 1.8067
 Frc consts  --      1.4978                 1.5918                 1.9015
 IR Inten    --    157.3663                 0.0002                 2.8466

                     73                     74                     75
                      A                      A                      A
 Frequencies --   1336.5613              1363.8663              1363.9052
 Red. masses --      1.8151                 2.1577                 2.1539
 Frc consts  --      1.9105                 2.3647                 2.3607
 IR Inten    --      0.0000                12.2081                 0.0122

                     76                     77                     78
                      A                      A                      A
 Frequencies --   1417.9481              1418.4864              1456.3568
 Red. masses --      1.3524                 1.3566                 2.6035
 Frc consts  --      1.6020                 1.6083                 3.2534
 IR Inten    --      0.0006                44.9039                13.8035

                     79                     80                     81
                      A                      A                      A
 Frequencies --   1456.3600              1516.6374              1516.8516
 Red. masses --      2.6033                 1.1167                 1.1189
 Frc consts  --      3.2532                 1.5134                 1.5168
 IR Inten    --      0.5443                23.0917                 0.0006

                     82                     83                     84
                      A                      A                      A
 Frequencies --   1541.5937              1541.7252              1631.3474
 Red. masses --      2.3128                 2.3080                 6.6838
 Frc consts  --      3.2384                 3.2323                10.4802
 IR Inten    --     90.2382                 0.0008                 1.3284

                     85                     86                     87
                      A                      A                      A
 Frequencies --   1631.3541              1647.7462              1656.1197
 Red. masses --      6.6838                13.9385                 5.5907
 Frc consts  --     10.4803                22.2970                 9.0344
 IR Inten    --      0.0630                 0.0000                61.0533

                     88                     89                     90
                      A                      A                      A
 Frequencies --   1656.1384              1832.7462              1845.3671
 Red. masses --      5.5918                12.1579                12.1374
 Frc consts  --      9.0365                24.0609                24.3524
 IR Inten    --      0.0000                 0.0000               463.9201

                     91                     92                     93
                      A                      A                      A
 Frequencies --   3108.9283              3108.9796              3166.9009
 Red. masses --      1.0577                 1.0577                 1.1109
 Frc consts  --      6.0232                 6.0234                 6.5642
 IR Inten    --     40.1916                 0.3672                 2.5439

                     94                     95                     96
                      A                      A                      A
 Frequencies --   3166.9144              3190.8634              3190.8737
 Red. masses --      1.1109                 1.0897                 1.0897
 Frc consts  --      6.5643                 6.5368                 6.5368
 IR Inten    --      5.5826                 1.1543                16.1132

                     97                     98                     99
                      A                      A                      A
 Frequencies --   3212.3119              3212.3259              3226.2768
 Red. masses --      1.0889                 1.0889                 1.0935
 Frc consts  --      6.6204                 6.6204                 6.7060
 IR Inten    --      1.4017                 0.7294                 0.1217

                    100                    101                    102
                      A                      A                      A
 Frequencies --   3226.2774              3228.4181              3228.4215
 Red. masses --      1.0935                 1.0949                 1.0949
 Frc consts  --      6.7060                 6.7234                 6.7235
 IR Inten    --      7.3766                 0.7448                 1.4404

 - Thermochemistry -
 -------------------
 Temperature   298.150 Kelvin.  Pressure   1.00000 Atm.
 Atom     1 has atomic number  6 and mass  12.00000

 Molecular mass:   366.01741 amu.
 Principal axes and moments of inertia in atomic units:
                           1         2         3
     Eigenvalues --  3134.71434********************
           X            0.99996  -0.00818  -0.00200
           Y            0.00822   0.99980   0.01803
           Z            0.00185  -0.01804   0.99984
 This molecule is an asymmetric top.
 Rotational symmetry number  1.
 Warning -- assumption of classical behavior for rotation
           may cause significant error
 Rotational temperatures (Kelvin)      0.02763     0.00251     0.00244
 Rotational constants (GHZ):           0.57573     0.05237     0.05087
 Zero-point vibrational energy     678787.9 (Joules/Mol)
                                  162.23421 (Kcal/Mol)
 Warning -- explicit consideration of  32 degrees of freedom as
           vibrations may cause significant error
 Vibrational temperatures:      7.34    16.46    26.34    36.31    38.84
          (Kelvin)             63.98    91.29   100.83   109.12   141.05
                              145.96   242.44   286.18   310.82   313.77
                              344.11   375.33   425.60   432.54   489.82
                              501.23   544.20   555.71   593.84   604.98
                              605.57   620.50   658.49   742.26   775.71
                              879.81   887.60   926.75   932.47   932.72
                              956.58   961.30  1061.70  1062.51  1167.26
                             1180.37  1183.65  1192.00  1213.36  1213.52
                             1237.65  1239.45  1271.78  1313.58  1384.45
                             1386.60  1402.09  1404.18  1411.17  1427.23
                             1472.78  1475.54  1489.75  1489.84  1598.04
                             1598.43  1649.38  1649.52  1748.86  1749.59
                             1783.92  1784.39  1793.31  1806.22  1866.41
                             1868.38  1922.96  1923.01  1962.30  1962.36
                             2040.11  2040.89  2095.37  2095.38  2182.10
                             2182.41  2218.01  2218.20  2347.15  2347.15
                             2370.74  2382.79  2382.81  2636.91  2655.07
                             4473.05  4473.13  4556.46  4556.48  4590.94
                             4590.96  4621.80  4621.82  4641.89  4641.89
                             4644.97  4644.98

 Zero-point correction=                           0.258537 (Hartree/Particle)
 Thermal correction to Energy=                    0.280358
 Thermal correction to Enthalpy=                  0.281303
 Thermal correction to Gibbs Free Energy=         0.199490
 Sum of electronic and zero-point Energies=          -1947.415380
 Sum of electronic and thermal Energies=             -1947.393558
 Sum of electronic and thermal Enthalpies=           -1947.392614
 Sum of electronic and thermal Free Energies=        -1947.474426

                     E (Thermal)             CV                S
                      KCal/Mol        Cal/Mol-Kelvin    Cal/Mol-Kelvin
 Total                  175.928             79.027            172.190
 Electronic               0.000              0.000              0.000
 Translational            0.889              2.981             43.586
 Rotational               0.889              2.981             36.592
 Vibrational            174.150             73.065             92.012
 Vibration     1          0.593              1.987              9.349
 Vibration     2          0.593              1.987              7.744
 Vibration     3          0.593              1.986              6.810
 Vibration     4          0.593              1.985              6.172
 Vibration     5          0.593              1.984              6.039
 Vibration     6          0.595              1.980              5.050
 Vibration     7          0.597              1.972              4.347
 Vibration     8          0.598              1.968              4.151
 Vibration     9          0.599              1.965              3.996
 Vibration    10          0.603              1.951              3.493
 Vibration    11          0.604              1.948              3.426
 Vibration    12          0.625              1.881              2.452
 Vibration    13          0.637              1.841              2.143
 Vibration    14          0.645              1.817              1.992
 Vibration    15          0.646              1.814              1.975
 Vibration    16          0.657              1.781              1.809
 Vibration    17          0.669              1.744              1.656
 Vibration    18          0.690              1.682              1.441
 Vibration    19          0.693              1.672              1.413
 Vibration    20          0.720              1.595              1.210
 Vibration    21          0.726              1.579              1.174
 Vibration    22          0.749              1.517              1.046
 Vibration    23          0.755              1.500              1.015
 Vibration    24          0.777              1.443              0.917
 Vibration    25          0.783              1.426              0.890
 Vibration    26          0.783              1.425              0.889
 Vibration    27          0.792              1.402              0.855
 Vibration    28          0.816              1.344              0.773
 Vibration    29          0.871              1.215              0.620
 Vibration    30          0.894              1.163              0.567
 Vibration    31          0.971              1.007              0.430
 Vibration    32          0.977              0.996              0.421

 Optimization completed.
    -- Stationary point found.
 Normal termination of Gaussian 16 at Sat Aug 22 17:17:08 2020.
 Gaussian 16:  ES64L-G16RevA.03 25-Dec-2016

 ----------------------------------------------------------------------
 # TD(NStates=10, Root=1) B3LYP/6-31G* scf=qc volume pop=NPA density=cu
 rrent Geom=AllCheck Guess=Read
 ----------------------------------------------------------------------

 Structure from the checkpoint file:  "azadicarboxylate_3_conf273.chk"
 -------------------
 Title Card Required
 -------------------
 Charge =  0 Multiplicity = 1

                         Standard orientation:
 ---------------------------------------------------------------------
 Center     Atomic      Atomic             Coordinates (Angstroms)
 Number     Number       Type             X           Y           Z
 ---------------------------------------------------------------------
      1          6           0       -4.304157    1.347190    0.257212
      2          6           0       -3.123351    2.267759    0.410821
      3          8           0       -1.873261    1.522531    0.591820
      4          6           0       -1.216640    1.199437   -0.519282
      5          8           0       -1.517058    1.441324   -1.662222
      6          7           0        0.056331    0.588104   -0.197220
      7          7           0       -0.056364   -0.587932    0.197320
      8          6           0        1.216603   -1.199267    0.519381
      9          8           0        1.517056   -1.441102    1.662322
     10          8           0        1.873183   -1.522436   -0.591727
     11          6           0        3.123243   -2.267697   -0.410725
     12          6           0        4.304091   -1.347166   -0.257182
     13          6           0        4.994070   -0.889104   -1.386069
     14          6           0        6.085042   -0.030901   -1.261316
     15          6           0        6.485854    0.369922    0.012850
     16          6           0        5.815350   -0.070527    1.153687
     17          6           0        4.725461   -0.927687    1.011511
     18         17           0        7.863920    1.446957    0.183524
     19          6           0       -4.725289    0.927494   -1.011491
     20          6           0       -5.815116    0.070263   -1.153721
     21          6           0       -6.485797   -0.370039   -0.012931
     22          6           0       -6.085228    0.031004    1.261242
     23          6           0       -4.994317    0.889276    1.386049
     24         17           0       -7.863787   -1.447158   -0.183676
     25          1           0       -3.195146    2.864773    1.321195
     26          1           0       -3.003754    2.923075   -0.453936
     27          1           0        3.194997   -2.864759   -1.321073
     28          1           0        3.003650   -2.922974    0.454063
     29          1           0        4.677959   -1.205557   -2.377024
     30          1           0        6.619652    0.321004   -2.136955
     31          1           0        6.142627    0.252317    2.136110
     32          1           0        4.188998   -1.266086    1.892696
     33          1           0       -4.188680    1.265771   -1.892632
     34          1           0       -6.142211   -0.252746   -2.136150
     35          1           0       -6.619980   -0.320782    2.136843
     36          1           0       -4.678401    1.205910    2.377009
 ---------------------------------------------------------------------

 SCF Done:  E(RB3LYP) =  -1947.67391629     a.u. after    1 cycles

 Excitation energies and oscillator strengths:

 Excited State   1:      Singlet-A      2.9341 eV  422.56 nm  f=0.0000  <S**2>=0.000
      92 -> 95         0.51588
      94 -> 95         0.47505
 This state for optimization and/or second-order correction.
 Total Energy, E(TD-HF/TD-DFT) =  -1947.56608961
 Copying the excited state density for this state as the 1-particle RhoCI density.

 Excited State   2:      Singlet-A      3.9540 eV  313.56 nm  f=0.0312  <S**2>=0.000
      93 -> 95         0.70577

 Excited State   3:      Singlet-A      3.9850 eV  311.12 nm  f=0.0000  <S**2>=0.000
      92 -> 95        -0.47249
      94 -> 95         0.52211

 Excited State   4:      Singlet-A      4.4017 eV  281.67 nm  f=0.0000  <S**2>=0.000
      91 -> 95         0.70557

 Excited State   5:      Singlet-A      4.4022 eV  281.64 nm  f=0.0017  <S**2>=0.000
      90 -> 95         0.70574

 Excited State   6:      Singlet-A      5.0281 eV  246.58 nm  f=0.1371  <S**2>=0.000
      89 -> 95         0.68201

 Excited State   7:      Singlet-A      5.0912 eV  243.52 nm  f=0.0000  <S**2>=0.000
      84 -> 95         0.15696
      86 -> 95         0.57739
      88 -> 95         0.35042

 Excited State   8:      Singlet-A      5.2491 eV  236.20 nm  f=0.0007  <S**2>=0.000
      90 -> 96        -0.11154
      90 -> 97         0.29914
      91 -> 96         0.30480
      92 -> 98         0.13776
      93 -> 98        -0.12292
      93 -> 99         0.34876
      94 -> 98        -0.34584
      94 -> 99         0.11684

 Excited State   9:      Singlet-A      5.2491 eV  236.20 nm  f=0.0001  <S**2>=0.000
      90 -> 96         0.30470
      91 -> 96         0.11142
      91 -> 97         0.29903
      92 -> 99         0.13720
      93 -> 98         0.34967
      93 -> 99         0.12260
      94 -> 98        -0.11707
      94 -> 99        -0.34522

 Excited State  10:      Singlet-A      5.4284 eV  228.40 nm  f=0.0098  <S**2>=0.000
      85 -> 95         0.68961

 The electronic state is 1-A.
 Alpha  occ. eigenvalues -- -101.55411-101.55411 -19.22039 -19.22039 -19.16451
 Alpha  occ. eigenvalues --  -19.16451 -14.42951 -14.42901 -10.35984 -10.35983
 Alpha  occ. eigenvalues --  -10.26825 -10.26825 -10.26324 -10.26324 -10.21674
 Alpha  occ. eigenvalues --  -10.21674 -10.21406 -10.21406 -10.21321 -10.21321
 Alpha  occ. eigenvalues --  -10.21232 -10.21232 -10.21066 -10.21065  -9.47044
 Alpha  occ. eigenvalues --   -9.47044  -7.23439  -7.23439  -7.22473  -7.22473
 Alpha  occ. eigenvalues --   -7.22436  -7.22436  -1.14526  -1.13285  -1.06334
 Alpha  occ. eigenvalues --   -1.04713  -1.04337  -0.89921  -0.89910  -0.85303
 Alpha  occ. eigenvalues --   -0.85126  -0.81318  -0.78336  -0.76852  -0.76848
 Alpha  occ. eigenvalues --   -0.76392  -0.71410  -0.69775  -0.63398  -0.63398
 Alpha  occ. eigenvalues --   -0.62590  -0.60811  -0.59577  -0.57464  -0.56333
 Alpha  occ. eigenvalues --   -0.53272  -0.52805  -0.51180  -0.50648  -0.50008
 Alpha  occ. eigenvalues --   -0.48988  -0.48852  -0.48150  -0.47926  -0.46429
 Alpha  occ. eigenvalues --   -0.45729  -0.44801  -0.44521  -0.44013  -0.43683
 Alpha  occ. eigenvalues --   -0.42064  -0.41686  -0.41062  -0.40274  -0.40089
 Alpha  occ. eigenvalues --   -0.38976  -0.38702  -0.37951  -0.37943  -0.36415
 Alpha  occ. eigenvalues --   -0.36413  -0.33941  -0.33861  -0.32895  -0.32524
 Alpha  occ. eigenvalues --   -0.32028  -0.31808  -0.31729  -0.31028  -0.27173
 Alpha  occ. eigenvalues --   -0.27172  -0.26289  -0.25495  -0.25141
 Alpha virt. eigenvalues --   -0.09088  -0.03182  -0.03051  -0.02185  -0.02180
 Alpha virt. eigenvalues --    0.00064   0.00144   0.02402   0.02415   0.09693
 Alpha virt. eigenvalues --    0.09706   0.10822   0.10977   0.11938   0.11977

 Mulliken charges:
               1
     1  C    0.150336
     2  C   -0.156240
     3  O   -0.407894
     4  C    0.737494
     5  O   -0.421103
     6  N   -0.235060
     7  N   -0.235059
     8  C    0.737490
     9  O   -0.421095
    10  O   -0.407894
    11  C   -0.156238
    12  C    0.150332
    13  C   -0.164106
    14  C   -0.128193
    15  C   -0.062348
    16  C   -0.129305
    17  C   -0.170922
    18  Cl  -0.014299
    19  C   -0.170929
    20  C   -0.129305
    21  C   -0.062348
    22  C   -0.128192
    23  C   -0.164110
    24  Cl  -0.014300
    25  H    0.174297
    26  H    0.186416
    27  H    0.174298
    28  H    0.186413
    29  H    0.146231
    30  H    0.161215
    31  H    0.162707
    32  H    0.170775
    33  H    0.170785
    34  H    0.162707
    35  H    0.161215
    36  H    0.146227
 Sum of Mulliken charges =  -0.00000

 Dipole moment (field-independent basis, Debye):
    X=             -0.0001    Y=             -0.0001    Z=              0.0001  Tot=              0.0002
 Quadrupole moment (field-independent basis, Debye-Ang):
   XX=           -154.3437   YY=           -142.1351   ZZ=           -144.1085
   XY=            -17.3138   XZ=             -8.5080   YZ=              5.9702

 Summary of Natural Population Analysis:

                                       Natural Population
                Natural  -----------------------------------------------
    Atom  No    Charge         Core      Valence    Rydberg      Total
 -----------------------------------------------------------------------
      C    1   -0.09406      1.99901     4.08072    0.01433     6.09406
      C    2   -0.12421      1.99912     4.10576    0.01933     6.12421
      O    3   -0.52175      1.99973     6.50975    0.01227     8.52175
      C    4    0.91916      1.99950     3.03105    0.05029     5.08084
      O    5   -0.55586      1.99977     6.53539    0.02070     8.55586
      N    6   -0.21025      1.99938     5.18460    0.02627     7.21025
      N    7   -0.21025      1.99938     5.18460    0.02627     7.21025
      C    8    0.91916      1.99950     3.03105    0.05029     5.08084
      O    9   -0.55585      1.99977     6.53538    0.02070     8.55585
      O   10   -0.52176      1.99973     6.50975    0.01227     8.52176
      C   11   -0.12421      1.99912     4.10576    0.01933     6.12421
      C   12   -0.09406      1.99901     4.08072    0.01433     6.09406
      C   13   -0.19904      1.99903     4.18691    0.01310     6.19904
      C   14   -0.24340      1.99893     4.22956    0.01491     6.24340
      C   15   -0.03563      1.99856     4.01532    0.02175     6.03563
      C   16   -0.24214      1.99894     4.22828    0.01492     6.24214
      C   17   -0.19887      1.99903     4.18651    0.01332     6.19887
     Cl   18    0.00238      9.99967     6.97866    0.01929    16.99762
      C   19   -0.19887      1.99903     4.18652    0.01332     6.19887
      C   20   -0.24214      1.99894     4.22828    0.01492     6.24214
      C   21   -0.03563      1.99856     4.01532    0.02175     6.03563
      C   22   -0.24340      1.99893     4.22956    0.01491     6.24340
      C   23   -0.19904      1.99903     4.18691    0.01310     6.19904
     Cl   24    0.00238      9.99967     6.97866    0.01929    16.99762
      H   25    0.24389      0.00000     0.75500    0.00111     0.75611
      H   26    0.24364      0.00000     0.75420    0.00217     0.75636
      H   27    0.24390      0.00000     0.75499    0.00111     0.75610
      H   28    0.24363      0.00000     0.75420    0.00217     0.75637
      H   29    0.24394      0.00000     0.75506    0.00100     0.75606
      H   30    0.25654      0.00000     0.74245    0.00101     0.74346
      H   31    0.25719      0.00000     0.74181    0.00100     0.74281
      H   32    0.25847      0.00000     0.74021    0.00132     0.74153
      H   33    0.25848      0.00000     0.74020    0.00132     0.74152
      H   34    0.25719      0.00000     0.74181    0.00100     0.74281
      H   35    0.25654      0.00000     0.74245    0.00101     0.74346
      H   36    0.24394      0.00000     0.75506    0.00100     0.75606
 =======================================================================
   * Total *    0.00000     63.98134   123.52244    0.49622   188.00000

 Normal termination of Gaussian 16 at Sat Aug 22 17:27:40 2020.
