 Gaussian 16, Revision A.03,

 ---------------------------------
 # opt=CalcAll B3LYP/6-31G* scf=qc
 ---------------------------------

 -------------------
 Title Card Required
 -------------------
 Symbolic Z-matrix:
 Charge =  0 Multiplicity = 1

 SCF Done:  E(RB3LYP) =  -1028.45841404     a.u. after   10 cycles
 SCF Done:  E(RB3LYP) =  -1028.47629570     a.u. after   23 cycles
 SCF Done:  E(RB3LYP) =  -1028.47848205     a.u. after   17 cycles
 SCF Done:  E(RB3LYP) =  -1028.47975860     a.u. after   19 cycles
 SCF Done:  E(RB3LYP) =  -1028.48030362     a.u. after   19 cycles
 SCF Done:  E(RB3LYP) =  -1028.48195772     a.u. after   15 cycles
 SCF Done:  E(RB3LYP) =  -1028.48256887     a.u. after   19 cycles
 SCF Done:  E(RB3LYP) =  -1028.48261248     a.u. after   15 cycles
 SCF Done:  E(RB3LYP) =  -1028.48263899     a.u. after   11 cycles
 SCF Done:  E(RB3LYP) =  -1028.48263911     a.u. after    5 cycles
 SCF Done:  E(RB3LYP) =  -1028.48263912     a.u. after    2 cycles
 Optimization completed.
    -- Stationary point found.
 Normal termination of Gaussian 16 at Sat Aug 22 16:09:17 2020.

 ----------------------------------------------------------------------
 # freq B3LYP/6-31G* scf=qc volume NMR pop=NPA density=current Geom=All
 Check Guess=Read
 ----------------------------------------------------------------------

 Structure from the checkpoint file:  "azadicarboxylate_4_conf12.chk"
 -------------------
 Title Card Required
 -------------------
 Charge =  0 Multiplicity = 1

 SCF Done:  E(RB3LYP) =  -1028.48263912     a.u. after    1 cycles

      1  C    Isotropic =    62.1504   Anisotropy =   173.4046

      2  C    Isotropic =   120.6038   Anisotropy =    39.0975

      3  O    Isotropic =   140.7799   Anisotropy =   142.6509

      4  C    Isotropic =    34.7610   Anisotropy =    85.7245

      5  O    Isotropic =   -20.4198   Anisotropy =   495.1975

      6  N    Isotropic =  -320.5341   Anisotropy =   672.0975

      7  N    Isotropic =  -325.9139   Anisotropy =   678.8575

      8  C    Isotropic =    34.4127   Anisotropy =    75.1248

      9  O    Isotropic =   -18.7339   Anisotropy =   492.8985

     10  O    Isotropic =   141.6028   Anisotropy =   139.9492

     11  C    Isotropic =   120.7953   Anisotropy =    39.6566

     12  C    Isotropic =    62.1524   Anisotropy =   173.4263

     13  C    Isotropic =    65.1209   Anisotropy =   156.3883

     14  C    Isotropic =    68.2302   Anisotropy =   165.7703

     15  C    Isotropic =    66.9490   Anisotropy =   171.1092

     16  C    Isotropic =    67.6564   Anisotropy =   167.0153

     17  C    Isotropic =    63.9237   Anisotropy =   162.0378

     18  C    Isotropic =    65.1110   Anisotropy =   156.4443

     19  C    Isotropic =    68.3172   Anisotropy =   165.8030

     20  C    Isotropic =    67.0000   Anisotropy =   171.1406

     21  C    Isotropic =    67.7334   Anisotropy =   167.0992

     22  C    Isotropic =    64.0176   Anisotropy =   162.9066

     23  H    Isotropic =    27.5999   Anisotropy =     5.3401

     24  H    Isotropic =    26.4320   Anisotropy =     2.7667

     25  H    Isotropic =    26.3854   Anisotropy =     2.5868

     26  H    Isotropic =    27.6746   Anisotropy =     5.6006

     27  H    Isotropic =    24.9010   Anisotropy =     6.6474

     28  H    Isotropic =    24.9301   Anisotropy =     4.5145

     29  H    Isotropic =    24.9138   Anisotropy =     4.2286

     30  H    Isotropic =    24.8806   Anisotropy =     4.8543

     31  H    Isotropic =    24.3236   Anisotropy =     7.4244

     32  H    Isotropic =    24.9394   Anisotropy =     6.6916

     33  H    Isotropic =    24.9702   Anisotropy =     4.4399

     34  H    Isotropic =    24.9611   Anisotropy =     4.1327

     35  H    Isotropic =    24.9494   Anisotropy =     4.8766

     36  H    Isotropic =    24.4239   Anisotropy =     7.6318

  Exact polarizability: 179.711 -10.777 185.729   3.388   2.951 183.399
 Approx polarizability: 205.321 -20.116 296.002   0.903   8.694 342.396

                      1                      2                      3
                      A                      A                      A
 Frequencies --      7.4144                15.2281                24.0804
 Red. masses --      5.2649                 5.5819                 3.9752
 Frc consts  --      0.0002                 0.0008                 0.0014
 IR Inten    --      0.6537                 0.0981                 0.0762

                      4                      5                      6
                      A                      A                      A
 Frequencies --     25.8935                37.2694                47.1251
 Red. masses --      4.6508                 7.6067                 8.7641
 Frc consts  --      0.0018                 0.0062                 0.0115
 IR Inten    --      0.4649                 0.1217                 0.5675

                      7                      8                      9
                      A                      A                      A
 Frequencies --     62.9742                70.7231                84.5629
 Red. masses --      7.9398                 7.3114                 5.8245
 Frc consts  --      0.0186                 0.0215                 0.0245
 IR Inten    --      2.2753                 0.4733                 2.8745

                     10                     11                     12
                      A                      A                      A
 Frequencies --    131.3715               157.7452               198.8590
 Red. masses --      7.8087                 6.4996                 6.5352
 Frc consts  --      0.0794                 0.0953                 0.1523
 IR Inten    --      0.6967                 0.3037                 0.2138

                     13                     14                     15
                      A                      A                      A
 Frequencies --    223.2496               237.2696               252.2315
 Red. masses --      8.3262                 7.1064                 8.3793
 Frc consts  --      0.2445                 0.2357                 0.3141
 IR Inten    --      1.0797                15.7154                 4.6342

                     16                     17                     18
                      A                      A                      A
 Frequencies --    316.2412               349.0571               362.3277
 Red. masses --      5.6681                 5.3128                 2.4488
 Frc consts  --      0.3340                 0.3814                 0.1894
 IR Inten    --      2.2427                 3.4106                 0.0379

                     19                     20                     21
                      A                      A                      A
 Frequencies --    372.6245               416.9893               417.0155
 Red. masses --      2.1863                 2.9663                 2.9679
 Frc consts  --      0.1789                 0.3039                 0.3041
 IR Inten    --     20.2580                 0.0923                 0.0301

                     22                     23                     24
                      A                      A                      A
 Frequencies --    437.9455               481.5944               505.2785
 Red. masses --      5.7591                 4.1570                 4.5239
 Frc consts  --      0.6508                 0.5681                 0.6805
 IR Inten    --      0.2194                 5.0442                 1.1492

                     25                     26                     27
                      A                      A                      A
 Frequencies --    570.7684               586.4097               616.3447
 Red. masses --      6.4993                 7.7455                 4.8834
 Frc consts  --      1.2475                 1.5693                 1.0930
 IR Inten    --     10.6798                16.0444                23.2568

                     28                     29                     30
                      A                      A                      A
 Frequencies --    635.4993               635.6757               640.4668
 Red. masses --      6.2965                 6.2985                 8.8427
 Frc consts  --      1.4982                 1.4995                 2.1371
 IR Inten    --      0.1532                 0.4094                23.1462

                     31                     32                     33
                      A                      A                      A
 Frequencies --    648.9630               713.4569               713.8235
 Red. masses --      5.4468                 1.8380                 1.7720
 Frc consts  --      1.3515                 0.5512                 0.5320
 IR Inten    --      1.0560                 7.3253                59.4466

                     34                     35                     36
                      A                      A                      A
 Frequencies --    771.2395               774.5494               810.5514
 Red. masses --      2.0342                 2.1286                10.6921
 Frc consts  --      0.7129                 0.7524                 4.1388
 IR Inten    --      2.6211                62.6767                28.4560

                     37                     38                     39
                      A                      A                      A
 Frequencies --    827.8026               839.2734               839.8651
 Red. masses --      5.0939                 3.8766                 3.8261
 Frc consts  --      2.0566                 1.6088                 1.5901
 IR Inten    --      0.4511                11.0733                13.8463

                     40                     41                     42
                      A                      A                      A
 Frequencies --    863.5784               863.9945               879.6795
 Red. masses --      1.2473                 1.2472                 4.8134
 Frc consts  --      0.5480                 0.5486                 2.1946
 IR Inten    --      0.2100                 0.4128                77.9041

                     43                     44                     45
                      A                      A                      A
 Frequencies --    906.8919               939.6123               943.1021
 Red. masses --      5.5008                 1.4837                 1.5733
 Frc consts  --      2.6655                 0.7718                 0.8245
 IR Inten    --      5.3461                17.0572                 0.3647

                     46                     47                     48
                      A                      A                      A
 Frequencies --    973.8818               974.0583               976.9392
 Red. masses --      1.3622                 1.3603                 4.2327
 Frc consts  --      0.7612                 0.7604                 2.3801
 IR Inten    --      0.4268                 0.2885               153.7591

                     49                     50                     51
                      A                      A                      A
 Frequencies --    988.6255              1002.2764              1002.5233
 Red. masses --      3.6368                 1.2780                 1.2773
 Frc consts  --      2.0943                 0.7564                 0.7563
 IR Inten    --      6.2874                 0.1325                 0.0844

                     52                     53                     54
                      A                      A                      A
 Frequencies --   1018.8431              1019.1852              1021.7199
 Red. masses --      3.7662                 4.6653                 3.4606
 Frc consts  --      2.3034                 2.8552                 2.1284
 IR Inten    --     11.3986                 3.7981                 8.2429

                     55                     56                     57
                      A                      A                      A
 Frequencies --   1022.7436              1058.8998              1059.0362
 Red. masses --      3.2081                 2.2332                 2.2315
 Frc consts  --      1.9771                 1.4753                 1.4746
 IR Inten    --      8.0854                 1.0326                 0.9266

                     58                     59                     60
                      A                      A                      A
 Frequencies --   1123.5108              1123.6817              1194.8427
 Red. masses --      1.5184                 1.5186                 1.1024
 Frc consts  --      1.1293                 1.1298                 0.9273
 IR Inten    --      0.3870                 3.3046                 0.0082

                     61                     62                     63
                      A                      A                      A
 Frequencies --   1194.8540              1215.7509              1216.2838
 Red. masses --      1.1025                 1.1517                 1.1420
 Frc consts  --      0.9274                 1.0029                 0.9954
 IR Inten    --      0.0065                34.3512                 0.7161

                     64                     65                     66
                      A                      A                      A
 Frequencies --   1239.9027              1240.2729              1247.3063
 Red. masses --      3.2140                 2.9750                 3.7415
 Frc consts  --      2.9112                 2.6964                 3.4296
 IR Inten    --     94.9577                22.4723              1141.3353

                     67                     68                     69
                      A                      A                      A
 Frequencies --   1258.7277              1297.8334              1299.8128
 Red. masses --      3.6230                 1.4704                 1.5518
 Frc consts  --      3.3821                 1.4592                 1.5447
 IR Inten    --     90.2255               140.6928                26.3471

                     70                     71                     72
                      A                      A                      A
 Frequencies --   1364.8733              1365.1928              1375.2550
 Red. masses --      4.2038                 4.1362                 1.2663
 Frc consts  --      4.6139                 4.5419                 1.4111
 IR Inten    --      2.5771                 2.8482                 3.8219

                     73                     74                     75
                      A                      A                      A
 Frequencies --   1375.5377              1416.0600              1417.8641
 Red. masses --      1.2679                 1.3552                 1.3611
 Frc consts  --      1.4135                 1.6011                 1.6121
 IR Inten    --      2.3359                22.1404                24.7778

                     76                     77                     78
                      A                      A                      A
 Frequencies --   1504.7371              1504.9084              1516.9276
 Red. masses --      2.1976                 2.1996                 1.1174
 Frc consts  --      2.9317                 2.9351                 1.5150
 IR Inten    --      6.5620                 7.4291                12.8576

                     79                     80                     81
                      A                      A                      A
 Frequencies --   1518.7179              1547.8988              1548.0491
 Red. masses --      1.1185                 2.2093                 2.2116
 Frc consts  --      1.5200                 3.1188                 3.1227
 IR Inten    --     11.3609                 4.6638                 4.5132

                     82                     83                     84
                      A                      A                      A
 Frequencies --   1646.2318              1646.5142              1650.9021
 Red. masses --      5.4976                 5.5055                13.9386
 Frc consts  --      8.7782                 8.7938                22.3826
 IR Inten    --      0.8326                 0.7809                 0.4062

                     85                     86                     87
                      A                      A                      A
 Frequencies --   1666.0693              1666.1389              1832.2793
 Red. masses --      5.5111                 5.5107                12.1669
 Frc consts  --      9.0132                 9.0133                24.0665
 IR Inten    --      0.2408                 0.8263                15.8253

                     88                     89                     90
                      A                      A                      A
 Frequencies --   1845.8898              3107.3237              3111.0366
 Red. masses --     12.1295                 1.0575                 1.0577
 Frc consts  --     24.3503                 6.0161                 6.0314
 IR Inten    --    462.9048                23.2082                21.6587

                     91                     92                     93
                      A                      A                      A
 Frequencies --   3165.1811              3168.4625              3179.8131
 Red. masses --      1.1108                 1.1107                 1.0866
 Frc consts  --      6.5565                 6.5696                 6.4730
 IR Inten    --      4.4894                 3.8676                 4.5307

                     94                     95                     96
                      A                      A                      A
 Frequencies --   3179.8728              3187.5617              3187.6435
 Red. masses --      1.0864                 1.0878                 1.0877
 Frc consts  --      6.4724                 6.5118                 6.5121
 IR Inten    --      4.3755                 2.6212                 2.6808

                     97                     98                     99
                      A                      A                      A
 Frequencies --   3198.0946              3198.1406              3207.6982
 Red. masses --      1.0914                 1.0914                 1.0948
 Frc consts  --      6.5769                 6.5769                 6.6369
 IR Inten    --     16.9159                27.6502                23.3174

                    100                    101                    102
                      A                      A                      A
 Frequencies --   3207.7769              3215.2471              3215.3631
 Red. masses --      1.0948                 1.0965                 1.0964
 Frc consts  --      6.6376                 6.6785                 6.6782
 IR Inten    --     23.7959                 7.9409                 7.4531

 - Thermochemistry -
 -------------------
 Temperature   298.150 Kelvin.  Pressure   1.00000 Atm.
 Atom     1 has atomic number  6 and mass  12.00000

 Molecular mass:   298.09536 amu.
 Principal axes and moments of inertia in atomic units:
                           1         2         3
     Eigenvalues --  3736.46986********************
           X            1.00000   0.00068   0.00214
           Y           -0.00068   1.00000  -0.00092
           Z           -0.00214   0.00092   1.00000
 This molecule is an asymmetric top.
 Rotational symmetry number  1.
 Warning -- assumption of classical behavior for rotation
           may cause significant error
 Rotational temperatures (Kelvin)      0.02318     0.00503     0.00459
 Rotational constants (GHZ):           0.48301     0.10490     0.09572
 Zero-point vibrational energy     729527.0 (Joules/Mol)
                                  174.36114 (Kcal/Mol)
 Warning -- explicit consideration of  27 degrees of freedom as
           vibrations may cause significant error
 Vibrational temperatures:     10.67    21.91    34.65    37.25    53.62
          (Kelvin)             67.80    90.61   101.75   121.67   189.01
                              226.96   286.11   321.21   341.38   362.90
                              455.00   502.22   521.31   536.12   599.95
                              599.99   630.11   692.91   726.98   821.21
                              843.71   886.78   914.34   914.60   921.49
                              933.71  1026.51  1027.03  1109.64  1114.40
                             1166.20  1191.02  1207.53  1208.38  1242.50
                             1243.10  1265.66  1304.82  1351.89  1356.91
                             1401.20  1401.45  1405.60  1422.41  1442.05
                             1442.41  1465.89  1466.38  1470.03  1471.50
                             1523.52  1523.72  1616.48  1616.73  1719.11
                             1719.13  1749.19  1749.96  1783.94  1784.48
                             1794.60  1811.03  1867.29  1870.14  1963.75
                             1964.21  1978.69  1979.09  2037.39  2039.99
                             2164.98  2165.23  2182.52  2185.10  2227.08
                             2227.30  2368.56  2368.97  2375.28  2397.10
                             2397.20  2636.24  2655.82  4470.75  4476.09
                             4553.99  4558.71  4575.04  4575.13  4586.19
                             4586.31  4601.34  4601.41  4615.16  4615.28
                             4626.02  4626.19

 Zero-point correction=                           0.277862 (Hartree/Particle)
 Thermal correction to Energy=                    0.297280
 Thermal correction to Enthalpy=                  0.298224
 Thermal correction to Gibbs Free Energy=         0.223000
 Sum of electronic and zero-point Energies=          -1028.204777
 Sum of electronic and thermal Energies=             -1028.185359
 Sum of electronic and thermal Enthalpies=           -1028.184415
 Sum of electronic and thermal Free Energies=        -1028.259639

                     E (Thermal)             CV                S
                      KCal/Mol        Cal/Mol-Kelvin    Cal/Mol-Kelvin
 Total                  186.546             71.308            158.323
 Electronic               0.000              0.000              0.000
 Translational            0.889              2.981             42.974
 Rotational               0.889              2.981             35.448
 Vibrational            184.768             65.346             79.901
 Vibration     1          0.593              1.987              8.605
 Vibration     2          0.593              1.986              7.176
 Vibration     3          0.593              1.985              6.266
 Vibration     4          0.593              1.985              6.122
 Vibration     5          0.594              1.982              5.399
 Vibration     6          0.595              1.979              4.935
 Vibration     7          0.597              1.972              4.362
 Vibration     8          0.598              1.968              4.133
 Vibration     9          0.601              1.960              3.782
 Vibration    10          0.612              1.922              2.926
 Vibration    11          0.621              1.894              2.577
 Vibration    12          0.637              1.841              2.144
 Vibration    13          0.649              1.806              1.933
 Vibration    14          0.656              1.784              1.823
 Vibration    15          0.664              1.759              1.715
 Vibration    16          0.703              1.643              1.329
 Vibration    17          0.726              1.577              1.170
 Vibration    18          0.736              1.550              1.112
 Vibration    19          0.744              1.528              1.069
 Vibration    20          0.780              1.433              0.902
 Vibration    21          0.780              1.433              0.902
 Vibration    22          0.798              1.387              0.833
 Vibration    23          0.838              1.291              0.706
 Vibration    24          0.861              1.238              0.645
 Vibration    25          0.927              1.094              0.503
 Vibration    26          0.943              1.061              0.474
 Vibration    27          0.976              0.997              0.422

 Optimization completed.
    -- Stationary point found.
 Normal termination of Gaussian 16 at Sat Aug 22 16:18:40 2020.
 Gaussian 16:  ES64L-G16RevA.03 25-Dec-2016

 ----------------------------------------------------------------------
 # TD(NStates=10, Root=1) B3LYP/6-31G* scf=qc volume pop=NPA density=cu
 rrent Geom=AllCheck Guess=Read
 ----------------------------------------------------------------------

 Structure from the checkpoint file:  "azadicarboxylate_4_conf13.chk"
 -------------------
 Title Card Required
 -------------------
 Charge =  0 Multiplicity = 1

                         Standard orientation:
 ---------------------------------------------------------------------
 Center     Atomic      Atomic             Coordinates (Angstroms)
 Number     Number       Type             X           Y           Z
 ---------------------------------------------------------------------
      1          6           0        4.392010    0.093140    0.187302
      2          6           0        4.023926   -1.350771    0.400238
      3          8           0        2.580156   -1.518991    0.604404
      4          6           0        1.851958   -1.734020   -0.487205
      5          8           0        2.223606   -1.813307   -1.632258
      6          7           0        0.473656   -2.009730   -0.133260
      7          7           0       -0.148244   -0.992353    0.225774
      8          6           0       -1.524759   -1.267601    0.583281
      9          8           0       -1.868402   -1.342559    1.737118
     10          8           0       -2.280320   -1.309557   -0.509820
     11          6           0       -3.727470   -1.440858   -0.298314
     12          6           0       -4.395872   -0.097180   -0.183075
     13          6           0       -4.841384    0.568932   -1.331856
     14          6           0       -5.452554    1.818629   -1.234005
     15          6           0       -5.624483    2.414175    0.017284
     16          6           0       -5.182997    1.757149    1.167667
     17          6           0       -4.571261    0.507433    1.069183
     18          6           0        4.678688    0.915439    1.284160
     19          6           0        5.012928    2.256253    1.096046
     20          6           0        5.064231    2.787073   -0.194419
     21          6           0        4.779533    1.974105   -1.293562
     22          6           0        4.444510    0.633355   -1.104794
     23          1           0        4.455742   -1.744337    1.321844
     24          1           0        4.318831   -1.975654   -0.444851
     25          1           0       -3.884784   -2.053548    0.590773
     26          1           0       -4.061062   -1.982653   -1.184677
     27          1           0       -4.709107    0.104655   -2.306521
     28          1           0       -5.796511    2.325180   -2.131671
     29          1           0       -6.103108    3.386708    0.095584
     30          1           0       -5.316155    2.217216    2.143013
     31          1           0       -4.217232   -0.001663    1.960848
     32          1           0        4.639835    0.502050    2.289430
     33          1           0        5.235202    2.884594    1.954218
     34          1           0        5.327056    3.831049   -0.343011
     35          1           0        4.819375    2.383784   -2.299186
     36          1           0        4.211686    0.000986   -1.956526
 ---------------------------------------------------------------------

 SCF Done:  E(RB3LYP) =  -1028.48263912     a.u. after    1 cycles

 Excitation energies and oscillator strengths:

 Excited State   1:      Singlet-A      2.9398 eV  421.74 nm  f=0.0001  <S**2>=0.000
      74 -> 79        -0.30516
      78 -> 79         0.63003
 This state for optimization and/or second-order correction.
 Total Energy, E(TD-HF/TD-DFT) =  -1028.37460310
 Copying the excited state density for this state as the 1-particle RhoCI density.

 Excited State   2:      Singlet-A      4.1649 eV  297.69 nm  f=0.0093  <S**2>=0.000
      74 -> 79        -0.16160
      75 -> 79        -0.13988
      76 -> 79        -0.39103
      77 -> 79         0.53149
      78 -> 79        -0.12876

 Excited State   3:      Singlet-A      4.2005 eV  295.17 nm  f=0.0041  <S**2>=0.000
      75 -> 79         0.10994
      76 -> 79         0.54931
      77 -> 79         0.43018

 Excited State   4:      Singlet-A      4.2338 eV  292.84 nm  f=0.0025  <S**2>=0.000
      74 -> 79         0.55094
      75 -> 79         0.24851
      76 -> 79        -0.17301
      77 -> 79         0.17220
      78 -> 79         0.26867

 Excited State   5:      Singlet-A      4.2538 eV  291.47 nm  f=0.0013  <S**2>=0.000
      74 -> 79        -0.26339
      75 -> 79         0.63640
      76 -> 79        -0.11503
      78 -> 79        -0.10293

 Excited State   6:      Singlet-A      5.0372 eV  246.14 nm  f=0.0977  <S**2>=0.000
      72 -> 79         0.20485
      73 -> 79         0.65776

 Excited State   7:      Singlet-A      5.1577 eV  240.39 nm  f=0.0071  <S**2>=0.000
      70 -> 79         0.25601
      72 -> 79         0.60289
      73 -> 79        -0.21299

 Excited State   8:      Singlet-A      5.3856 eV  230.22 nm  f=0.0021  <S**2>=0.000
      74 -> 82        -0.25658
      75 -> 80         0.49501
      75 -> 82         0.10856
      76 -> 80        -0.18310
      76 -> 82         0.23411
      77 -> 82        -0.10506
      78 -> 82        -0.25788

 Excited State   9:      Singlet-A      5.3968 eV  229.74 nm  f=0.0199  <S**2>=0.000
      70 -> 79         0.24850
      71 -> 79         0.60856
      72 -> 79        -0.16846
      77 -> 81         0.10427

 Excited State  10:      Singlet-A      5.4013 eV  229.55 nm  f=0.0026  <S**2>=0.000
      71 -> 79        -0.13822
      74 -> 83         0.17942
      75 -> 83         0.10519
      76 -> 81         0.20937
      76 -> 83         0.29116
      77 -> 81         0.47525
      77 -> 83        -0.14224
      78 -> 83         0.23674

 The electronic state is 1-A.
 Alpha  occ. eigenvalues --  -19.21208 -19.21172 -19.15645 -19.15620 -14.42202
 Alpha  occ. eigenvalues --  -14.42147 -10.35187 -10.35187 -10.25866 -10.25865
 Alpha  occ. eigenvalues --  -10.20492 -10.20414 -10.19892 -10.19804 -10.19803
 Alpha  occ. eigenvalues --  -10.19715 -10.19695 -10.19608 -10.19601 -10.19550
 Alpha  occ. eigenvalues --  -10.19520 -10.19460  -1.13693  -1.12437  -1.05560
 Alpha  occ. eigenvalues --   -1.03890  -1.03497  -0.86313  -0.86198  -0.80964
 Alpha  occ. eigenvalues --   -0.78540  -0.76534  -0.75080  -0.74992  -0.71475
 Alpha  occ. eigenvalues --   -0.69587  -0.62236  -0.61395  -0.61284  -0.60199
 Alpha  occ. eigenvalues --   -0.58538  -0.56430  -0.55381  -0.52526  -0.52196
 Alpha  occ. eigenvalues --   -0.50706  -0.49852  -0.48826  -0.48062  -0.47381
 Alpha  occ. eigenvalues --   -0.46777  -0.46668  -0.45165  -0.44091  -0.43069
 Alpha  occ. eigenvalues --   -0.43003  -0.42357  -0.42351  -0.41013  -0.40778
 Alpha  occ. eigenvalues --   -0.39743  -0.37858  -0.37783  -0.36577  -0.36449
 Alpha  occ. eigenvalues --   -0.36094  -0.35946  -0.34585  -0.34511  -0.31932
 Alpha  occ. eigenvalues --   -0.31638  -0.31181  -0.30198  -0.26103  -0.25652
 Alpha  occ. eigenvalues --   -0.25599  -0.25535  -0.24672
 Alpha virt. eigenvalues --   -0.08216  -0.01930  -0.01716  -0.00707  -0.00609
 Alpha virt. eigenvalues --    0.00874   0.00989   0.08983   0.09036   0.11205
 Alpha virt. eigenvalues --    0.11302   0.12173   0.12468   0.13150   0.13209

 Mulliken charges:
               1
     1  C    0.150321
     2  C   -0.155950
     3  O   -0.409117
     4  C    0.736496
     5  O   -0.425162
     6  N   -0.242262
     7  N   -0.234409
     8  C    0.735917
     9  O   -0.416992
    10  O   -0.406851
    11  C   -0.156360
    12  C    0.150036
    13  C   -0.166993
    14  C   -0.128571
    15  C   -0.123231
    16  C   -0.129542
    17  C   -0.175428
    18  C   -0.167053
    19  C   -0.128611
    20  C   -0.123645
    21  C   -0.129645
    22  C   -0.174625
    23  H    0.170162
    24  H    0.183512
    25  H    0.184487
    26  H    0.170802
    27  H    0.136273
    28  H    0.136746
    29  H    0.136639
    30  H    0.138548
    31  H    0.160657
    32  H    0.134927
    33  H    0.135588
    34  H    0.135340
    35  H    0.137398
    36  H    0.160598
 Sum of Mulliken charges =   0.00000

 Dipole moment (field-independent basis, Debye):
    X=             -0.4514    Y=              1.7953    Z=              0.0149  Tot=              1.8512
 Quadrupole moment (field-independent basis, Debye-Ang):
   XX=            -97.4674   YY=           -116.0376   ZZ=           -123.5033
   XY=              0.0799   XZ=              7.9102   YZ=             -0.7614

 Summary of Natural Population Analysis:

                                       Natural Population
                Natural  -----------------------------------------------
    Atom  No    Charge         Core      Valence    Rydberg      Total
 -----------------------------------------------------------------------
      C    1   -0.09127      1.99901     4.07776    0.01450     6.09127
      C    2   -0.12342      1.99912     4.10518    0.01912     6.12342
      O    3   -0.52298      1.99973     6.51098    0.01228     8.52298
      C    4    0.91862      1.99950     3.03156    0.05032     5.08138
      O    5   -0.55921      1.99977     6.53878    0.02066     8.55921
      N    6   -0.21743      1.99938     5.19163    0.02641     7.21743
      N    7   -0.21244      1.99938     5.18688    0.02618     7.21244
      C    8    0.92284      1.99950     3.02710    0.05055     5.07716
      O    9   -0.55197      1.99977     6.53157    0.02064     8.55197
      O   10   -0.52048      1.99973     6.50840    0.01235     8.52048
      C   11   -0.12515      1.99912     4.10703    0.01900     6.12515
      C   12   -0.09157      1.99901     4.07803    0.01454     6.09157
      C   13   -0.21102      1.99903     4.19881    0.01318     6.21102
      C   14   -0.23028      1.99910     4.21734    0.01384     6.23028
      C   15   -0.22132      1.99910     4.20875    0.01347     6.22132
      C   16   -0.22924      1.99910     4.21628    0.01386     6.22924
      C   17   -0.21137      1.99903     4.19895    0.01339     6.21137
      C   18   -0.21173      1.99903     4.19953    0.01317     6.21173
      C   19   -0.23057      1.99910     4.21764    0.01383     6.23057
      C   20   -0.22282      1.99910     4.21025    0.01347     6.22282
      C   21   -0.22911      1.99910     4.21618    0.01383     6.22911
      C   22   -0.21170      1.99903     4.19931    0.01335     6.21170
      H   23    0.24136      0.00000     0.75750    0.00114     0.75864
      H   24    0.24197      0.00000     0.75581    0.00222     0.75803
      H   25    0.24277      0.00000     0.75508    0.00215     0.75723
      H   26    0.24180      0.00000     0.75701    0.00119     0.75820
      H   27    0.23770      0.00000     0.76124    0.00106     0.76230
      H   28    0.23994      0.00000     0.75922    0.00084     0.76006
      H   29    0.23907      0.00000     0.76011    0.00082     0.76093
      H   30    0.24080      0.00000     0.75837    0.00083     0.75920
      H   31    0.25146      0.00000     0.74713    0.00141     0.74854
      H   32    0.23698      0.00000     0.76196    0.00106     0.76302
      H   33    0.23936      0.00000     0.75979    0.00085     0.76064
      H   34    0.23847      0.00000     0.76070    0.00082     0.76153
      H   35    0.24019      0.00000     0.75898    0.00084     0.75981
      H   36    0.25175      0.00000     0.74690    0.00135     0.74825
 =======================================================================
   * Total *    0.00000     43.98374   111.57773    0.43853   156.00000

 Normal termination of Gaussian 16 at Sat Aug 22 16:28:06 2020.
