 Gaussian 16, Revision A.03,

 ---------------------------------
 # opt=CalcAll B3LYP/6-31G* scf=qc
 ---------------------------------

 -------------------
 Title Card Required
 -------------------
 Symbolic Z-matrix:
 Charge =  0 Multiplicity = 1

 SCF Done:  E(RB3LYP) =  -1028.45483171     a.u. after   10 cycles
 SCF Done:  E(RB3LYP) =  -1028.47543316     a.u. after   23 cycles
 SCF Done:  E(RB3LYP) =  -1028.47837531     a.u. after   17 cycles
 SCF Done:  E(RB3LYP) =  -1028.47957603     a.u. after   19 cycles
 SCF Done:  E(RB3LYP) =  -1028.47932580     a.u. after   19 cycles
 SCF Done:  E(RB3LYP) =  -1028.48149350     a.u. after   13 cycles
 SCF Done:  E(RB3LYP) =  -1028.48119425     a.u. after   21 cycles
 SCF Done:  E(RB3LYP) =  -1028.48255512     a.u. after   16 cycles
 SCF Done:  E(RB3LYP) =  -1028.48264038     a.u. after   13 cycles
 SCF Done:  E(RB3LYP) =  -1028.48264422     a.u. after    5 cycles
 SCF Done:  E(RB3LYP) =  -1028.48264430     a.u. after    2 cycles
 Optimization completed.
    -- Stationary point found.
 Normal termination of Gaussian 16 at Sat Aug 22 16:13:01 2020.

 ----------------------------------------------------------------------
 # freq B3LYP/6-31G* scf=qc volume NMR pop=NPA density=current Geom=All
 Check Guess=Read
 ----------------------------------------------------------------------

 Structure from the checkpoint file:  "azadicarboxylate_4_conf112.chk"
 -------------------
 Title Card Required
 -------------------
 Charge =  0 Multiplicity = 1

 SCF Done:  E(RB3LYP) =  -1028.48264430     a.u. after    1 cycles

      1  C    Isotropic =    62.1376   Anisotropy =   173.2450

      2  C    Isotropic =   120.6138   Anisotropy =    39.1985

      3  O    Isotropic =   140.7144   Anisotropy =   143.6625

      4  C    Isotropic =    34.5955   Anisotropy =    84.0943

      5  O    Isotropic =   -20.7346   Anisotropy =   493.4473

      6  N    Isotropic =  -323.1297   Anisotropy =   676.1773

      7  N    Isotropic =  -323.1296   Anisotropy =   676.1770

      8  C    Isotropic =    34.5953   Anisotropy =    84.0949

      9  O    Isotropic =   -20.7352   Anisotropy =   493.4485

     10  O    Isotropic =   140.7134   Anisotropy =   143.6616

     11  C    Isotropic =   120.6135   Anisotropy =    39.1992

     12  C    Isotropic =    62.1374   Anisotropy =   173.2451

     13  C    Isotropic =    65.0508   Anisotropy =   156.3690

     14  C    Isotropic =    68.2606   Anisotropy =   165.6453

     15  C    Isotropic =    66.9857   Anisotropy =   170.8778

     16  C    Isotropic =    67.7531   Anisotropy =   166.7877

     17  C    Isotropic =    63.9962   Anisotropy =   162.6036

     18  C    Isotropic =    65.0508   Anisotropy =   156.3699

     19  C    Isotropic =    68.2605   Anisotropy =   165.6454

     20  C    Isotropic =    66.9858   Anisotropy =   170.8776

     21  C    Isotropic =    67.7531   Anisotropy =   166.7875

     22  C    Isotropic =    63.9963   Anisotropy =   162.6025

     23  H    Isotropic =    27.6181   Anisotropy =     5.2398

     24  H    Isotropic =    26.4653   Anisotropy =     2.5910

     25  H    Isotropic =    27.6181   Anisotropy =     5.2398

     26  H    Isotropic =    26.4652   Anisotropy =     2.5910

     27  H    Isotropic =    24.9119   Anisotropy =     6.8239

     28  H    Isotropic =    24.9314   Anisotropy =     4.5485

     29  H    Isotropic =    24.9249   Anisotropy =     4.2169

     30  H    Isotropic =    24.9179   Anisotropy =     4.9763

     31  H    Isotropic =    24.4131   Anisotropy =     7.7477

     32  H    Isotropic =    24.9119   Anisotropy =     6.8240

     33  H    Isotropic =    24.9314   Anisotropy =     4.5485

     34  H    Isotropic =    24.9249   Anisotropy =     4.2169

     35  H    Isotropic =    24.9179   Anisotropy =     4.9763

     36  H    Isotropic =    24.4132   Anisotropy =     7.7476

  Exact polarizability: 220.047 -37.757 154.346  16.637  14.878 176.057
 Approx polarizability: 260.781 -67.062 266.753  32.802  44.519 317.022

                      1                      2                      3
                      A                      A                      A
 Frequencies --      7.0833                16.9805                22.7898
 Red. masses --      5.8669                 6.6464                 4.7587
 Frc consts  --      0.0002                 0.0011                 0.0015
 IR Inten    --      0.5855                 0.5294                 0.0000

                      4                      5                      6
                      A                      A                      A
 Frequencies --     25.5434                30.6319                49.6891
 Red. masses --      3.9118                 6.2030                 8.4621
 Frc consts  --      0.0015                 0.0034                 0.0123
 IR Inten    --      0.1676                 0.0000                 2.5544

                      7                      8                      9
                      A                      A                      A
 Frequencies --     68.3656                75.8072                85.2955
 Red. masses --      7.5639                 8.4833                 5.8699
 Frc consts  --      0.0208                 0.0287                 0.0252
 IR Inten    --      0.0000                 0.0000                 4.0697

                     10                     11                     12
                      A                      A                      A
 Frequencies --    132.5235               154.7536               214.7205
 Red. masses --      7.6709                 6.0160                 7.1010
 Frc consts  --      0.0794                 0.0849                 0.1929
 IR Inten    --      1.0812                 0.0000                 4.2948

                     13                     14                     15
                      A                      A                      A
 Frequencies --    224.5165               239.3121               251.1784
 Red. masses --      8.4060                 7.6610                 7.6349
 Frc consts  --      0.2497                 0.2585                 0.2838
 IR Inten    --      0.0000                 0.0000                16.0803

                     16                     17                     18
                      A                      A                      A
 Frequencies --    323.4343               328.8375               362.4932
 Red. masses --      6.1269                 6.1781                 2.2221
 Frc consts  --      0.3776                 0.3936                 0.1720
 IR Inten    --      0.0000                 4.6899                 0.0000

                     19                     20                     21
                      A                      A                      A
 Frequencies --    372.8464               416.9709               417.0105
 Red. masses --      2.1705                 2.9664                 2.9683
 Frc consts  --      0.1778                 0.3039                 0.3041
 IR Inten    --     20.9664                 0.1128                 0.0000

                     22                     23                     24
                      A                      A                      A
 Frequencies --    438.9053               481.5619               505.1201
 Red. masses --      5.9999                 4.1199                 4.4111
 Frc consts  --      0.6810                 0.5629                 0.6631
 IR Inten    --      0.0000                 5.4524                 0.0000

                     25                     26                     27
                      A                      A                      A
 Frequencies --    571.4080               577.3550               629.5964
 Red. masses --      6.5706                 6.9116                 6.2905
 Frc consts  --      1.2640                 1.3574                 1.4691
 IR Inten    --     26.8390                 0.0000                38.3038

                     28                     29                     30
                      A                      A                      A
 Frequencies --    635.5986               635.9613               641.7763
 Red. masses --      6.3308                 6.5416                 5.9086
 Frc consts  --      1.5069                 1.5588                 1.4338
 IR Inten    --      0.0000                 4.6665                 0.0000

                     31                     32                     33
                      A                      A                      A
 Frequencies --    646.2579               713.5769               713.6374
 Red. masses --      6.2610                 1.7858                 1.8136
 Frc consts  --      1.5407                 0.5358                 0.5442
 IR Inten    --      3.4228                65.5701                 0.0008

                     34                     35                     36
                      A                      A                      A
 Frequencies --    771.1861               774.4417               810.7119
 Red. masses --      2.0713                 2.1043                10.9965
 Frc consts  --      0.7258                 0.7436                 4.2583
 IR Inten    --      0.0000                66.2395                28.8597

                     37                     38                     39
                      A                      A                      A
 Frequencies --    827.7180               839.8105               839.8217
 Red. masses --      5.0926                 3.7663                 3.8809
 Frc consts  --      2.0557                 1.5651                 1.6127
 IR Inten    --      0.0000                 0.0218                25.7983

                     40                     41                     42
                      A                      A                      A
 Frequencies --    863.6204               863.6512               879.8861
 Red. masses --      1.2470                 1.2475                 4.7430
 Frc consts  --      0.5480                 0.5482                 2.1635
 IR Inten    --      0.0001                 0.4979                76.1357

                     43                     44                     45
                      A                      A                      A
 Frequencies --    907.5256               939.7918               943.3868
 Red. masses --      5.4886                 1.4829                 1.5779
 Frc consts  --      2.6633                 0.7717                 0.8274
 IR Inten    --      0.0000                19.4594                 0.0000

                     46                     47                     48
                      A                      A                      A
 Frequencies --    973.9024               973.9114               977.2123
 Red. masses --      1.3648                 1.3563                 4.2331
 Frc consts  --      0.7627                 0.7579                 2.3817
 IR Inten    --      0.6473                 0.0012               172.3929

                     49                     50                     51
                      A                      A                      A
 Frequencies --    989.8689              1002.2842              1002.2905
 Red. masses --      3.8169                 1.2786                 1.2775
 Frc consts  --      2.2035                 0.7568                 0.7562
 IR Inten    --      0.0000                 0.0003                 0.2244

                     52                     53                     54
                      A                      A                      A
 Frequencies --   1018.7119              1019.1528              1021.2905
 Red. masses --      3.6811                 4.2631                 3.9783
 Frc consts  --      2.2508                 2.6089                 2.4448
 IR Inten    --      0.0000                13.7357                 0.0000

                     55                     56                     57
                      A                      A                      A
 Frequencies --   1022.4760              1059.0074              1059.0118
 Red. masses --      3.0269                 2.2311                 2.2316
 Frc consts  --      1.8645                 1.4743                 1.4746
 IR Inten    --     19.9406                 1.9322                 0.0013

                     58                     59                     60
                      A                      A                      A
 Frequencies --   1123.5322              1123.7078              1194.8631
 Red. masses --      1.5181                 1.5188                 1.1025
 Frc consts  --      1.1290                 1.1300                 0.9274
 IR Inten    --      0.0000                 3.7901                 0.0000

                     61                     62                     63
                      A                      A                      A
 Frequencies --   1194.8662              1215.7944              1216.2739
 Red. masses --      1.1025                 1.1513                 1.1413
 Frc consts  --      0.9274                 1.0026                 0.9948
 IR Inten    --      0.0158                37.3003                 0.0000

                     64                     65                     66
                      A                      A                      A
 Frequencies --   1239.7393              1240.0870              1247.1121
 Red. masses --      3.2257                 3.0059                 3.7521
 Frc consts  --      2.9211                 2.7236                 3.4382
 IR Inten    --    144.1760                 0.0001              1210.1172

                     67                     68                     69
                      A                      A                      A
 Frequencies --   1255.9729              1298.5684              1300.0317
 Red. masses --      3.5891                 1.4624                 1.5569
 Frc consts  --      3.3358                 1.4530                 1.5503
 IR Inten    --      0.0000               165.0713                 0.0001

                     70                     71                     72
                      A                      A                      A
 Frequencies --   1365.1777              1365.1868              1375.4141
 Red. masses --      4.1417                 4.1366                 1.2675
 Frc consts  --      4.5479                 4.5424                 1.4128
 IR Inten    --      0.0233                 5.5068                 6.0004

                     73                     74                     75
                      A                      A                      A
 Frequencies --   1375.4920              1417.4149              1417.9038
 Red. masses --      1.2681                 1.3573                 1.3605
 Frc consts  --      1.4136                 1.6067                 1.6116
 IR Inten    --      0.0000                 0.0002                43.8303

                     76                     77                     78
                      A                      A                      A
 Frequencies --   1504.8713              1504.8807              1516.7223
 Red. masses --      2.1984                 2.1983                 1.1170
 Frc consts  --      2.9333                 2.9332                 1.5140
 IR Inten    --      0.0004                14.0196                22.7455

                     79                     80                     81
                      A                      A                      A
 Frequencies --   1516.9404              1548.0299              1548.0703
 Red. masses --      1.1185                 2.2127                 2.2109
 Frc consts  --      1.5164                 3.1242                 3.1218
 IR Inten    --      0.0001                 9.3520                 0.0003

                     82                     83                     84
                      A                      A                      A
 Frequencies --   1646.4603              1646.4684              1647.9279
 Red. masses --      5.5577                 5.5015                13.5863
 Frc consts  --      8.8766                 8.7869                21.7384
 IR Inten    --      0.0102                 1.6204                 0.0000

                     85                     86                     87
                      A                      A                      A
 Frequencies --   1666.1564              1666.1856              1832.0150
 Red. masses --      5.5109                 5.5094                12.1404
 Frc consts  --      9.0136                 9.0115                24.0071
 IR Inten    --      1.0183                 0.0000                 0.0000

                     88                     89                     90
                      A                      A                      A
 Frequencies --   1844.8734              3107.2474              3107.3060
 Red. masses --     12.1212                 1.0575                 1.0575
 Frc consts  --     24.3068                 6.0159                 6.0161
 IR Inten    --    470.4931                43.5821                 0.0641

                     91                     92                     93
                      A                      A                      A
 Frequencies --   3165.0825              3165.0907              3179.9379
 Red. masses --      1.1108                 1.1108                 1.0864
 Frc consts  --      6.5561                 6.5561                 6.4727
 IR Inten    --      1.1997                 7.7788                 0.0656

                     94                     95                     96
                      A                      A                      A
 Frequencies --   3179.9444              3187.5803              3187.5827
 Red. masses --      1.0864                 1.0878                 1.0878
 Frc consts  --      6.4727                 6.5119                 6.5119
 IR Inten    --      8.8406                 5.2571                 0.0367

                     97                     98                     99
                      A                      A                      A
 Frequencies --   3198.1399              3198.1494              3207.8281
 Red. masses --      1.0914                 1.0914                 1.0949
 Frc consts  --      6.5771                 6.5771                 6.6379
 IR Inten    --      0.0106                45.4708                48.6167

                    100                    101                    102
                      A                      A                      A
 Frequencies --   3207.8496              3215.3836              3215.3861
 Red. masses --      1.0948                 1.0964                 1.0964
 Frc consts  --      6.6379                 6.6783                 6.6784
 IR Inten    --      0.0278                10.2798                 5.1199

 - Thermochemistry -
 -------------------
 Temperature   298.150 Kelvin.  Pressure   1.00000 Atm.
 Atom     1 has atomic number  6 and mass  12.00000

 Molecular mass:   298.09536 amu.
 Principal axes and moments of inertia in atomic units:
                           1         2         3
     Eigenvalues --  2239.22947********************
           X            0.99999  -0.00332   0.00024
           Y            0.00333   0.99973  -0.02284
           Z           -0.00016   0.02284   0.99974
 This molecule is an asymmetric top.
 Rotational symmetry number  1.
 Warning -- assumption of classical behavior for rotation
           may cause significant error
 Rotational temperatures (Kelvin)      0.03868     0.00438     0.00432
 Rotational constants (GHZ):           0.80597     0.09137     0.09000
 Zero-point vibrational energy     729551.3 (Joules/Mol)
                                  174.36696 (Kcal/Mol)
 Warning -- explicit consideration of  26 degrees of freedom as
           vibrations may cause significant error
 Vibrational temperatures:     10.19    24.43    32.79    36.75    44.07
          (Kelvin)             71.49    98.36   109.07   122.72   190.67
                              222.66   308.93   323.03   344.32   361.39
                              465.35   473.12   521.55   536.44   599.93
                              599.99   631.49   692.86   726.76   822.13
                              830.69   905.85   914.48   915.01   923.37
                              929.82  1026.68  1026.77  1109.56  1114.25
                             1166.43  1190.90  1208.30  1208.32  1242.56
                             1242.60  1265.96  1305.73  1352.15  1357.32
                             1401.23  1401.24  1405.99  1424.20  1442.06
                             1442.07  1465.70  1466.33  1469.41  1471.11
                             1523.68  1523.68  1616.51  1616.76  1719.14
                             1719.15  1749.26  1749.95  1783.71  1784.21
                             1794.32  1807.06  1868.35  1870.46  1964.19
                             1964.20  1978.91  1979.03  2039.34  2040.05
                             2165.17  2165.19  2182.23  2182.54  2227.27
                             2227.33  2368.89  2368.90  2371.00  2397.23
                             2397.27  2635.86  2654.36  4470.64  4470.72
                             4553.85  4553.86  4575.22  4575.23  4586.22
                             4586.22  4601.41  4601.42  4615.35  4615.38
                             4626.22  4626.22

 Zero-point correction=                           0.277871 (Hartree/Particle)
 Thermal correction to Energy=                    0.297263
 Thermal correction to Enthalpy=                  0.298207
 Thermal correction to Gibbs Free Energy=         0.223182
 Sum of electronic and zero-point Energies=          -1028.204773
 Sum of electronic and thermal Energies=             -1028.185382
 Sum of electronic and thermal Enthalpies=           -1028.184437
 Sum of electronic and thermal Free Energies=        -1028.259462

                     E (Thermal)             CV                S
                      KCal/Mol        Cal/Mol-Kelvin    Cal/Mol-Kelvin
 Total                  186.535             71.295            157.903
 Electronic               0.000              0.000              0.000
 Translational            0.889              2.981             42.974
 Rotational               0.889              2.981             35.138
 Vibrational            184.758             65.333             79.791
 Vibration     1          0.593              1.987              8.696
 Vibration     2          0.593              1.986              6.959
 Vibration     3          0.593              1.985              6.375
 Vibration     4          0.593              1.985              6.149
 Vibration     5          0.594              1.984              5.788
 Vibration     6          0.595              1.978              4.830
 Vibration     7          0.598              1.969              4.200
 Vibration     8          0.599              1.965              3.997
 Vibration     9          0.601              1.959              3.765
 Vibration    10          0.613              1.921              2.909
 Vibration    11          0.620              1.897              2.613
 Vibration    12          0.645              1.819              2.003
 Vibration    13          0.649              1.804              1.922
 Vibration    14          0.657              1.780              1.808
 Vibration    15          0.663              1.761              1.722
 Vibration    16          0.708              1.629              1.293
 Vibration    17          0.712              1.618              1.266
 Vibration    18          0.736              1.550              1.111
 Vibration    19          0.744              1.528              1.068
 Vibration    20          0.780              1.433              0.902
 Vibration    21          0.780              1.433              0.902
 Vibration    22          0.799              1.385              0.830
 Vibration    23          0.838              1.291              0.706
 Vibration    24          0.860              1.239              0.645
 Vibration    25          0.928              1.093              0.502
 Vibration    26          0.934              1.080              0.490

 Optimization completed.
    -- Stationary point found.
 Normal termination of Gaussian 16 at Sat Aug 22 16:22:27 2020.
 Gaussian 16:  ES64L-G16RevA.03 25-Dec-2016

 ----------------------------------------------------------------------
 # TD(NStates=10, Root=1) B3LYP/6-31G* scf=qc volume pop=NPA density=cu
 rrent Geom=AllCheck Guess=Read
 ----------------------------------------------------------------------

 Structure from the checkpoint file:  "azadicarboxylate_4_conf113.chk"
 -------------------
 Title Card Required
 -------------------
 Charge =  0 Multiplicity = 1

                         Standard orientation:
 ---------------------------------------------------------------------
 Center     Atomic      Atomic             Coordinates (Angstroms)
 Number     Number       Type             X           Y           Z
 ---------------------------------------------------------------------
      1          6           0        4.464448    0.548546   -0.494967
      2          6           0        3.427522    1.418094   -1.154106
      3          8           0        2.087848    0.824205   -1.071160
      4          6           0        1.360757    1.156973   -0.008701
      5          8           0        1.657236    1.890258    0.902330
      6          7           0        0.023343    0.610893   -0.118710
      7          7           0       -0.023362   -0.610919    0.118796
      8          6           0       -1.360777   -1.157001    0.008783
      9          8           0       -1.657240   -1.890305   -0.902238
     10          8           0       -2.087885   -0.824211    1.071221
     11          6           0       -3.427571   -1.418083    1.154148
     12          6           0       -4.464466   -0.548541    0.494957
     13          6           0       -5.105914    0.459138    1.226133
     14          6           0       -6.062090    1.274162    0.620889
     15          6           0       -6.386412    1.086875   -0.724284
     16          6           0       -5.751344    0.084590   -1.460620
     17          6           0       -4.794332   -0.729596   -0.855017
     18          6           0        5.105861   -0.459130   -1.226177
     19          6           0        6.062078   -1.274142   -0.620985
     20          6           0        6.386477   -1.086849    0.724169
     21          6           0        5.751442   -0.084567    1.460538
     22          6           0        4.794388    0.729607    0.854986
     23          1           0        3.598362    1.503872   -2.228441
     24          1           0        3.383132    2.411795   -0.704446
     25          1           0       -3.598439   -1.503826    2.228480
     26          1           0       -3.383178   -2.411797    0.704517
     27          1           0       -4.854368    0.604558    2.274248
     28          1           0       -6.554690    2.051778    1.198238
     29          1           0       -7.133283    1.719289   -1.196811
     30          1           0       -6.001968   -0.064384   -2.507383
     31          1           0       -4.290208   -1.502631   -1.427570
     32          1           0        4.854251   -0.604560   -2.274276
     33          1           0        6.554650   -2.051759   -1.198358
     34          1           0        7.133380   -1.719255    1.196655
     35          1           0        6.002122    0.064411    2.507287
     36          1           0        4.290296    1.502645    1.427565
 ---------------------------------------------------------------------

 SCF Done:  E(RB3LYP) =  -1028.48264430     a.u. after    1 cycles

 Excitation energies and oscillator strengths:

 Excited State   1:      Singlet-A      2.9382 eV  421.98 nm  f=0.0000  <S**2>=0.000
      74 -> 79         0.32126
      78 -> 79         0.62267
 This state for optimization and/or second-order correction.
 Total Energy, E(TD-HF/TD-DFT) =  -1028.37466860
 Copying the excited state density for this state as the 1-particle RhoCI density.

 Excited State   2:      Singlet-A      4.1469 eV  298.98 nm  f=0.0221  <S**2>=0.000
      75 -> 79         0.38178
      77 -> 79         0.59380

 Excited State   3:      Singlet-A      4.1649 eV  297.69 nm  f=0.0000  <S**2>=0.000
      74 -> 79         0.39157
      76 -> 79         0.53546
      78 -> 79        -0.23854

 Excited State   4:      Singlet-A      4.1872 eV  296.10 nm  f=0.0071  <S**2>=0.000
      75 -> 79         0.59405
      77 -> 79        -0.38239

 Excited State   5:      Singlet-A      4.2006 eV  295.16 nm  f=0.0000  <S**2>=0.000
      74 -> 79         0.48416
      76 -> 79        -0.45934
      78 -> 79        -0.22852

 Excited State   6:      Singlet-A      5.0293 eV  246.52 nm  f=0.1242  <S**2>=0.000
      73 -> 79         0.68784

 Excited State   7:      Singlet-A      5.0982 eV  243.19 nm  f=0.0000  <S**2>=0.000
      70 -> 79         0.20537
      72 -> 79         0.66305

 Excited State   8:      Singlet-A      5.4001 eV  229.60 nm  f=0.0021  <S**2>=0.000
      71 -> 79         0.21158
      74 -> 82        -0.21367
      75 -> 81        -0.20131
      75 -> 83        -0.24508
      76 -> 80         0.36665
      77 -> 81         0.28834
      77 -> 83        -0.17650
      78 -> 82         0.23649

 Excited State   9:      Singlet-A      5.4006 eV  229.57 nm  f=0.0000  <S**2>=0.000
      74 -> 83        -0.22486
      75 -> 80        -0.23371
      75 -> 82        -0.25058
      76 -> 81         0.36806
      77 -> 80         0.30530
      77 -> 82        -0.19542
      78 -> 83         0.24868

 Excited State  10:      Singlet-A      5.4073 eV  229.29 nm  f=0.0075  <S**2>=0.000
      71 -> 79         0.66212
      76 -> 80        -0.11307

 The electronic state is 1-A.
 Alpha  occ. eigenvalues --  -19.21193 -19.21193 -19.15633 -19.15633 -14.42159
 Alpha  occ. eigenvalues --  -14.42108 -10.35176 -10.35175 -10.25862 -10.25862
 Alpha  occ. eigenvalues --  -10.20411 -10.20411 -10.19801 -10.19801 -10.19714
 Alpha  occ. eigenvalues --  -10.19714 -10.19600 -10.19600 -10.19520 -10.19520
 Alpha  occ. eigenvalues --  -10.19460 -10.19460  -1.13690  -1.12437  -1.05511
 Alpha  occ. eigenvalues --   -1.03882  -1.03509  -0.86254  -0.86173  -0.80936
 Alpha  occ. eigenvalues --   -0.78506  -0.76491  -0.74992  -0.74991  -0.71411
 Alpha  occ. eigenvalues --   -0.69589  -0.62132  -0.61354  -0.61254  -0.60207
 Alpha  occ. eigenvalues --   -0.58695  -0.56363  -0.55311  -0.52483  -0.52157
 Alpha  occ. eigenvalues --   -0.50654  -0.49687  -0.49046  -0.47992  -0.47295
 Alpha  occ. eigenvalues --   -0.46721  -0.46677  -0.45017  -0.44214  -0.43172
 Alpha  occ. eigenvalues --   -0.42915  -0.42441  -0.42211  -0.40796  -0.40772
 Alpha  occ. eigenvalues --   -0.39804  -0.37963  -0.37696  -0.36462  -0.36444
 Alpha  occ. eigenvalues --   -0.35956  -0.35950  -0.34510  -0.34508  -0.32042
 Alpha  occ. eigenvalues --   -0.31575  -0.31081  -0.30204  -0.26010  -0.25584
 Alpha  occ. eigenvalues --   -0.25544  -0.25525  -0.24710
 Alpha virt. eigenvalues --   -0.08273  -0.01792  -0.01645  -0.00609  -0.00607
 Alpha virt. eigenvalues --    0.00878   0.01000   0.09021   0.09052   0.11234
 Alpha virt. eigenvalues --    0.11303   0.12211   0.12384   0.13162   0.13252

 Mulliken charges:
               1
     1  C    0.150151
     2  C   -0.156303
     3  O   -0.408266
     4  C    0.736546
     5  O   -0.422190
     6  N   -0.235810
     7  N   -0.235810
     8  C    0.736547
     9  O   -0.422193
    10  O   -0.408267
    11  C   -0.156303
    12  C    0.150151
    13  C   -0.166851
    14  C   -0.128594
    15  C   -0.123617
    16  C   -0.129703
    17  C   -0.174605
    18  C   -0.166851
    19  C   -0.128595
    20  C   -0.123617
    21  C   -0.129703
    22  C   -0.174605
    23  H    0.170614
    24  H    0.183669
    25  H    0.170614
    26  H    0.183670
    27  H    0.135223
    28  H    0.136022
    29  H    0.135730
    30  H    0.137625
    31  H    0.160361
    32  H    0.135224
    33  H    0.136022
    34  H    0.135730
    35  H    0.137625
    36  H    0.160359
 Sum of Mulliken charges =  -0.00000

 Dipole moment (field-independent basis, Debye):
    X=             -0.0000    Y=              0.0001    Z=             -0.0001  Tot=              0.0001
 Quadrupole moment (field-independent basis, Debye-Ang):
   XX=            -92.7034   YY=           -123.3006   ZZ=           -117.5122
   XY=             -4.7144   XZ=             -4.3596   YZ=             -5.7405

 Summary of Natural Population Analysis:

                                       Natural Population
                Natural  -----------------------------------------------
    Atom  No    Charge         Core      Valence    Rydberg      Total
 -----------------------------------------------------------------------
      C    1   -0.09156      1.99901     4.07806    0.01449     6.09156
      C    2   -0.12347      1.99912     4.10523    0.01912     6.12347
      O    3   -0.52194      1.99973     6.50993    0.01228     8.52194
      C    4    0.91933      1.99950     3.03088    0.05029     5.08067
      O    5   -0.55653      1.99977     6.53610    0.02066     8.55653
      N    6   -0.21130      1.99938     5.18564    0.02628     7.21130
      N    7   -0.21130      1.99938     5.18564    0.02628     7.21130
      C    8    0.91933      1.99950     3.03088    0.05029     5.08067
      O    9   -0.55653      1.99977     6.53610    0.02066     8.55653
      O   10   -0.52194      1.99973     6.50993    0.01228     8.52194
      C   11   -0.12347      1.99912     4.10523    0.01912     6.12347
      C   12   -0.09156      1.99901     4.07806    0.01449     6.09156
      C   13   -0.21154      1.99903     4.19934    0.01317     6.21154
      C   14   -0.23043      1.99910     4.21750    0.01384     6.23043
      C   15   -0.22256      1.99910     4.20998    0.01347     6.22256
      C   16   -0.22914      1.99910     4.21620    0.01384     6.22914
      C   17   -0.21173      1.99903     4.19934    0.01335     6.21173
      C   18   -0.21154      1.99903     4.19934    0.01317     6.21154
      C   19   -0.23043      1.99910     4.21750    0.01384     6.23043
      C   20   -0.22256      1.99910     4.20998    0.01347     6.22256
      C   21   -0.22914      1.99910     4.21620    0.01384     6.22914
      C   22   -0.21173      1.99903     4.19934    0.01335     6.21173
      H   23    0.24163      0.00000     0.75722    0.00114     0.75837
      H   24    0.24196      0.00000     0.75584    0.00221     0.75804
      H   25    0.24163      0.00000     0.75722    0.00114     0.75837
      H   26    0.24196      0.00000     0.75584    0.00221     0.75804
      H   27    0.23712      0.00000     0.76182    0.00106     0.76288
      H   28    0.23959      0.00000     0.75957    0.00085     0.76041
      H   29    0.23867      0.00000     0.76051    0.00082     0.76133
      H   30    0.24030      0.00000     0.75886    0.00084     0.75970
      H   31    0.25160      0.00000     0.74705    0.00135     0.74840
      H   32    0.23712      0.00000     0.76182    0.00106     0.76288
      H   33    0.23959      0.00000     0.75957    0.00085     0.76041
      H   34    0.23867      0.00000     0.76051    0.00082     0.76133
      H   35    0.24030      0.00000     0.75886    0.00084     0.75970
      H   36    0.25160      0.00000     0.74705    0.00135     0.74840
 =======================================================================
   * Total *    0.00000     43.98374   111.57814    0.43813   156.00000

 Normal termination of Gaussian 16 at Sat Aug 22 16:32:02 2020.
