 Gaussian 16, Revision A.03,

 ---------------------------------
 # opt=CalcAll B3LYP/6-31G* scf=qc
 ---------------------------------

 -------------------
 Title Card Required
 -------------------
 Symbolic Z-matrix:
 Charge =  0 Multiplicity = 1

 SCF Done:  E(RB3LYP) =  -1947.64672948     a.u. after    9 cycles
 SCF Done:  E(RB3LYP) =  -1947.66719048     a.u. after   23 cycles
 SCF Done:  E(RB3LYP) =  -1947.66495465     a.u. after   23 cycles
 SCF Done:  E(RB3LYP) =  -1947.66875168     a.u. after   13 cycles
 SCF Done:  E(RB3LYP) =  -1947.67182409     a.u. after   23 cycles
 SCF Done:  E(RB3LYP) =  -1947.67225308     a.u. after   17 cycles
 SCF Done:  E(RB3LYP) =  -1947.67239260     a.u. after   17 cycles
 SCF Done:  E(RB3LYP) =  -1947.67242264     a.u. after   19 cycles
 SCF Done:  E(RB3LYP) =  -1947.67270403     a.u. after   17 cycles
 SCF Done:  E(RB3LYP) =  -1947.67271805     a.u. after   11 cycles
 SCF Done:  E(RB3LYP) =  -1947.67271967     a.u. after    6 cycles
 SCF Done:  E(RB3LYP) =  -1947.67271980     a.u. after    3 cycles
 SCF Done:  E(RB3LYP) =  -1947.67271981     a.u. after    2 cycles
 Optimization completed.
    -- Stationary point found.
 Normal termination of Gaussian 16 at Sat Aug 22 16:50:42 2020.

 ----------------------------------------------------------------------
 # freq B3LYP/6-31G* scf=qc volume NMR pop=NPA density=current Geom=All
 Check Guess=Read
 ----------------------------------------------------------------------

 Structure from the checkpoint file:  "azadicarboxylate_3_conf292.chk"
 -------------------
 Title Card Required
 -------------------
 Charge =  0 Multiplicity = 1

 SCF Done:  E(RB3LYP) =  -1947.67271981     a.u. after    1 cycles

      1  C    Isotropic =    63.7768   Anisotropy =   172.0718

      2  C    Isotropic =   121.5235   Anisotropy =    39.9311

      3  O    Isotropic =   141.2764   Anisotropy =   141.2897

      4  C    Isotropic =    34.8866   Anisotropy =    86.9196

      5  O    Isotropic =   -22.5694   Anisotropy =   498.7351

      6  N    Isotropic =  -322.0547   Anisotropy =   674.7474

      7  N    Isotropic =  -327.6829   Anisotropy =   681.5917

      8  C    Isotropic =    35.3893   Anisotropy =    79.0536

      9  O    Isotropic =   -27.9187   Anisotropy =   497.1511

     10  O    Isotropic =   147.6642   Anisotropy =   130.8062

     11  C    Isotropic =   119.8195   Anisotropy =    34.2848

     12  C    Isotropic =    64.7747   Anisotropy =   173.0550

     13  C    Isotropic =    63.8073   Anisotropy =   155.8193

     14  C    Isotropic =    66.8647   Anisotropy =   142.3124

     15  C    Isotropic =    51.1640   Anisotropy =   111.7006

     16  C    Isotropic =    67.0568   Anisotropy =   141.9349

     17  C    Isotropic =    64.0597   Anisotropy =   152.8038

     18  Cl   Isotropic =   717.9520   Anisotropy =   454.2923

     19  C    Isotropic =    64.0380   Anisotropy =   152.9739

     20  C    Isotropic =    67.3699   Anisotropy =   141.1724

     21  C    Isotropic =    51.2853   Anisotropy =   110.9302

     22  C    Isotropic =    66.8824   Anisotropy =   142.2183

     23  C    Isotropic =    62.7790   Anisotropy =   159.1492

     24  Cl   Isotropic =   718.5615   Anisotropy =   454.5459

     25  H    Isotropic =    27.6486   Anisotropy =     5.3855

     26  H    Isotropic =    26.5468   Anisotropy =     2.9431

     27  H    Isotropic =    27.2369   Anisotropy =     4.1926

     28  H    Isotropic =    27.3324   Anisotropy =     4.4992

     29  H    Isotropic =    24.9524   Anisotropy =     6.9050

     30  H    Isotropic =    25.0541   Anisotropy =     6.9975

     31  H    Isotropic =    25.0862   Anisotropy =     7.0363

     32  H    Isotropic =    25.0107   Anisotropy =     6.6699

     33  H    Isotropic =    25.0052   Anisotropy =     6.5332

     34  H    Isotropic =    25.1217   Anisotropy =     6.8007

     35  H    Isotropic =    25.1253   Anisotropy =     7.2557

     36  H    Isotropic =    24.4992   Anisotropy =     7.4909

  Exact polarizability: 236.652  11.982 216.507 -38.883   1.315 178.918
 Approx polarizability: 280.594  21.937 351.534 -76.880  -4.441 315.951

                      1                      2                      3
                      A                      A                      A
 Frequencies --      4.7141                 7.9238                15.9508
 Red. masses --     11.3815                 3.7466                 8.7583
 Frc consts  --      0.0001                 0.0001                 0.0013
 IR Inten    --      0.1107                 0.0047                 0.1731

                      4                      5                      6
                      A                      A                      A
 Frequencies --     20.6854                25.0733                27.4601
 Red. masses --      7.4725                 5.2855                10.1104
 Frc consts  --      0.0019                 0.0020                 0.0045
 IR Inten    --      0.4419                 0.0974                 2.3830

                      7                      8                      9
                      A                      A                      A
 Frequencies --     53.3851                68.8366                72.8409
 Red. masses --     10.9440                10.3235                 7.8301
 Frc consts  --      0.0184                 0.0288                 0.0245
 IR Inten    --      1.3481                 0.0611                 2.7969

                     10                     11                     12
                      A                      A                      A
 Frequencies --     94.6017               108.0458               157.9184
 Red. masses --      9.2376                 7.9190                 9.5769
 Frc consts  --      0.0487                 0.0545                 0.1407
 IR Inten    --      0.2260                 0.2179                 0.2475

                     13                     14                     15
                      A                      A                      A
 Frequencies --    190.3135               204.1299               217.2031
 Red. masses --     10.3744                11.5031                 9.0620
 Frc consts  --      0.2214                 0.2824                 0.2519
 IR Inten    --      3.3494                 4.4809                 9.6618

                     16                     17                     18
                      A                      A                      A
 Frequencies --    241.7172               247.4380               262.2103
 Red. masses --      9.3308                 6.1469                 5.1678
 Frc consts  --      0.3212                 0.2217                 0.2093
 IR Inten    --      0.3671                 1.0762                 1.9221

                     19                     20                     21
                      A                      A                      A
 Frequencies --    298.6066               338.0228               346.9977
 Red. masses --      4.6294                 7.6004                 8.4085
 Frc consts  --      0.2432                 0.5117                 0.5965
 IR Inten    --      6.6769                 4.7149                 1.3023

                     22                     23                     24
                      A                      A                      A
 Frequencies --    368.7366               382.5253               415.4920
 Red. masses --      2.7457                 2.4558                 7.5809
 Frc consts  --      0.2200                 0.2117                 0.7711
 IR Inten    --      0.4661                 7.7315                12.3320

                     25                     26                     27
                      A                      A                      A
 Frequencies --    419.7381               420.6757               423.8462
 Red. masses --      3.1106                 3.1914                 6.7540
 Frc consts  --      0.3229                 0.3328                 0.7149
 IR Inten    --      1.7163                 1.4355                30.4679

                     28                     29                     30
                      A                      A                      A
 Frequencies --    454.3422               514.5265               542.6440
 Red. masses --      5.9048                 3.9109                 3.8228
 Frc consts  --      0.7182                 0.6100                 0.6632
 IR Inten    --      1.6754                 8.1895                13.8254

                     31                     32                     33
                      A                      A                      A
 Frequencies --    586.3471               625.2532               634.6846
 Red. masses --      6.5551                 7.4166                 9.6296
 Frc consts  --      1.3278                 1.7083                 2.2855
 IR Inten    --      7.3306                 4.9466                20.1337

                     34                     35                     36
                      A                      A                      A
 Frequencies --    648.2281               648.4343               666.5645
 Red. masses --      6.7694                 6.8559                 4.9443
 Frc consts  --      1.6759                 1.6984                 1.2943
 IR Inten    --      0.8697                 0.1188                 3.9516

                     37                     38                     39
                      A                      A                      A
 Frequencies --    678.6818               731.0865               738.5522
 Red. masses --      5.9296                 4.3842                 4.2199
 Frc consts  --      1.6092                 1.3806                 1.3562
 IR Inten    --      4.0940                 0.4005                 6.2609

                     40                     41                     42
                      A                      A                      A
 Frequencies --    810.8716               821.3592               822.2573
 Red. masses --      9.4270                 3.6774                 2.9501
 Frc consts  --      3.6520                 1.4617                 1.1752
 IR Inten    --     16.7984                40.1609                33.0500

                     43                     44                     45
                      A                      A                      A
 Frequencies --    835.8329               841.1783               843.4738
 Red. masses --      1.8211                 1.2478                 1.2862
 Frc consts  --      0.7496                 0.5202                 0.5391
 IR Inten    --     38.0426                 0.0551                 1.7807

                     46                     47                     48
                      A                      A                      A
 Frequencies --    857.4406               864.9022               907.6133
 Red. masses --      3.2063                 2.8231                 6.4214
 Frc consts  --      1.3889                 1.2442                 3.1166
 IR Inten    --    115.3735                10.3952                16.6124

                     49                     50                     51
                      A                      A                      A
 Frequencies --    949.1362               963.0736               964.1183
 Red. masses --      2.4966                 1.3707                 1.3468
 Frc consts  --      1.3251                 0.7490                 0.7376
 IR Inten    --     37.5381                 6.2093                 0.1410

                     52                     53                     54
                      A                      A                      A
 Frequencies --    974.7019               975.5100               982.8434
 Red. masses --      2.0302                 1.3875                 3.3267
 Frc consts  --      1.1364                 0.7779                 1.8934
 IR Inten    --     17.0617                14.4935               129.7552

                     55                     56                     57
                      A                      A                      A
 Frequencies --    989.5912              1003.9145              1024.4734
 Red. masses --      1.8331                 7.9822                 2.5124
 Frc consts  --      1.0576                 4.7398                 1.5536
 IR Inten    --     14.8277                35.4692                22.8230

                     58                     59                     60
                      A                      A                      A
 Frequencies --   1035.0312              1035.4279              1110.7846
 Red. masses --      3.7619                 3.8169                 3.1206
 Frc consts  --      2.3745                 2.4110                 2.2685
 IR Inten    --     20.0259                18.2581                74.7978

                     61                     62                     63
                      A                      A                      A
 Frequencies --   1111.4252              1144.7552              1146.4462
 Red. masses --      3.1346                 1.3196                 1.3242
 Frc consts  --      2.2813                 1.0189                 1.0254
 IR Inten    --     78.1729                 2.9158                 2.7639

                     64                     65                     66
                      A                      A                      A
 Frequencies --   1214.3540              1215.7907              1239.9032
 Red. masses --      1.1484                 1.1495                 3.2399
 Frc consts  --      0.9977                 1.0011                 2.9347
 IR Inten    --     19.9734                13.7679                74.3522

                     67                     68                     69
                      A                      A                      A
 Frequencies --   1244.3365              1248.7867              1258.7808
 Red. masses --      3.4278                 3.2493                 1.4147
 Frc consts  --      3.1271                 2.9855                 1.3208
 IR Inten    --    671.8684               475.7022                18.9673

                     70                     71                     72
                      A                      A                      A
 Frequencies --   1265.6661              1297.7356              1335.6445
 Red. masses --      3.0690                 1.5507                 1.7596
 Frc consts  --      2.8966                 1.5387                 1.8494
 IR Inten    --    355.2530                62.9460                 0.5641

                     73                     74                     75
                      A                      A                      A
 Frequencies --   1336.5788              1358.1799              1363.8256
 Red. masses --      1.8091                 2.6211                 2.1599
 Frc consts  --      1.9042                 2.8487                 2.3671
 IR Inten    --      1.3934                 0.6965                 5.8771

                     76                     77                     78
                      A                      A                      A
 Frequencies --   1417.9592              1421.1744              1453.9631
 Red. masses --      1.3540                 1.4855                 2.6880
 Frc consts  --      1.6039                 1.7678                 3.3481
 IR Inten    --     23.7995                26.3417                 6.8881

                     79                     80                     81
                      A                      A                      A
 Frequencies --   1456.3407              1516.6814              1529.2604
 Red. masses --      2.6045                 1.1178                 1.1011
 Frc consts  --      3.2546                 1.5150                 1.5171
 IR Inten    --      7.0196                11.6832                 6.8237

                     82                     83                     84
                      A                      A                      A
 Frequencies --   1541.6630              1543.8883              1631.3662
 Red. masses --      2.3097                 2.3712                 6.6825
 Frc consts  --      3.2343                 3.3300                10.4783
 IR Inten    --     43.5383                38.5575                 0.7292

                     85                     86                     87
                      A                      A                      A
 Frequencies --   1632.7445              1647.8121              1656.1246
 Red. masses --      6.7394                13.9468                 5.5906
 Frc consts  --     10.5855                22.3121                 9.0343
 IR Inten    --      1.0248                 0.0852                30.3321

                     88                     89                     90
                      A                      A                      A
 Frequencies --   1659.0711              1835.2135              1849.9615
 Red. masses --      5.6708                12.2850                12.4714
 Frc consts  --      9.1965                24.3781                25.1472
 IR Inten    --     29.3335                16.9242               569.8400

                     91                     92                     93
                      A                      A                      A
 Frequencies --   3090.0011              3108.7096              3141.0421
 Red. masses --      1.0578                 1.0577                 1.1101
 Frc consts  --      5.9509                 6.0223                 6.4528
 IR Inten    --     13.5984                21.6278                 8.8586

                     94                     95                     96
                      A                      A                      A
 Frequencies --   3166.6562              3190.9046              3192.4114
 Red. masses --      1.1109                 1.0897                 1.0897
 Frc consts  --      6.5631                 6.5369                 6.5433
 IR Inten    --      4.2966                 8.5873                 8.3590

                     97                     98                     99
                      A                      A                      A
 Frequencies --   3193.8874              3212.4634              3226.2045
 Red. masses --      1.0897                 1.0889                 1.0935
 Frc consts  --      6.5494                 6.6210                 6.7058
 IR Inten    --      7.1640                 1.0047                 3.7257

                    100                    101                    102
                      A                      A                      A
 Frequencies --   3226.7121              3227.5724              3228.5734
 Red. masses --      1.0933                 1.0940                 1.0949
 Frc consts  --      6.7069                 6.7146                 6.7241
 IR Inten    --      4.2553                 0.5670                 1.1053

 - Thermochemistry -
 -------------------
 Temperature   298.150 Kelvin.  Pressure   1.00000 Atm.
 Atom     1 has atomic number  6 and mass  12.00000

 Molecular mass:   366.01741 amu.
 Principal axes and moments of inertia in atomic units:
                           1         2         3
     Eigenvalues --  5823.38894********************
           X            0.99999   0.00125   0.00469
           Y           -0.00126   0.99999   0.00313
           Z           -0.00469  -0.00314   0.99998
 This molecule is an asymmetric top.
 Rotational symmetry number  1.
 Warning -- assumption of classical behavior for rotation
           may cause significant error
 Rotational temperatures (Kelvin)      0.01487     0.00276     0.00255
 Rotational constants (GHZ):           0.30991     0.05747     0.05307
 Zero-point vibrational energy     677675.8 (Joules/Mol)
                                  161.96839 (Kcal/Mol)
 Warning -- explicit consideration of  31 degrees of freedom as
           vibrations may cause significant error
 Vibrational temperatures:      6.78    11.40    22.95    29.76    36.07
          (Kelvin)             39.51    76.81    99.04   104.80   136.11
                              155.45   227.21   273.82   293.70   312.51
                              347.78   356.01   377.26   429.63   486.34
                              499.25   530.53   550.37   597.80   603.91
                              605.26   609.82   653.70   740.29   780.74
                              843.62   899.60   913.17   932.66   932.95
                              959.04   976.47  1051.87  1062.61  1166.66
                             1181.75  1183.04  1202.58  1210.27  1213.57
                             1233.67  1244.40  1305.85  1365.60  1385.65
                             1387.15  1402.38  1403.54  1414.09  1423.80
                             1444.41  1473.99  1489.18  1489.75  1598.17
                             1599.09  1647.05  1649.48  1747.18  1749.25
                             1783.94  1790.32  1796.73  1811.10  1821.01
                             1867.15  1921.69  1923.04  1954.12  1962.24
                             2040.13  2044.75  2091.93  2095.35  2182.17
                             2200.26  2218.11  2221.31  2347.17  2349.16
                             2370.83  2382.79  2387.03  2640.46  2661.68
                             4445.82  4472.74  4519.26  4556.11  4591.00
                             4593.17  4595.29  4622.02  4641.79  4642.52
                             4643.76  4645.20

 Zero-point correction=                           0.258113 (Hartree/Particle)
 Thermal correction to Energy=                    0.280162
 Thermal correction to Enthalpy=                  0.281106
 Thermal correction to Gibbs Free Energy=         0.197274
 Sum of electronic and zero-point Energies=          -1947.414607
 Sum of electronic and thermal Energies=             -1947.392558
 Sum of electronic and thermal Enthalpies=           -1947.391614
 Sum of electronic and thermal Free Energies=        -1947.475446

                     E (Thermal)             CV                S
                      KCal/Mol        Cal/Mol-Kelvin    Cal/Mol-Kelvin
 Total                  175.804             79.201            176.441
 Electronic               0.000              0.000              0.000
 Translational            0.889              2.981             43.586
 Rotational               0.889              2.981             37.073
 Vibrational            174.027             73.239             95.782
 Vibration     1          0.593              1.987              9.505
 Vibration     2          0.593              1.987              8.473
 Vibration     3          0.593              1.986              7.083
 Vibration     4          0.593              1.986              6.567
 Vibration     5          0.593              1.985              6.185
 Vibration     6          0.593              1.984              6.005
 Vibration     7          0.596              1.976              4.688
 Vibration     8          0.598              1.969              4.186
 Vibration     9          0.599              1.967              4.075
 Vibration    10          0.603              1.953              3.563
 Vibration    11          0.606              1.943              3.304
 Vibration    12          0.621              1.894              2.575
 Vibration    13          0.634              1.853              2.225
 Vibration    14          0.640              1.834              2.096
 Vibration    15          0.646              1.815              1.982
 Vibration    16          0.658              1.776              1.790
 Vibration    17          0.661              1.767              1.749
 Vibration    18          0.670              1.742              1.647
 Vibration    19          0.692              1.676              1.425
 Vibration    20          0.718              1.600              1.221
 Vibration    21          0.725              1.581              1.180
 Vibration    22          0.741              1.536              1.085
 Vibration    23          0.752              1.507              1.029
 Vibration    24          0.779              1.437              0.907
 Vibration    25          0.782              1.427              0.893
 Vibration    26          0.783              1.425              0.890
 Vibration    27          0.786              1.418              0.879
 Vibration    28          0.813              1.351              0.783
 Vibration    29          0.870              1.218              0.623
 Vibration    30          0.898              1.156              0.560
 Vibration    31          0.943              1.061              0.474

 Optimization completed.
    -- Stationary point found.
 Normal termination of Gaussian 16 at Sat Aug 22 17:01:48 2020.
 Gaussian 16:  ES64L-G16RevA.03 25-Dec-2016

 ----------------------------------------------------------------------
 # TD(NStates=10, Root=1) B3LYP/6-31G* scf=qc volume pop=NPA density=cu
 rrent Geom=AllCheck Guess=Read
 ----------------------------------------------------------------------

 Structure from the checkpoint file:  "azadicarboxylate_3_conf293.chk"
 -------------------
 Title Card Required
 -------------------
 Charge =  0 Multiplicity = 1

                         Standard orientation:
 ---------------------------------------------------------------------
 Center     Atomic      Atomic             Coordinates (Angstroms)
 Number     Number       Type             X           Y           Z
 ---------------------------------------------------------------------
      1          6           0        4.578055    0.662323    0.729337
      2          6           0        3.920278    1.898321    1.281666
      3          8           0        2.615272    2.142835    0.659216
      4          6           0        1.568594    1.568019    1.246401
      5          8           0        1.553905    0.872607    2.231878
      6          7           0        0.333582    1.983625    0.611983
      7          7           0        0.174868    1.478975   -0.515675
      8          6           0       -1.057369    1.898936   -1.151887
      9          8           0       -1.060264    2.702673   -2.049760
     10          8           0       -2.086106    1.200028   -0.677242
     11          6           0       -3.367310    1.455071   -1.339222
     12          6           0       -4.378309    0.497576   -0.778605
     13          6           0       -5.073689    0.804573    0.397117
     14          6           0       -6.002671   -0.084506    0.933711
     15          6           0       -6.236086   -1.294733    0.280411
     16          6           0       -5.557532   -1.625432   -0.891971
     17          6           0       -4.630471   -0.724117   -1.412846
     18         17           0       -7.410620   -2.420026    0.943881
     19          6           0        5.376783    0.740073   -0.417986
     20          6           0        5.986365   -0.396256   -0.946553
     21          6           0        5.790345   -1.623316   -0.313482
     22          6           0        4.998693   -1.728753    0.829837
     23          6           0        4.395141   -0.582838    1.345090
     24         17           0        6.558650   -3.062375   -0.967041
     25          1           0        4.487929    2.798024    1.039399
     26          1           0        3.772833    1.832188    2.361247
     27          1           0       -3.224739    1.325836   -2.415100
     28          1           0       -3.636936    2.497983   -1.151973
     29          1           0       -4.887354    1.748714    0.902591
     30          1           0       -6.541536    0.155833    1.843766
     31          1           0       -5.753774   -2.570215   -1.387160
     32          1           0       -4.098132   -0.977525   -2.326178
     33          1           0        5.526938    1.699424   -0.907025
     34          1           0        6.606629   -0.333560   -1.834101
     35          1           0        4.858536   -2.692195    1.307975
     36          1           0        3.766583   -0.656654    2.227273
 ---------------------------------------------------------------------

 SCF Done:  E(RB3LYP) =  -1947.67271981     a.u. after    1 cycles

 Excitation energies and oscillator strengths:

 Excited State   1:      Singlet-A      2.9205 eV  424.54 nm  f=0.0003  <S**2>=0.000
      92 -> 95         0.44501
      93 -> 95        -0.15004
      94 -> 95         0.52087
 This state for optimization and/or second-order correction.
 Total Energy, E(TD-HF/TD-DFT) =  -1947.56539485
 Copying the excited state density for this state as the 1-particle RhoCI density.

 Excited State   2:      Singlet-A      3.9685 eV  312.42 nm  f=0.0165  <S**2>=0.000
      92 -> 95        -0.19057
      93 -> 95         0.58946
      94 -> 95         0.33697

 Excited State   3:      Singlet-A      4.0980 eV  302.55 nm  f=0.0076  <S**2>=0.000
      92 -> 95         0.50385
      93 -> 95         0.35724
      94 -> 95        -0.33670

 Excited State   4:      Singlet-A      4.4033 eV  281.57 nm  f=0.0009  <S**2>=0.000
      91 -> 95         0.70571

 Excited State   5:      Singlet-A      4.5370 eV  273.27 nm  f=0.0005  <S**2>=0.000
      90 -> 95         0.70558

 Excited State   6:      Singlet-A      5.0117 eV  247.39 nm  f=0.1058  <S**2>=0.000
      86 -> 95        -0.24261
      89 -> 95         0.64056

 Excited State   7:      Singlet-A      5.1156 eV  242.37 nm  f=0.0182  <S**2>=0.000
      84 -> 95        -0.13325
      85 -> 95         0.11066
      86 -> 95         0.55597
      88 -> 95        -0.26259
      89 -> 95         0.24203

 Excited State   8:      Singlet-A      5.2396 eV  236.63 nm  f=0.0016  <S**2>=0.000
      90 -> 96         0.43314
      92 -> 98        -0.21879
      93 -> 98        -0.35879
      94 -> 98         0.34388

 Excited State   9:      Singlet-A      5.2489 eV  236.21 nm  f=0.0004  <S**2>=0.000
      91 -> 97         0.44599
      92 -> 99         0.10521
      93 -> 99        -0.36185
      94 -> 99        -0.38658

 Excited State  10:      Singlet-A      5.4186 eV  228.81 nm  f=0.0081  <S**2>=0.000
      84 -> 95         0.22852
      85 -> 95         0.65412

 The electronic state is 1-A.
 Alpha  occ. eigenvalues -- -101.55620-101.55401 -19.22023 -19.21937 -19.16427
 Alpha  occ. eigenvalues --  -19.16285 -14.42931 -14.42878 -10.35952 -10.35764
 Alpha  occ. eigenvalues --  -10.26872 -10.26811 -10.26577 -10.26313 -10.21968
 Alpha  occ. eigenvalues --  -10.21662 -10.21655 -10.21619 -10.21573 -10.21558
 Alpha  occ. eigenvalues --  -10.21394 -10.21310 -10.21217 -10.21052  -9.47253
 Alpha  occ. eigenvalues --   -9.47034  -7.23650  -7.23429  -7.22681  -7.22644
 Alpha  occ. eigenvalues --   -7.22463  -7.22426  -1.14486  -1.13258  -1.06323
 Alpha  occ. eigenvalues --   -1.04649  -1.04240  -0.90197  -0.89904  -0.85543
 Alpha  occ. eigenvalues --   -0.85180  -0.81306  -0.78468  -0.77183  -0.76838
 Alpha  occ. eigenvalues --   -0.76498  -0.71304  -0.69625  -0.63688  -0.63386
 Alpha  occ. eigenvalues --   -0.62542  -0.60615  -0.59689  -0.57844  -0.56398
 Alpha  occ. eigenvalues --   -0.53150  -0.52874  -0.52013  -0.50545  -0.50156
 Alpha  occ. eigenvalues --   -0.49147  -0.48717  -0.48207  -0.47818  -0.46873
 Alpha  occ. eigenvalues --   -0.45611  -0.44784  -0.44472  -0.44205  -0.43752
 Alpha  occ. eigenvalues --   -0.42108  -0.41582  -0.40658  -0.40326  -0.40045
 Alpha  occ. eigenvalues --   -0.39799  -0.38666  -0.37976  -0.37188  -0.37043
 Alpha  occ. eigenvalues --   -0.36398  -0.34199  -0.33882  -0.32819  -0.32602
 Alpha  occ. eigenvalues --   -0.32028  -0.32003  -0.31756  -0.30966  -0.27481
 Alpha  occ. eigenvalues --   -0.27160  -0.26426  -0.25592  -0.25103
 Alpha virt. eigenvalues --   -0.09056  -0.03362  -0.03100  -0.02505  -0.02169
 Alpha virt. eigenvalues --    0.00185   0.00253   0.02101   0.02421   0.08987
 Alpha virt. eigenvalues --    0.09712   0.10688   0.10926   0.11603   0.11959

 Mulliken charges:
               1
     1  C    0.150078
     2  C   -0.155302
     3  O   -0.409485
     4  C    0.736935
     5  O   -0.424924
     6  N   -0.241543
     7  N   -0.237730
     8  C    0.742532
     9  O   -0.415565
    10  O   -0.409753
    11  C   -0.142899
    12  C    0.146919
    13  C   -0.157525
    14  C   -0.128318
    15  C   -0.061781
    16  C   -0.128510
    17  C   -0.162313
    18  Cl  -0.010569
    19  C   -0.164121
    20  C   -0.128378
    21  C   -0.062446
    22  C   -0.129402
    23  C   -0.170747
    24  Cl  -0.015008
    25  H    0.173573
    26  H    0.185972
    27  H    0.178838
    28  H    0.176699
    29  H    0.149807
    30  H    0.163469
    31  H    0.163083
    32  H    0.147951
    33  H    0.145994
    34  H    0.160793
    35  H    0.162610
    36  H    0.171065
 Sum of Mulliken charges =  -0.00000

 Dipole moment (field-independent basis, Debye):
    X=             -0.1253    Y=              1.2845    Z=             -0.2034  Tot=              1.3066
 Quadrupole moment (field-independent basis, Debye-Ang):
   XX=           -137.9588   YY=           -150.5596   ZZ=           -147.9588
   XY=              4.5060   XZ=              6.8550   YZ=              6.6169

 Summary of Natural Population Analysis:

                                       Natural Population
                Natural  -----------------------------------------------
    Atom  No    Charge         Core      Valence    Rydberg      Total
 -----------------------------------------------------------------------
      C    1   -0.09375      1.99901     4.08040    0.01434     6.09375
      C    2   -0.12400      1.99912     4.10553    0.01934     6.12400
      O    3   -0.52346      1.99973     6.51147    0.01225     8.52346
      C    4    0.91722      1.99950     3.03296    0.05032     5.08278
      O    5   -0.55944      1.99977     6.53895    0.02072     8.55944
      N    6   -0.21574      1.99938     5.18995    0.02640     7.21574
      N    7   -0.21217      1.99938     5.18664    0.02614     7.21217
      C    8    0.91860      1.99951     3.03178    0.05012     5.08140
      O    9   -0.54152      1.99978     6.52102    0.02073     8.54152
      O   10   -0.52272      1.99972     6.51068    0.01231     8.52272
      C   11   -0.12461      1.99914     4.10740    0.01807     6.12461
      C   12   -0.08409      1.99901     4.06992    0.01515     6.08409
      C   13   -0.19502      1.99903     4.18291    0.01308     6.19502
      C   14   -0.24115      1.99894     4.22730    0.01492     6.24115
      C   15   -0.03498      1.99856     4.01462    0.02180     6.03498
      C   16   -0.24177      1.99894     4.22791    0.01492     6.24177
      C   17   -0.19681      1.99903     4.18477    0.01301     6.19681
     Cl   18    0.00546      9.99967     6.97554    0.01933    16.99454
      C   19   -0.19925      1.99903     4.18711    0.01310     6.19925
      C   20   -0.24365      1.99893     4.22980    0.01491     6.24365
      C   21   -0.03588      1.99856     4.01558    0.02174     6.03588
      C   22   -0.24221      1.99894     4.22836    0.01492     6.24221
      C   23   -0.19876      1.99903     4.18640    0.01332     6.19876
     Cl   24    0.00183      9.99967     6.97921    0.01929    16.99817
      H   25    0.24352      0.00000     0.75537    0.00111     0.75648
      H   26    0.24356      0.00000     0.75426    0.00218     0.75644
      H   27    0.23963      0.00000     0.75848    0.00190     0.76037
      H   28    0.23914      0.00000     0.75911    0.00176     0.76086
      H   29    0.24603      0.00000     0.75299    0.00098     0.75397
      H   30    0.25762      0.00000     0.74137    0.00100     0.74238
      H   31    0.25746      0.00000     0.74154    0.00101     0.74254
      H   32    0.24492      0.00000     0.75412    0.00096     0.75508
      H   33    0.24384      0.00000     0.75516    0.00101     0.75616
      H   34    0.25631      0.00000     0.74267    0.00102     0.74369
      H   35    0.25713      0.00000     0.74187    0.00100     0.74287
      H   36    0.25868      0.00000     0.74000    0.00132     0.74132
 =======================================================================
   * Total *   -0.00000     63.98137   123.52316    0.49547   188.00000

 Normal termination of Gaussian 16 at Sat Aug 22 17:13:03 2020.
