 Gaussian 16, Revision A.03,

 ---------------------------------
 # opt=CalcAll B3LYP/6-31G* scf=qc
 ---------------------------------

 -------------------
 Title Card Required
 -------------------
 Symbolic Z-matrix:
 Charge =  0 Multiplicity = 1

 SCF Done:  E(RB3LYP) =  -838.675829046     a.u. after    9 cycles
 SCF Done:  E(RB3LYP) =  -838.704831915     a.u. after   21 cycles
 SCF Done:  E(RB3LYP) =  -838.719154372     a.u. after   19 cycles
 SCF Done:  E(RB3LYP) =  -838.747963812     a.u. after   17 cycles
 SCF Done:  E(RB3LYP) =  -838.753522249     a.u. after   19 cycles
 SCF Done:  E(RB3LYP) =  -838.761311531     a.u. after   17 cycles
 SCF Done:  E(RB3LYP) =  -838.762994812     a.u. after   15 cycles
 SCF Done:  E(RB3LYP) =  -838.763314529     a.u. after   13 cycles
 SCF Done:  E(RB3LYP) =  -838.763354715     a.u. after    9 cycles
 SCF Done:  E(RB3LYP) =  -838.763356505     a.u. after    3 cycles
 SCF Done:  E(RB3LYP) =  -838.763356575     a.u. after    2 cycles
 Optimization completed.
    -- Stationary point found.
 Normal termination of Gaussian 16 at Sat Aug 22 18:48:25 2020.

 ----------------------------------------------------------------------
 # freq B3LYP/6-31G* scf=qc volume NMR pop=NPA density=current Geom=All
 Check Guess=Read
 ----------------------------------------------------------------------

 Structure from the checkpoint file:  "azadicarboxylate_5_conf302.chk"
 -------------------
 Title Card Required
 -------------------
 Charge =  0 Multiplicity = 1

 SCF Done:  E(RB3LYP) =  -838.763356575     a.u. after    1 cycles

      1  C    Isotropic =    35.9341   Anisotropy =    76.3432

      2  O    Isotropic =     1.9064   Anisotropy =   441.3797

      3  N    Isotropic =  -348.7813   Anisotropy =   720.0172

      4  N    Isotropic =  -348.7754   Anisotropy =   720.0127

      5  C    Isotropic =    35.9343   Anisotropy =    76.3446

      6  O    Isotropic =     1.9077   Anisotropy =   441.3708

      7  N    Isotropic =   148.1924   Anisotropy =    64.2676

      8  C    Isotropic =   146.6494   Anisotropy =    26.1027

      9  C    Isotropic =   162.9814   Anisotropy =     7.0029

     10  C    Isotropic =   164.1210   Anisotropy =     3.8414

     11  C    Isotropic =   163.2841   Anisotropy =     5.5674

     12  C    Isotropic =   145.5254   Anisotropy =    25.3973

     13  N    Isotropic =   148.1935   Anisotropy =    64.2675

     14  C    Isotropic =   145.5258   Anisotropy =    25.3967

     15  C    Isotropic =   163.2843   Anisotropy =     5.5676

     16  C    Isotropic =   164.1210   Anisotropy =     3.8414

     17  C    Isotropic =   162.9815   Anisotropy =     7.0027

     18  C    Isotropic =   146.6501   Anisotropy =    26.1019

     19  H    Isotropic =    27.8331   Anisotropy =     6.0936

     20  H    Isotropic =    29.5331   Anisotropy =     7.9738

     21  H    Isotropic =    30.5961   Anisotropy =     7.0948

     22  H    Isotropic =    30.7209   Anisotropy =     9.4681

     23  H    Isotropic =    30.4386   Anisotropy =     9.5519

     24  H    Isotropic =    30.6786   Anisotropy =     7.8723

     25  H    Isotropic =    30.7345   Anisotropy =     7.2994

     26  H    Isotropic =    30.8577   Anisotropy =     9.2398

     27  H    Isotropic =    28.9981   Anisotropy =     8.1193

     28  H    Isotropic =    29.3697   Anisotropy =     7.2256

     29  H    Isotropic =    28.9981   Anisotropy =     8.1200

     30  H    Isotropic =    29.3698   Anisotropy =     7.2256

     31  H    Isotropic =    30.7345   Anisotropy =     7.2994

     32  H    Isotropic =    30.8577   Anisotropy =     9.2398

     33  H    Isotropic =    30.4386   Anisotropy =     9.5519

     34  H    Isotropic =    30.6786   Anisotropy =     7.8723

     35  H    Isotropic =    30.5961   Anisotropy =     7.0949

     36  H    Isotropic =    30.7209   Anisotropy =     9.4681

     37  H    Isotropic =    27.8332   Anisotropy =     6.0937

     38  H    Isotropic =    29.5331   Anisotropy =     7.9739

  Exact polarizability: 207.013  -1.032 150.811  -7.112   4.152 116.377
 Approx polarizability: 236.799  -6.080 236.506 -20.865  11.379 187.180

                      1                      2                      3
                      A                      A                      A
 Frequencies --     14.7072                30.1392                34.5723
 Red. masses --      4.7169                 4.4094                 4.4481
 Frc consts  --      0.0006                 0.0024                 0.0031
 IR Inten    --      3.1068                 0.0000                 2.4630

                      4                      5                      6
                      A                      A                      A
 Frequencies --     45.7103                60.8064                63.0311
 Red. masses --      3.8465                 4.3160                 5.9153
 Frc consts  --      0.0047                 0.0094                 0.0138
 IR Inten    --      3.6959                 2.7537                 0.0000

                      7                      8                      9
                      A                      A                      A
 Frequencies --     83.4189               173.6062               188.3226
 Red. masses --      4.5732                 3.1723                 2.7598
 Frc consts  --      0.0187                 0.0563                 0.0577
 IR Inten    --      0.0000                 0.0000                 9.5147

                     10                     11                     12
                      A                      A                      A
 Frequencies --    201.6057               219.7683               264.6185
 Red. masses --      8.3562                 4.1935                 2.2092
 Frc consts  --      0.2001                 0.1193                 0.0911
 IR Inten    --      2.9025                 0.0000                 3.5908

                     13                     14                     15
                      A                      A                      A
 Frequencies --    270.0511               304.5686               330.5952
 Red. masses --      2.5938                 2.6028                 2.8010
 Frc consts  --      0.1114                 0.1423                 0.1804
 IR Inten    --      0.0000                 0.0000                22.5818

                     16                     17                     18
                      A                      A                      A
 Frequencies --    361.6327               386.9856               406.6997
 Red. masses --      5.8095                 4.6907                 1.7766
 Frc consts  --      0.4476                 0.4139                 0.1731
 IR Inten    --      0.0000                 2.6181                 0.0012

                     19                     20                     21
                      A                      A                      A
 Frequencies --    406.9004               444.4244               450.8534
 Red. masses --      1.8104                 3.0920                 2.9347
 Frc consts  --      0.1766                 0.3598                 0.3515
 IR Inten    --      4.6658                 0.0000                 1.0588

                     22                     23                     24
                      A                      A                      A
 Frequencies --    476.2694               530.6708               553.6311
 Red. masses --      3.8157                 2.0349                 1.9052
 Frc consts  --      0.5099                 0.3376                 0.3441
 IR Inten    --      0.0000                 9.3487                 0.0000

                     25                     26                     27
                      A                      A                      A
 Frequencies --    575.5240               579.2813               623.4681
 Red. masses --      6.1383                 7.9395                 3.4578
 Frc consts  --      1.1979                 1.5697                 0.7919
 IR Inten    --     22.0749                 0.0000                13.1005

                     28                     29                     30
                      A                      A                      A
 Frequencies --    690.5916               747.9001               794.8823
 Red. masses --      3.9105                 5.6227                11.4599
 Frc consts  --      1.0988                 1.8530                 4.2661
 IR Inten    --      0.0000                 2.7041                21.4616

                     31                     32                     33
                      A                      A                      A
 Frequencies --    824.9358               825.4314               832.8543
 Red. masses --      1.5307                 1.4986                 3.1304
 Frc consts  --      0.6137                 0.6016                 1.2794
 IR Inten    --      0.0000                 0.4489                 0.0000

                     34                     35                     36
                      A                      A                      A
 Frequencies --    841.1324               869.4303               869.6321
 Red. masses --      3.0329                 1.4411                 1.4071
 Frc consts  --      1.2643                 0.6418                 0.6270
 IR Inten    --      2.7449                 0.0002                17.4984

                     37                     38                     39
                      A                      A                      A
 Frequencies --    889.7307               908.7121               920.6993
 Red. masses --      3.1955                 2.4928                 3.1576
 Frc consts  --      1.4904                 1.2128                 1.5771
 IR Inten    --      0.0000                 7.4877                 0.0000

                     40                     41                     42
                      A                      A                      A
 Frequencies --    970.9349               978.3133               979.5813
 Red. masses --      2.6625                 1.4963                 1.3652
 Frc consts  --      1.4788                 0.8438                 0.7719
 IR Inten    --      4.6777                 0.0000                 5.0773

                     43                     44                     45
                      A                      A                      A
 Frequencies --    981.7480              1037.9042              1040.7378
 Red. masses --      2.9030                 2.8132                 2.5470
 Frc consts  --      1.6485                 1.7855                 1.6254
 IR Inten    --      0.0000                 0.0000                87.4322

                     46                     47                     48
                      A                      A                      A
 Frequencies --   1046.8806              1052.5508              1083.3366
 Red. masses --      2.1588                 2.2561                 1.7198
 Frc consts  --      1.3940                 1.4726                 1.1892
 IR Inten    --      0.0000                 4.0662                 0.0000

                     49                     50                     51
                      A                      A                      A
 Frequencies --   1083.4028              1154.3465              1156.9483
 Red. masses --      1.7245                 2.1578                 2.0747
 Frc consts  --      1.1926                 1.6941                 1.6362
 IR Inten    --      0.5589                 0.0000                14.7580

                     52                     53                     54
                      A                      A                      A
 Frequencies --   1170.8034              1173.3991              1196.8902
 Red. masses --      1.8936                 2.0376                 1.2614
 Frc consts  --      1.5293                 1.6529                 1.0646
 IR Inten    --      0.0000                93.5862                 0.0000

                     55                     56                     57
                      A                      A                      A
 Frequencies --   1196.9610              1261.1355              1261.8743
 Red. masses --      1.2637                 1.8060                 1.7934
 Frc consts  --      1.0667                 1.6923                 1.6825
 IR Inten    --      2.5059                 0.0008               264.6428

                     58                     59                     60
                      A                      A                      A
 Frequencies --   1287.0354              1291.8440              1300.3998
 Red. masses --      2.2564                 1.8776                 1.2554
 Frc consts  --      2.2022                 1.8461                 1.2508
 IR Inten    --    289.2702                 0.0000                23.7103

                     61                     62                     63
                      A                      A                      A
 Frequencies --   1302.1588              1323.3968              1323.5353
 Red. masses --      1.3283                 1.2119                 1.2257
 Frc consts  --      1.3270                 1.2505                 1.2650
 IR Inten    --      0.0000                50.0538                 0.0007

                     64                     65                     66
                      A                      A                      A
 Frequencies --   1371.0497              1371.0760              1398.0854
 Red. masses --      1.2814                 1.2812                 1.3675
 Frc consts  --      1.4191                 1.4191                 1.5748
 IR Inten    --      0.0000                 0.0806                 0.0023

                     67                     68                     69
                      A                      A                      A
 Frequencies --   1398.0963              1400.5083              1400.5216
 Red. masses --      1.3599                 1.4619                 1.4788
 Frc consts  --      1.5661                 1.6894                 1.7090
 IR Inten    --      4.1217                 0.0028                 4.2875

                     70                     71                     72
                      A                      A                      A
 Frequencies --   1403.7032              1403.7693              1421.7411
 Red. masses --      1.4442                 1.4447                 1.3296
 Frc consts  --      1.6766                 1.6773                 1.5834
 IR Inten    --      6.0722                 0.0010                 0.0003

                     73                     74                     75
                      A                      A                      A
 Frequencies --   1422.0997              1482.9946              1486.9908
 Red. masses --      1.3381                 2.9370                 3.0954
 Frc consts  --      1.5944                 3.8057                 4.0325
 IR Inten    --     20.7824               417.7407                 0.0000

                     76                     77                     78
                      A                      A                      A
 Frequencies --   1507.8121              1507.8588              1514.2238
 Red. masses --      1.0956                 1.0978                 1.0860
 Frc consts  --      1.4676                 1.4706                 1.4672
 IR Inten    --      1.8859                 0.0000                11.1220

                     79                     80                     81
                      A                      A                      A
 Frequencies --   1514.2477              1516.9968              1517.0422
 Red. masses --      1.0864                 1.0902                 1.0887
 Frc consts  --      1.4677                 1.4782                 1.4762
 IR Inten    --      0.0006                 0.0058                26.4886

                     82                     83                     84
                      A                      A                      A
 Frequencies --   1523.2880              1523.4210              1535.1258
 Red. masses --      1.0933                 1.0950                 1.1023
 Frc consts  --      1.4947                 1.4973                 1.5305
 IR Inten    --      7.8836                 0.0005                 0.0026

                     85                     86                     87
                      A                      A                      A
 Frequencies --   1535.1794              1645.2018              1775.3751
 Red. masses --      1.0968                13.7278                11.5960
 Frc consts  --      1.5230                21.8923                21.5346
 IR Inten    --      7.9479                 0.0000                 0.0000

                     88                     89                     90
                      A                      A                      A
 Frequencies --   1797.6409              3018.5502              3018.5554
 Red. masses --     11.7392                 1.0729                 1.0729
 Frc consts  --     22.3508                 5.7598                 5.7598
 IR Inten    --    864.9606                 9.3083                14.4620

                     91                     92                     93
                      A                      A                      A
 Frequencies --   3021.2790              3021.4487              3025.3802
 Red. masses --      1.0718                 1.0715                 1.0704
 Frc consts  --      5.7641                 5.7634                 5.7725
 IR Inten    --     52.9548                 0.0056               128.9007

                     94                     95                     96
                      A                      A                      A
 Frequencies --   3025.5996              3046.1642              3046.1681
 Red. masses --      1.0707                 1.0608                 1.0608
 Frc consts  --      5.7750                 5.7993                 5.7993
 IR Inten    --      0.0006                 0.0030                51.6521

                     97                     98                     99
                      A                      A                      A
 Frequencies --   3047.9663              3048.0239              3082.1819
 Red. masses --      1.0616                 1.0616                 1.0933
 Frc consts  --      5.8105                 5.8107                 6.1195
 IR Inten    --      0.0000                36.3229                99.6355

                    100                    101                    102
                      A                      A                      A
 Frequencies --   3082.3193              3089.4689              3089.4745
 Red. masses --      1.0932                 1.1039                 1.1039
 Frc consts  --      6.1196                 6.2078                 6.2078
 IR Inten    --      0.0010                 0.1863                62.9951

                    103                    104                    105
                      A                      A                      A
 Frequencies --   3094.6700              3094.6835              3153.5722
 Red. masses --      1.1050                 1.1050                 1.0925
 Frc consts  --      6.2350                 6.2349                 6.4014
 IR Inten    --    130.3281                 0.0261                11.5514

                    106                    107                    108
                      A                      A                      A
 Frequencies --   3153.9511              3157.4295              3157.4564
 Red. masses --      1.0926                 1.0920                 1.0919
 Frc consts  --      6.4035                 6.4140                 6.4138
 IR Inten    --      0.0010                 7.3578                 0.0128

 - Thermochemistry -
 -------------------
 Temperature   298.150 Kelvin.  Pressure   1.00000 Atm.
 Atom     1 has atomic number  6 and mass  12.00000

 Molecular mass:   252.15863 amu.
 Principal axes and moments of inertia in atomic units:
                           1         2         3
     Eigenvalues --  1678.150039822.48978**********
           X            0.99996  -0.00896   0.00215
           Y            0.00895   0.99994   0.00595
           Z           -0.00220  -0.00593   0.99998
 This molecule is an asymmetric top.
 Rotational symmetry number  1.
 Warning -- assumption of classical behavior for rotation
           may cause significant error
 Rotational temperatures (Kelvin)      0.05161     0.00882     0.00792
 Rotational constants (GHZ):           1.07543     0.18374     0.16494
 Zero-point vibrational energy     864913.9 (Joules/Mol)
                                  206.71937 (Kcal/Mol)
 Warning -- explicit consideration of  26 degrees of freedom as
           vibrations may cause significant error
 Vibrational temperatures:     21.16    43.36    49.74    65.77    87.49
          (Kelvin)             90.69   120.02   249.78   270.95   290.07
                              316.20   380.73   388.54   438.21   475.65
                              520.31   556.79   585.15   585.44   639.43
                              648.68   685.25   763.52   796.55   828.05
                              833.46   897.03   993.61  1076.06  1143.66
                             1186.90  1187.61  1198.29  1210.20  1250.92
                             1251.21  1280.12  1307.43  1324.68  1396.96
                             1407.57  1409.40  1412.52  1493.31  1497.39
                             1506.23  1514.39  1558.68  1558.78  1660.85
                             1664.59  1684.52  1688.26  1722.06  1722.16
                             1814.49  1815.56  1851.76  1858.68  1870.99
                             1873.52  1904.07  1904.27  1972.63  1972.67
                             2011.53  2011.55  2015.02  2015.04  2019.62
                             2019.71  2045.57  2046.08  2133.70  2139.45
                             2169.41  2169.47  2178.63  2178.66  2182.62
                             2182.69  2191.67  2191.86  2208.70  2208.78
                             2367.08  2554.37  2586.40  4343.02  4343.03
                             4346.95  4347.19  4352.85  4353.16  4382.75
                             4382.76  4385.34  4385.43  4434.57  4434.77
                             4445.06  4445.06  4452.54  4452.56  4537.29
                             4537.83  4542.84  4542.88

 Zero-point correction=                           0.329428 (Hartree/Particle)
 Thermal correction to Energy=                    0.346603
 Thermal correction to Enthalpy=                  0.347547
 Thermal correction to Gibbs Free Energy=         0.281218
 Sum of electronic and zero-point Energies=           -838.433928
 Sum of electronic and thermal Energies=              -838.416753
 Sum of electronic and thermal Enthalpies=            -838.415809
 Sum of electronic and thermal Free Energies=         -838.482138

                     E (Thermal)             CV                S
                      KCal/Mol        Cal/Mol-Kelvin    Cal/Mol-Kelvin
 Total                  217.497             64.676            139.601
 Electronic               0.000              0.000              0.000
 Translational            0.889              2.981             42.475
 Rotational               0.889              2.981             33.555
 Vibrational            215.719             58.714             63.571
 Vibration     1          0.593              1.986              7.245
 Vibration     2          0.594              1.984              5.820
 Vibration     3          0.594              1.983              5.548
 Vibration     4          0.595              1.979              4.995
 Vibration     5          0.597              1.973              4.431
 Vibration     6          0.597              1.972              4.360
 Vibration     7          0.600              1.961              3.809
 Vibration     8          0.627              1.875              2.396
 Vibration     9          0.633              1.856              2.244
 Vibration    10          0.638              1.838              2.118
 Vibration    11          0.647              1.811              1.961
 Vibration    12          0.671              1.738              1.631
 Vibration    13          0.674              1.728              1.596
 Vibration    14          0.695              1.665              1.392
 Vibration    15          0.713              1.614              1.257
 Vibration    16          0.736              1.551              1.115
 Vibration    17          0.755              1.498              1.012
 Vibration    18          0.771              1.456              0.938
 Vibration    19          0.772              1.455              0.938
 Vibration    20          0.804              1.373              0.813
 Vibration    21          0.810              1.359              0.793
 Vibration    22          0.833              1.303              0.720
 Vibration    23          0.886              1.182              0.586
 Vibration    24          0.909              1.132              0.537
 Vibration    25          0.932              1.084              0.494
 Vibration    26          0.936              1.076              0.487

 Optimization completed.
    -- Stationary point found.
 Normal termination of Gaussian 16 at Sat Aug 22 18:57:30 2020.
 Gaussian 16:  ES64L-G16RevA.03 25-Dec-2016

 ----------------------------------------------------------------------
 # TD(NStates=10, Root=1) B3LYP/6-31G* scf=qc volume pop=NPA density=cu
 rrent Geom=AllCheck Guess=Read
 ----------------------------------------------------------------------

 Structure from the checkpoint file:  "azadicarboxylate_5_conf303.chk"
 -------------------
 Title Card Required
 -------------------
 Charge =  0 Multiplicity = 1

                         Standard orientation:
 ---------------------------------------------------------------------
 Center     Atomic      Atomic             Coordinates (Angstroms)
 Number     Number       Type             X           Y           Z
 ---------------------------------------------------------------------
      1          6           0       -1.414160   -1.072406    0.250459
      2          8           0       -1.213582   -2.226055   -0.095828
      3          7           0       -0.261273   -0.215263    0.522482
      4          7           0        0.261281    0.215278   -0.522453
      5          6           0        1.414175    1.072406   -0.250402
      6          8           0        1.213610    2.226019    0.096010
      7          7           0        2.609763    0.500574   -0.527436
      8          6           0        3.840686    1.277506   -0.359663
      9          6           0        4.759029    0.613854    0.675134
     10          6           0        5.010625   -0.861999    0.327081
     11          6           0        3.685984   -1.617715    0.135963
     12          6           0        2.791218   -0.909787   -0.890631
     13          7           0       -2.609756   -0.500542    0.527392
     14          6           0       -2.791191    0.909842    0.890500
     15          6           0       -3.686003    1.617703   -0.136099
     16          6           0       -5.010652    0.861976   -0.327107
     17          6           0       -4.759069   -0.613896   -0.675091
     18          6           0       -3.840680   -1.277489    0.359702
     19          1           0        3.554496    2.287772   -0.064796
     20          1           0        4.349432    1.333693   -1.333797
     21          1           0        4.287600    0.687336    1.664005
     22          1           0        5.705250    1.166635    0.725817
     23          1           0        5.612506   -1.340787    1.108607
     24          1           0        5.597658   -0.920547   -0.601667
     25          1           0        3.147602   -1.676898    1.090971
     26          1           0        3.869931   -2.646421   -0.197080
     27          1           0        1.816736   -1.393641   -0.966673
     28          1           0        3.259878   -0.949276   -1.885391
     29          1           0       -1.816701    1.393695    0.966458
     30          1           0       -3.259799    0.949408    1.885282
     31          1           0       -3.147666    1.676821   -1.091137
     32          1           0       -3.869933    2.646432    0.196884
     33          1           0       -5.612575    1.340719   -1.108629
     34          1           0       -5.597639    0.920574    0.601668
     35          1           0       -4.287685   -0.687429   -1.663979
     36          1           0       -5.705292   -1.166682   -0.725701
     37          1           0       -3.554494   -2.287768    0.064873
     38          1           0       -4.349392   -1.333637    1.333857
 ---------------------------------------------------------------------

 SCF Done:  E(RB3LYP) =  -838.763356575     a.u. after    1 cycles

 Excitation energies and oscillator strengths:

 Excited State   1:      Singlet-A      2.6954 eV  459.98 nm  f=0.0000  <S**2>=0.000
      68 -> 69         0.69896
 This state for optimization and/or second-order correction.
 Total Energy, E(TD-HF/TD-DFT) =  -838.664302457
 Copying the excited state density for this state as the 1-particle RhoCI density.

 Excited State   2:      Singlet-A      3.8533 eV  321.76 nm  f=0.0000  <S**2>=0.000
      66 -> 69         0.70262

 Excited State   3:      Singlet-A      3.8604 eV  321.17 nm  f=0.0020  <S**2>=0.000
      67 -> 69         0.70380

 Excited State   4:      Singlet-A      4.4412 eV  279.17 nm  f=0.0494  <S**2>=0.000
      65 -> 69         0.69352

 Excited State   5:      Singlet-A      5.0351 eV  246.24 nm  f=0.0000  <S**2>=0.000
      64 -> 69         0.68249
      68 -> 70        -0.12405

 Excited State   6:      Singlet-A      5.7682 eV  214.95 nm  f=0.0444  <S**2>=0.000
      65 -> 70         0.19665
      68 -> 71         0.66696

 Excited State   7:      Singlet-A      5.7966 eV  213.89 nm  f=0.0000  <S**2>=0.000
      64 -> 69         0.13381
      65 -> 71         0.19205
      68 -> 70         0.65590

 Excited State   8:      Singlet-A      6.4150 eV  193.27 nm  f=0.0063  <S**2>=0.000
      61 -> 69         0.10977
      63 -> 69         0.68714

 Excited State   9:      Singlet-A      6.4657 eV  191.76 nm  f=0.0000  <S**2>=0.000
      60 -> 69        -0.22735
      62 -> 69         0.66334

 Excited State  10:      Singlet-A      6.5445 eV  189.45 nm  f=0.0000  <S**2>=0.000
      58 -> 69         0.18480
      60 -> 69         0.63413
      62 -> 69         0.23980

 The electronic state is 1-A.
 Alpha  occ. eigenvalues --  -19.12129 -19.12129 -14.40352 -14.40302 -14.37175
 Alpha  occ. eigenvalues --  -14.37175 -10.30905 -10.30904 -10.22693 -10.22693
 Alpha  occ. eigenvalues --  -10.22213 -10.22213 -10.19132 -10.19132 -10.19122
 Alpha  occ. eigenvalues --  -10.19122 -10.19101 -10.19101  -1.08248  -1.04615
 Alpha  occ. eigenvalues --   -1.00813  -0.94930  -0.94773  -0.81161  -0.80510
 Alpha  occ. eigenvalues --   -0.77494  -0.76835  -0.75022  -0.69219  -0.66949
 Alpha  occ. eigenvalues --   -0.64232  -0.63557  -0.60100  -0.59039  -0.56144
 Alpha  occ. eigenvalues --   -0.54220  -0.52701  -0.48948  -0.48159  -0.47661
 Alpha  occ. eigenvalues --   -0.46468  -0.46457  -0.45767  -0.45663  -0.43897
 Alpha  occ. eigenvalues --   -0.43616  -0.42539  -0.42437  -0.41733  -0.41733
 Alpha  occ. eigenvalues --   -0.39968  -0.39670  -0.38274  -0.38194  -0.36643
 Alpha  occ. eigenvalues --   -0.36134  -0.35982  -0.34357  -0.34139  -0.33366
 Alpha  occ. eigenvalues --   -0.33311  -0.32999  -0.32867  -0.29729  -0.26933
 Alpha  occ. eigenvalues --   -0.24518  -0.24480  -0.22530
 Alpha virt. eigenvalues --   -0.06753   0.03271   0.03403   0.08523   0.08998
 Alpha virt. eigenvalues --    0.10826   0.10898   0.12711   0.12763   0.13979
 Alpha virt. eigenvalues --    0.14315   0.14450   0.14570   0.15621   0.15886

 Mulliken charges:
               1
     1  C    0.699262
     2  O   -0.468460
     3  N   -0.283479
     4  N   -0.283481
     5  C    0.699267
     6  O   -0.468460
     7  N   -0.398505
     8  C   -0.151256
     9  C   -0.262971
    10  C   -0.269563
    11  C   -0.261503
    12  C   -0.155206
    13  N   -0.398505
    14  C   -0.155206
    15  C   -0.261503
    16  C   -0.269563
    17  C   -0.262972
    18  C   -0.151252
    19  H    0.190582
    20  H    0.146513
    21  H    0.149954
    22  H    0.141620
    23  H    0.142863
    24  H    0.131596
    25  H    0.151983
    26  H    0.144001
    27  H    0.207984
    28  H    0.144582
    29  H    0.207988
    30  H    0.144581
    31  H    0.151980
    32  H    0.144002
    33  H    0.142862
    34  H    0.131596
    35  H    0.149952
    36  H    0.141620
    37  H    0.190582
    38  H    0.146514
 Sum of Mulliken charges =  -0.00000

 Dipole moment (field-independent basis, Debye):
    X=              0.0000    Y=              0.0001    Z=             -0.0003  Tot=              0.0003
 Quadrupole moment (field-independent basis, Debye-Ang):
   XX=            -77.2910   YY=           -116.7979   ZZ=           -105.9947
   XY=             -3.7839   XZ=             -3.0660   YZ=             -0.6531

 Summary of Natural Population Analysis:

                                       Natural Population
                Natural  -----------------------------------------------
    Atom  No    Charge         Core      Valence    Rydberg      Total
 -----------------------------------------------------------------------
      C    1    0.79687      1.99934     3.15702    0.04677     5.20313
      O    2   -0.57204      1.99979     6.55373    0.01853     8.57204
      N    3   -0.25232      1.99941     5.22695    0.02596     7.25232
      N    4   -0.25233      1.99941     5.22696    0.02596     7.25233
      C    5    0.79687      1.99934     3.15702    0.04677     5.20313
      O    6   -0.57204      1.99979     6.55373    0.01853     8.57204
      N    7   -0.47012      1.99928     5.45794    0.01290     7.47012
      C    8   -0.25927      1.99932     4.24380    0.01615     6.25927
      C    9   -0.47189      1.99932     4.46124    0.01132     6.47189
      C   10   -0.46563      1.99933     4.45475    0.01155     6.46563
      C   11   -0.47198      1.99932     4.46118    0.01147     6.47198
      C   12   -0.26147      1.99930     4.24580    0.01637     6.26147
      N   13   -0.47012      1.99928     5.45794    0.01290     7.47012
      C   14   -0.26148      1.99930     4.24580    0.01637     6.26148
      C   15   -0.47198      1.99932     4.46118    0.01147     6.47198
      C   16   -0.46563      1.99933     4.45475    0.01155     6.46563
      C   17   -0.47189      1.99932     4.46124    0.01132     6.47189
      C   18   -0.25927      1.99932     4.24380    0.01615     6.25927
      H   19    0.26773      0.00000     0.73020    0.00207     0.73227
      H   20    0.22577      0.00000     0.77219    0.00204     0.77423
      H   21    0.23712      0.00000     0.76099    0.00189     0.76288
      H   22    0.24445      0.00000     0.75443    0.00113     0.75555
      H   23    0.24451      0.00000     0.75438    0.00111     0.75549
      H   24    0.22574      0.00000     0.77232    0.00194     0.77426
      H   25    0.23843      0.00000     0.75957    0.00200     0.76157
      H   26    0.24603      0.00000     0.75286    0.00112     0.75397
      H   27    0.27299      0.00000     0.72451    0.00249     0.72701
      H   28    0.22510      0.00000     0.77273    0.00217     0.77490
      H   29    0.27300      0.00000     0.72451    0.00249     0.72700
      H   30    0.22510      0.00000     0.77273    0.00217     0.77490
      H   31    0.23843      0.00000     0.75957    0.00200     0.76157
      H   32    0.24603      0.00000     0.75286    0.00112     0.75397
      H   33    0.24451      0.00000     0.75438    0.00111     0.75549
      H   34    0.22574      0.00000     0.77232    0.00194     0.77426
      H   35    0.23712      0.00000     0.76099    0.00189     0.76288
      H   36    0.24445      0.00000     0.75443    0.00113     0.75555
      H   37    0.26773      0.00000     0.73020    0.00207     0.73227
      H   38    0.22577      0.00000     0.77219    0.00204     0.77423
 =======================================================================
   * Total *   -0.00000     35.98882    99.63320    0.37798   136.00000

 Normal termination of Gaussian 16 at Sat Aug 22 19:09:56 2020.
