 Gaussian 16, Revision A.03,

 ---------------------------------
 # opt=CalcAll B3LYP/6-31G* scf=qc
 ---------------------------------

 -------------------
 Title Card Required
 -------------------
 Symbolic Z-matrix:
 Charge =  0 Multiplicity = 1

 SCF Done:  E(RB3LYP) =  -1028.45891059     a.u. after   10 cycles
 SCF Done:  E(RB3LYP) =  -1028.47709848     a.u. after   21 cycles
 SCF Done:  E(RB3LYP) =  -1028.47998078     a.u. after   17 cycles
 SCF Done:  E(RB3LYP) =  -1028.48097116     a.u. after   19 cycles
 SCF Done:  E(RB3LYP) =  -1028.48117691     a.u. after   17 cycles
 SCF Done:  E(RB3LYP) =  -1028.48128420     a.u. after   17 cycles
 SCF Done:  E(RB3LYP) =  -1028.48116478     a.u. after   17 cycles
 SCF Done:  E(RB3LYP) =  -1028.48133263     a.u. after   10 cycles
 SCF Done:  E(RB3LYP) =  -1028.48134331     a.u. after   11 cycles
 SCF Done:  E(RB3LYP) =  -1028.48134444     a.u. after    7 cycles
 SCF Done:  E(RB3LYP) =  -1028.48133026     a.u. after   15 cycles
 SCF Done:  E(RB3LYP) =  -1028.48121444     a.u. after   16 cycles
 SCF Done:  E(RB3LYP) =  -1028.48132728     a.u. after   11 cycles
 SCF Done:  E(RB3LYP) =  -1028.48135932     a.u. after   13 cycles
 SCF Done:  E(RB3LYP) =  -1028.48136305     a.u. after   13 cycles
 SCF Done:  E(RB3LYP) =  -1028.48136376     a.u. after    7 cycles
 SCF Done:  E(RB3LYP) =  -1028.48136378     a.u. after    2 cycles
 SCF Done:  E(RB3LYP) =  -1028.48136377     a.u. after    6 cycles
 Optimization completed.
    -- Stationary point found.
 Normal termination of Gaussian 16 at Sat Aug 22 18:00:41 2020.

 ----------------------------------------------------------------------
 # freq B3LYP/6-31G* scf=qc volume NMR pop=NPA density=current Geom=All
 Check Guess=Read
 ----------------------------------------------------------------------

 Structure from the checkpoint file:  "azadicarboxylate_4_conf42.chk"
 -------------------
 Title Card Required
 -------------------
 Charge =  0 Multiplicity = 1

 SCF Done:  E(RB3LYP) =  -1028.48136377     a.u. after    1 cycles

      1  C    Isotropic =    63.0662   Anisotropy =   174.8868

      2  C    Isotropic =   118.8823   Anisotropy =    32.9723

      3  O    Isotropic =   147.6743   Anisotropy =   129.0630

      4  C    Isotropic =    35.5582   Anisotropy =    81.3286

      5  O    Isotropic =   -26.6127   Anisotropy =   497.2648

      6  N    Isotropic =  -323.0263   Anisotropy =   673.7738

      7  N    Isotropic =  -325.8029   Anisotropy =   676.8471

      8  C    Isotropic =    34.5752   Anisotropy =    75.5144

      9  O    Isotropic =   -18.5918   Anisotropy =   490.5803

     10  O    Isotropic =   142.5234   Anisotropy =   140.8338

     11  C    Isotropic =   120.8293   Anisotropy =    39.6842

     12  C    Isotropic =    62.0987   Anisotropy =   173.4339

     13  C    Isotropic =    65.1790   Anisotropy =   156.1853

     14  C    Isotropic =    68.2715   Anisotropy =   165.6326

     15  C    Isotropic =    66.9153   Anisotropy =   171.0418

     16  C    Isotropic =    67.5622   Anisotropy =   167.0468

     17  C    Isotropic =    63.8386   Anisotropy =   162.1350

     18  C    Isotropic =    64.8183   Anisotropy =   158.8911

     19  C    Isotropic =    67.9177   Anisotropy =   166.8144

     20  C    Isotropic =    67.0004   Anisotropy =   171.2878

     21  C    Isotropic =    67.9329   Anisotropy =   166.5331

     22  C    Isotropic =    64.9833   Anisotropy =   157.3733

     23  H    Isotropic =    27.2968   Anisotropy =     4.5573

     24  H    Isotropic =    27.1112   Anisotropy =     4.2272

     25  H    Isotropic =    26.3713   Anisotropy =     2.7813

     26  H    Isotropic =    27.7210   Anisotropy =     5.2678

     27  H    Isotropic =    24.9436   Anisotropy =     6.4948

     28  H    Isotropic =    24.9334   Anisotropy =     4.6163

     29  H    Isotropic =    24.8873   Anisotropy =     4.2625

     30  H    Isotropic =    24.8378   Anisotropy =     4.8556

     31  H    Isotropic =    24.2775   Anisotropy =     7.5713

     32  H    Isotropic =    24.9126   Anisotropy =     6.8291

     33  H    Isotropic =    24.9119   Anisotropy =     4.5906

     34  H    Isotropic =    24.8806   Anisotropy =     4.1637

     35  H    Isotropic =    24.8714   Anisotropy =     4.6501

     36  H    Isotropic =    24.8405   Anisotropy =     6.9455

  Exact polarizability: 195.839   5.096 207.387  38.536  -0.437 150.557
 Approx polarizability: 245.106  13.873 338.124  76.347   2.446 257.692

                      1                      2                      3
                      A                      A                      A
 Frequencies --      4.8789                11.4887                19.4550
 Red. masses --      5.4711                 3.7352                 5.3546
 Frc consts  --      0.0001                 0.0003                 0.0012
 IR Inten    --      0.0307                 0.0146                 0.1931

                      4                      5                      6
                      A                      A                      A
 Frequencies --     25.7354                26.6740                34.6110
 Red. masses --      4.9686                 6.2506                 7.8733
 Frc consts  --      0.0019                 0.0026                 0.0056
 IR Inten    --      1.2887                 0.0680                 0.3019

                      7                      8                      9
                      A                      A                      A
 Frequencies --     44.8059                68.6165                97.1918
 Red. masses --      9.1331                 6.0774                 6.0764
 Frc consts  --      0.0108                 0.0169                 0.0338
 IR Inten    --      0.6122                 1.6749                 0.0422

                     10                     11                     12
                      A                      A                      A
 Frequencies --    106.3605               151.3195               199.0537
 Red. masses --      6.3435                 6.9892                 6.4783
 Frc consts  --      0.0423                 0.0943                 0.1512
 IR Inten    --      0.2601                 0.2020                 0.9944

                     13                     14                     15
                      A                      A                      A
 Frequencies --    211.8883               238.7861               245.3598
 Red. masses --      8.2624                 8.7035                 7.9676
 Frc consts  --      0.2186                 0.2924                 0.2826
 IR Inten    --      8.2082                 2.9143                 4.1774

                     16                     17                     18
                      A                      A                      A
 Frequencies --    281.5492               335.8283               346.0795
 Red. masses --      6.6913                 2.1647                 5.2989
 Frc consts  --      0.3125                 0.1438                 0.3739
 IR Inten    --      4.8385                 0.8704                 3.1923

                     19                     20                     21
                      A                      A                      A
 Frequencies --    364.5535               416.4289               417.0017
 Red. masses --      2.4065                 2.9565                 2.9659
 Frc consts  --      0.1884                 0.3021                 0.3039
 IR Inten    --      2.0536                 0.0014                 0.0829

                     22                     23                     24
                      A                      A                      A
 Frequencies --    426.9351               492.4844               509.9717
 Red. masses --      5.2718                 4.1782                 4.5734
 Frc consts  --      0.5662                 0.5971                 0.7008
 IR Inten    --     17.0265                 0.7398                42.9333

                     25                     26                     27
                      A                      A                      A
 Frequencies --    569.1893               601.3507               604.6268
 Red. masses --      7.3131                 5.1083                 8.6322
 Frc consts  --      1.3959                 1.0884                 1.8593
 IR Inten    --     13.0332                 8.0516                 5.0745

                     28                     29                     30
                      A                      A                      A
 Frequencies --    615.2905               635.5760               635.9541
 Red. masses --      7.4006                 6.3471                 6.3151
 Frc consts  --      1.6507                 1.5106                 1.5048
 IR Inten    --      4.2614                 0.6261                 0.0207

                     31                     32                     33
                      A                      A                      A
 Frequencies --    648.5876               712.3640               713.7515
 Red. masses --      6.1688                 1.8584                 1.7979
 Frc consts  --      1.5289                 0.5556                 0.5397
 IR Inten    --      6.7263                37.6013                16.8285

                     34                     35                     36
                      A                      A                      A
 Frequencies --    771.2945               774.2350               810.7275
 Red. masses --      1.9308                 2.0428                10.4304
 Frc consts  --      0.6767                 0.7215                 4.0392
 IR Inten    --     81.1573                 1.7789                24.7820

                     37                     38                     39
                      A                      A                      A
 Frequencies --    818.0270               838.8991               854.5599
 Red. masses --      5.5354                 3.7753                 4.9584
 Frc consts  --      2.1824                 1.5654                 2.1334
 IR Inten    --      2.1514                 9.6319                41.1900

                     40                     41                     42
                      A                      A                      A
 Frequencies --    860.6430               863.9979               908.3771
 Red. masses --      1.2486                 1.2505                 4.4439
 Frc consts  --      0.5449                 0.5500                 2.1604
 IR Inten    --      0.0077                 0.0415                49.5665

                     43                     44                     45
                      A                      A                      A
 Frequencies --    924.2974               941.2721               966.2514
 Red. masses --      1.8319                 1.5518                 4.1371
 Frc consts  --      0.9221                 0.8101                 2.2758
 IR Inten    --     12.2909                 4.5227                52.8461

                     46                     47                     48
                      A                      A                      A
 Frequencies --    968.8310               974.0880               977.7009
 Red. masses --      1.3565                 1.3622                 3.3835
 Frc consts  --      0.7502                 0.7616                 1.9056
 IR Inten    --      0.0123                 0.0976                51.0970

                     49                     50                     51
                      A                      A                      A
 Frequencies --    985.3442              1000.5841              1001.6854
 Red. masses --      1.8947                 1.8415                 2.3936
 Frc consts  --      1.0839                 1.0863                 1.4150
 IR Inten    --      4.0061                14.1314                23.2981

                     52                     53                     54
                      A                      A                      A
 Frequencies --   1002.6843              1019.0863              1020.0633
 Red. masses --      1.3244                 4.5358                 6.2831
 Frc consts  --      0.7845                 2.7754                 3.8519
 IR Inten    --      2.3122                 6.8524                 1.1538

                     55                     56                     57
                      A                      A                      A
 Frequencies --   1022.5257              1058.6329              1058.9826
 Red. masses --      3.2678                 2.1971                 2.2331
 Frc consts  --      2.0131                 1.4507                 1.4755
 IR Inten    --     11.2546                 0.3695                 1.1690

                     58                     59                     60
                      A                      A                      A
 Frequencies --   1121.0646              1123.5851              1194.8096
 Red. masses --      1.5104                 1.5189                 1.1031
 Frc consts  --      1.1184                 1.1298                 0.9278
 IR Inten    --      1.9792                 2.1184                 0.0029

                     61                     62                     63
                      A                      A                      A
 Frequencies --   1194.8483              1214.0648              1215.9561
 Red. masses --      1.1024                 1.1769                 1.1539
 Frc consts  --      0.9273                 1.0221                 1.0052
 IR Inten    --      0.0269                67.2289                23.7737

                     64                     65                     66
                      A                      A                      A
 Frequencies --   1231.8935              1240.2793              1247.6302
 Red. masses --      5.0313                 2.9443                 2.6038
 Frc consts  --      4.4986                 2.6685                 2.3879
 IR Inten    --   1071.4056                10.5385                56.0116

                     67                     68                     69
                      A                      A                      A
 Frequencies --   1260.2377              1277.5143              1299.7555
 Red. masses --      1.1739                 3.1070                 1.7132
 Frc consts  --      1.0985                 2.9877                 1.7053
 IR Inten    --      8.8330               273.3114               131.1763

                     70                     71                     72
                      A                      A                      A
 Frequencies --   1363.2214              1364.9224              1370.0416
 Red. masses --      5.0931                 4.2009                 1.2920
 Frc consts  --      5.5765                 4.6111                 1.4288
 IR Inten    --      0.5876                 2.7419                 0.5663

                     73                     74                     75
                      A                      A                      A
 Frequencies --   1375.3158              1416.2119              1420.5278
 Red. masses --      1.2665                 1.3570                 1.4872
 Frc consts  --      1.4114                 1.6036                 1.7682
 IR Inten    --      3.1558                18.0441                20.4338

                     76                     77                     78
                      A                      A                      A
 Frequencies --   1503.6936              1504.7555              1518.5395
 Red. masses --      2.2160                 2.1974                 1.1186
 Frc consts  --      2.9522                 2.9315                 1.5198
 IR Inten    --      7.1268                 6.9754                12.0619

                     79                     80                     81
                      A                      A                      A
 Frequencies --   1529.1070              1547.9809              1550.1479
 Red. masses --      1.0970                 2.2095                 2.2760
 Frc consts  --      1.5112                 3.1194                 3.2223
 IR Inten    --      5.2033                 4.8864                 2.6898

                     82                     83                     84
                      A                      A                      A
 Frequencies --   1646.1657              1647.7023              1656.2514
 Red. masses --      5.4962                 5.5380                13.9734
 Frc consts  --      8.7752                 8.8585                22.5843
 IR Inten    --      0.8074                 0.3826                 0.9516

                     85                     86                     87
                      A                      A                      A
 Frequencies --   1666.1257              1668.4157              1835.5327
 Red. masses --      5.5107                 5.5862                12.3675
 Frc consts  --      9.0130                 9.1617                24.5504
 IR Inten    --      0.4530                 0.3709                52.7895

                     88                     89                     90
                      A                      A                      A
 Frequencies --   1853.1770              3089.1096              3110.9458
 Red. masses --     12.4256                 1.0577                 1.0577
 Frc consts  --     25.1421                 5.9465                 6.0312
 IR Inten    --    583.7327                14.3335                20.7113

                     91                     92                     93
                      A                      A                      A
 Frequencies --   3139.8575              3168.3535              3179.4324
 Red. masses --      1.1101                 1.1106                 1.0866
 Frc consts  --      6.4484                 6.5689                 6.4719
 IR Inten    --      9.6348                 3.8536                 4.9455

                     94                     95                     96
                      A                      A                      A
 Frequencies --   3180.8673              3183.6767              3187.6440
 Red. masses --      1.0858                 1.0880                 1.0877
 Frc consts  --      6.4725                 6.4973                 6.5120
 IR Inten    --      4.0944                 2.7696                 2.7700

                     97                     98                     99
                      A                      A                      A
 Frequencies --   3192.5261              3198.1760              3202.6228
 Red. masses --      1.0906                 1.0914                 1.0942
 Frc consts  --      6.5492                 6.5771                 6.6124
 IR Inten    --     10.5856                22.6382                32.5874

                    100                    101                    102
                      A                      A                      A
 Frequencies --   3207.6964              3212.2651              3215.5254
 Red. masses --      1.0948                 1.0980                 1.0964
 Frc consts  --      6.6373                 6.6755                 6.6790
 IR Inten    --     23.2522                16.4776                 7.7866

 - Thermochemistry -
 -------------------
 Temperature   298.150 Kelvin.  Pressure   1.00000 Atm.
 Atom     1 has atomic number  6 and mass  12.00000

 Molecular mass:   298.09536 amu.
 Principal axes and moments of inertia in atomic units:
                           1         2         3
     Eigenvalues --  4278.54224********************
           X            1.00000   0.00080   0.00175
           Y           -0.00080   0.99999  -0.00382
           Z           -0.00175   0.00382   0.99999
 This molecule is an asymmetric top.
 Rotational symmetry number  1.
 Warning -- assumption of classical behavior for rotation
           may cause significant error
 Rotational temperatures (Kelvin)      0.02024     0.00516     0.00441
 Rotational constants (GHZ):           0.42181     0.10751     0.09192
 Zero-point vibrational energy     728314.7 (Joules/Mol)
                                  174.07140 (Kcal/Mol)
 Warning -- explicit consideration of  28 degrees of freedom as
           vibrations may cause significant error
 Vibrational temperatures:      7.02    16.53    27.99    37.03    38.38
          (Kelvin)             49.80    64.47    98.72   139.84   153.03
                              217.72   286.39   304.86   343.56   353.02
                              405.09   483.18   497.93   524.51   599.15
                              599.97   614.26   708.58   733.74   818.94
                              865.21   869.92   885.27   914.45   915.00
                              933.17  1024.93  1026.93  1109.72  1113.95
                             1166.46  1176.96  1206.99  1229.52  1238.27
                             1243.10  1306.95  1329.86  1354.28  1390.22
                             1393.93  1401.50  1406.69  1417.69  1439.62
                             1441.20  1442.64  1466.24  1467.64  1471.19
                             1523.14  1523.64  1612.96  1616.59  1719.06
                             1719.12  1746.77  1749.49  1772.42  1784.49
                             1795.06  1813.20  1838.06  1870.06  1961.37
                             1963.82  1971.18  1978.77  2037.61  2043.82
                             2163.48  2165.01  2184.84  2200.04  2227.20
                             2230.32  2368.47  2370.68  2382.98  2397.18
                             2400.48  2640.92  2666.31  4444.54  4475.96
                             4517.55  4558.55  4574.49  4576.56  4580.60
                             4586.31  4593.33  4601.46  4607.86  4615.16
                             4621.73  4626.42

 Zero-point correction=                           0.277400 (Hartree/Particle)
 Thermal correction to Energy=                    0.297078
 Thermal correction to Enthalpy=                  0.298023
 Thermal correction to Gibbs Free Energy=         0.220564
 Sum of electronic and zero-point Energies=          -1028.203963
 Sum of electronic and thermal Energies=             -1028.184285
 Sum of electronic and thermal Enthalpies=           -1028.183341
 Sum of electronic and thermal Free Energies=        -1028.260800

                     E (Thermal)             CV                S
                      KCal/Mol        Cal/Mol-Kelvin    Cal/Mol-Kelvin
 Total                  186.419             71.505            163.026
 Electronic               0.000              0.000              0.000
 Translational            0.889              2.981             42.974
 Rotational               0.889              2.981             35.599
 Vibrational            184.642             65.543             84.453
 Vibration     1          0.593              1.987              9.437
 Vibration     2          0.593              1.987              7.735
 Vibration     3          0.593              1.986              6.689
 Vibration     4          0.593              1.985              6.134
 Vibration     5          0.593              1.984              6.063
 Vibration     6          0.594              1.983              5.546
 Vibration     7          0.595              1.979              5.034
 Vibration     8          0.598              1.969              4.193
 Vibration     9          0.603              1.951              3.510
 Vibration    10          0.605              1.944              3.334
 Vibration    11          0.619              1.901              2.656
 Vibration    12          0.637              1.841              2.142
 Vibration    13          0.643              1.823              2.027
 Vibration    14          0.657              1.781              1.812
 Vibration    15          0.660              1.770              1.764
 Vibration    16          0.681              1.708              1.524
 Vibration    17          0.717              1.604              1.232
 Vibration    18          0.724              1.583              1.184
 Vibration    19          0.738              1.545              1.103
 Vibration    20          0.780              1.435              0.904
 Vibration    21          0.780              1.433              0.902
 Vibration    22          0.789              1.412              0.869
 Vibration    23          0.848              1.267              0.677
 Vibration    24          0.865              1.228              0.634
 Vibration    25          0.925              1.098              0.506
 Vibration    26          0.960              1.029              0.447
 Vibration    27          0.963              1.022              0.442
 Vibration    28          0.975              1.000              0.424

 Optimization completed.
    -- Stationary point found.
 Normal termination of Gaussian 16 at Sat Aug 22 18:09:40 2020.
 Gaussian 16:  ES64L-G16RevA.03 25-Dec-2016

 ----------------------------------------------------------------------
 # TD(NStates=10, Root=1) B3LYP/6-31G* scf=qc volume pop=NPA density=cu
 rrent Geom=AllCheck Guess=Read
 ----------------------------------------------------------------------

 Structure from the checkpoint file:  "azadicarboxylate_4_conf43.chk"
 -------------------
 Title Card Required
 -------------------
 Charge =  0 Multiplicity = 1

                         Standard orientation:
 ---------------------------------------------------------------------
 Center     Atomic      Atomic             Coordinates (Angstroms)
 Number     Number       Type             X           Y           Z
 ---------------------------------------------------------------------
      1          6           0       -4.312089   -0.261980    0.293344
      2          6           0       -3.711136    1.078704    0.602639
      3          8           0       -2.325072    1.077149    0.126803
      4          6           0       -1.691960    2.243556    0.231997
      5          8           0       -2.121961    3.282034    0.666055
      6          7           0       -0.380410    2.161145   -0.382458
      7          7           0        0.459751    1.600676    0.345242
      8          6           0        1.795495    1.612303   -0.216906
      9          8           0        2.615667    2.430290    0.117448
     10          8           0        1.952563    0.562962   -1.019483
     11          6           0        3.303301    0.348556   -1.554163
     12          6           0        4.127329   -0.525412   -0.647146
     13          6           0        4.087984   -1.918745   -0.785001
     14          6           0        4.840979   -2.735720    0.057847
     15          6           0        5.642540   -2.164410    1.048332
     16          6           0        5.687495   -0.776210    1.192843
     17          6           0        4.933856    0.040491    0.349778
     18          6           0       -4.196378   -1.318721    1.204666
     19          6           0       -4.741631   -2.568542    0.912277
     20          6           0       -5.410063   -2.772849   -0.296675
     21          6           0       -5.530767   -1.724716   -1.211297
     22          6           0       -4.983842   -0.476092   -0.916267
     23          1           0       -3.693595    1.287014    1.675779
     24          1           0       -4.237317    1.896277    0.103050
     25          1           0        3.763803    1.325374   -1.710221
     26          1           0        3.117787   -0.130903   -2.516570
     27          1           0        3.465153   -2.364023   -1.557586
     28          1           0        4.804883   -3.815329   -0.059983
     29          1           0        6.232237   -2.799393    1.704143
     30          1           0        6.311145   -0.328275    1.961657
     31          1           0        4.958620    1.120026    0.466034
     32          1           0       -3.676065   -1.159862    2.146240
     33          1           0       -4.647917   -3.380810    1.627814
     34          1           0       -5.838704   -3.745243   -0.523819
     35          1           0       -6.052838   -1.878577   -2.151693
     36          1           0       -5.078837    0.340219   -1.628519
 ---------------------------------------------------------------------

 SCF Done:  E(RB3LYP) =  -1028.48136377     a.u. after    1 cycles

 Excitation energies and oscillator strengths:

 Excited State   1:      Singlet-A      2.9301 eV  423.14 nm  f=0.0019  <S**2>=0.000
      74 -> 79        -0.23094
      78 -> 79         0.65384
 This state for optimization and/or second-order correction.
 Total Energy, E(TD-HF/TD-DFT) =  -1028.37368485
 Copying the excited state density for this state as the 1-particle RhoCI density.

 Excited State   2:      Singlet-A      4.2581 eV  291.17 nm  f=0.0065  <S**2>=0.000
      74 -> 79         0.14094
      76 -> 79         0.58805
      77 -> 79         0.33151
      78 -> 79         0.14651

 Excited State   3:      Singlet-A      4.2924 eV  288.85 nm  f=0.0019  <S**2>=0.000
      76 -> 79        -0.32939
      77 -> 79         0.62215

 Excited State   4:      Singlet-A      4.3714 eV  283.63 nm  f=0.0130  <S**2>=0.000
      74 -> 79         0.63781
      76 -> 79        -0.18449
      78 -> 79         0.20927

 Excited State   5:      Singlet-A      4.3925 eV  282.26 nm  f=0.0004  <S**2>=0.000
      75 -> 79         0.70198

 Excited State   6:      Singlet-A      5.0955 eV  243.32 nm  f=0.0759  <S**2>=0.000
      73 -> 79         0.67940

 Excited State   7:      Singlet-A      5.2051 eV  238.20 nm  f=0.0020  <S**2>=0.000
      72 -> 79         0.67299
      78 -> 84         0.10286

 Excited State   8:      Singlet-A      5.3887 eV  230.08 nm  f=0.0020  <S**2>=0.000
      74 -> 83        -0.12870
      76 -> 83        -0.36512
      77 -> 80        -0.19661
      77 -> 81         0.48460
      78 -> 83        -0.24490

 Excited State   9:      Singlet-A      5.4009 eV  229.56 nm  f=0.0023  <S**2>=0.000
      74 -> 82         0.30539
      75 -> 80         0.47264
      75 -> 81         0.17795
      76 -> 82        -0.21745
      78 -> 82         0.27149

 Excited State  10:      Singlet-A      5.4328 eV  228.21 nm  f=0.0046  <S**2>=0.000
      71 -> 79         0.61495
      72 -> 79         0.12168
      78 -> 80         0.17679
      78 -> 81        -0.10674
      78 -> 84        -0.16415

 The electronic state is 1-A.
 Alpha  occ. eigenvalues --  -19.21205 -19.21193 -19.15616 -19.15541 -14.42246
 Alpha  occ. eigenvalues --  -14.42186 -10.35194 -10.35019 -10.26002 -10.25916
 Alpha  occ. eigenvalues --  -10.20858 -10.20547 -10.20210 -10.20181 -10.20151
 Alpha  occ. eigenvalues --  -10.20035 -10.20019 -10.19960 -10.19860 -10.19759
 Alpha  occ. eigenvalues --  -10.19653 -10.19593  -1.13700  -1.12465  -1.05651
 Alpha  occ. eigenvalues --   -1.03825  -1.03475  -0.86718  -0.86348  -0.81059
 Alpha  occ. eigenvalues --   -0.78819  -0.76708  -0.75500  -0.75136  -0.71530
 Alpha  occ. eigenvalues --   -0.69494  -0.62306  -0.61707  -0.61408  -0.59952
 Alpha  occ. eigenvalues --   -0.58736  -0.56878  -0.55667  -0.52611  -0.52432
 Alpha  occ. eigenvalues --   -0.51298  -0.49671  -0.49111  -0.48196  -0.47562
 Alpha  occ. eigenvalues --   -0.46955  -0.46727  -0.45409  -0.44078  -0.43178
 Alpha  occ. eigenvalues --   -0.43052  -0.42989  -0.42353  -0.41751  -0.40077
 Alpha  occ. eigenvalues --   -0.38964  -0.38867  -0.37860  -0.37126  -0.36590
 Alpha  occ. eigenvalues --   -0.36122  -0.35317  -0.35207  -0.34638  -0.31924
 Alpha  occ. eigenvalues --   -0.31754  -0.31050  -0.30789  -0.26355  -0.26029
 Alpha  occ. eigenvalues --   -0.25812  -0.25699  -0.24585
 Alpha virt. eigenvalues --   -0.08127  -0.02133  -0.01936  -0.01121  -0.00763
 Alpha virt. eigenvalues --    0.00727   0.01088   0.08179   0.08924   0.10700
 Alpha virt. eigenvalues --    0.11205   0.12244   0.12377   0.12478   0.13141

 Mulliken charges:
               1
     1  C    0.145941
     2  C   -0.142518
     3  O   -0.411622
     4  C    0.742156
     5  O   -0.417213
     6  N   -0.248493
     7  N   -0.243754
     8  C    0.737100
     9  O   -0.412159
    10  O   -0.407526
    11  C   -0.157118
    12  C    0.150546
    13  C   -0.167354
    14  C   -0.128708
    15  C   -0.123548
    16  C   -0.129661
    17  C   -0.175935
    18  C   -0.162378
    19  C   -0.129166
    20  C   -0.123401
    21  C   -0.129348
    22  C   -0.164286
    23  H    0.173430
    24  H    0.175617
    25  H    0.184565
    26  H    0.169341
    27  H    0.135029
    28  H    0.135973
    29  H    0.136384
    30  H    0.138891
    31  H    0.161211
    32  H    0.138604
    33  H    0.137738
    34  H    0.137001
    35  H    0.137542
    36  H    0.137118
 Sum of Mulliken charges =  -0.00000

 Dipole moment (field-independent basis, Debye):
    X=             -0.5354    Y=             -4.7093    Z=             -1.0468  Tot=              4.8538
 Quadrupole moment (field-independent basis, Debye-Ang):
   XX=           -100.2655   YY=           -129.8637   ZZ=           -116.3145
   XY=              0.1099   XZ=              1.9041   YZ=             -4.3019

 Summary of Natural Population Analysis:

                                       Natural Population
                Natural  -----------------------------------------------
    Atom  No    Charge         Core      Valence    Rydberg      Total
 -----------------------------------------------------------------------
      C    1   -0.08150      1.99901     4.06718    0.01530     6.08150
      C    2   -0.12424      1.99914     4.10713    0.01797     6.12424
      O    3   -0.52477      1.99972     6.51277    0.01227     8.52477
      C    4    0.91897      1.99951     3.03136    0.05015     5.08103
      O    5   -0.54165      1.99977     6.52112    0.02075     8.54165
      N    6   -0.22425      1.99939     5.19841    0.02645     7.22425
      N    7   -0.22362      1.99938     5.19787    0.02637     7.22362
      C    8    0.92536      1.99951     3.02460    0.05053     5.07464
      O    9   -0.54604      1.99977     6.52558    0.02069     8.54604
      O   10   -0.52161      1.99973     6.50955    0.01233     8.52161
      C   11   -0.12596      1.99912     4.10785    0.01899     6.12596
      C   12   -0.09163      1.99901     4.07809    0.01454     6.09163
      C   13   -0.21166      1.99903     4.19946    0.01317     6.21166
      C   14   -0.23057      1.99910     4.21764    0.01383     6.23057
      C   15   -0.22200      1.99910     4.20943    0.01347     6.22200
      C   16   -0.22905      1.99910     4.21608    0.01386     6.22905
      C   17   -0.21160      1.99903     4.19919    0.01338     6.21160
      C   18   -0.20847      1.99903     4.19632    0.01313     6.20847
      C   19   -0.22893      1.99910     4.21600    0.01382     6.22893
      C   20   -0.22221      1.99910     4.20964    0.01347     6.22221
      C   21   -0.22926      1.99910     4.21634    0.01383     6.22926
      C   22   -0.20939      1.99903     4.19725    0.01311     6.20939
      H   23    0.23705      0.00000     0.76118    0.00177     0.76295
      H   24    0.23777      0.00000     0.76031    0.00192     0.76223
      H   25    0.24271      0.00000     0.75516    0.00214     0.75729
      H   26    0.24086      0.00000     0.75796    0.00118     0.75914
      H   27    0.23711      0.00000     0.76183    0.00106     0.76289
      H   28    0.23954      0.00000     0.75961    0.00085     0.76046
      H   29    0.23897      0.00000     0.76021    0.00082     0.76103
      H   30    0.24097      0.00000     0.75820    0.00083     0.75903
      H   31    0.25169      0.00000     0.74692    0.00139     0.74831
      H   32    0.23906      0.00000     0.75991    0.00103     0.76094
      H   33    0.24039      0.00000     0.75877    0.00084     0.75961
      H   34    0.23940      0.00000     0.75979    0.00082     0.76060
      H   35    0.24030      0.00000     0.75886    0.00084     0.75970
      H   36    0.23825      0.00000     0.76072    0.00102     0.76175
 =======================================================================
   * Total *   -0.00000     43.98378   111.57828    0.43794   156.00000

 Normal termination of Gaussian 16 at Sat Aug 22 18:18:05 2020.
