 Gaussian 16, Revision A.03,

 ---------------------------------
 # opt=CalcAll B3LYP/6-31G* scf=qc
 ---------------------------------

 -------------------
 Title Card Required
 -------------------
 Symbolic Z-matrix:
 Charge =  0 Multiplicity = 1

 SCF Done:  E(RB3LYP) =  -838.698380710     a.u. after   10 cycles
 SCF Done:  E(RB3LYP) =  -838.718922541     a.u. after   21 cycles
 SCF Done:  E(RB3LYP) =  -838.729019475     a.u. after   17 cycles
 SCF Done:  E(RB3LYP) =  -838.754675119     a.u. after   17 cycles
 SCF Done:  E(RB3LYP) =  -838.760615632     a.u. after   21 cycles
 SCF Done:  E(RB3LYP) =  -838.762873161     a.u. after   13 cycles
 SCF Done:  E(RB3LYP) =  -838.763268144     a.u. after   15 cycles
 SCF Done:  E(RB3LYP) =  -838.763301510     a.u. after    9 cycles
 SCF Done:  E(RB3LYP) =  -838.763303681     a.u. after    4 cycles
 SCF Done:  E(RB3LYP) =  -838.763303692     a.u. after    2 cycles
 Optimization completed.
    -- Stationary point found.
 Normal termination of Gaussian 16 at Sat Aug 22 16:39:01 2020.

 ----------------------------------------------------------------------
 # freq B3LYP/6-31G* scf=qc volume NMR pop=NPA density=current Geom=All
 Check Guess=Read
 ----------------------------------------------------------------------

 Structure from the checkpoint file:  "azadicarboxylate_5_conf222.chk"
 -------------------
 Title Card Required
 -------------------
 Charge =  0 Multiplicity = 1

 SCF Done:  E(RB3LYP) =  -838.763303692     a.u. after    1 cycles

      1  C    Isotropic =    36.1886   Anisotropy =    78.9072

      2  O    Isotropic =     1.5218   Anisotropy =   439.5776

      3  N    Isotropic =  -355.6839   Anisotropy =   733.5238

      4  N    Isotropic =  -355.6929   Anisotropy =   733.5331

      5  C    Isotropic =    36.1883   Anisotropy =    78.9056

      6  O    Isotropic =     1.5203   Anisotropy =   439.5844

      7  N    Isotropic =   147.7189   Anisotropy =    67.2312

      8  C    Isotropic =   146.8772   Anisotropy =    25.8889

      9  C    Isotropic =   162.9264   Anisotropy =     6.6646

     10  C    Isotropic =   164.0872   Anisotropy =     3.7892

     11  C    Isotropic =   163.1585   Anisotropy =     6.6819

     12  C    Isotropic =   145.5420   Anisotropy =    24.4740

     13  N    Isotropic =   147.7167   Anisotropy =    67.2322

     14  C    Isotropic =   145.5417   Anisotropy =    24.4750

     15  C    Isotropic =   163.1584   Anisotropy =     6.6819

     16  C    Isotropic =   164.0872   Anisotropy =     3.7892

     17  C    Isotropic =   162.9264   Anisotropy =     6.6644

     18  C    Isotropic =   146.8769   Anisotropy =    25.8890

     19  H    Isotropic =    27.8457   Anisotropy =     6.2738

     20  H    Isotropic =    29.6060   Anisotropy =     8.0926

     21  H    Isotropic =    30.3977   Anisotropy =     7.2348

     22  H    Isotropic =    30.6545   Anisotropy =     9.3541

     23  H    Isotropic =    30.3847   Anisotropy =     9.4000

     24  H    Isotropic =    30.6706   Anisotropy =     7.7918

     25  H    Isotropic =    30.4461   Anisotropy =     7.1506

     26  H    Isotropic =    30.8209   Anisotropy =     9.2392

     27  H    Isotropic =    28.9553   Anisotropy =     9.6459

     28  H    Isotropic =    29.5166   Anisotropy =     7.6245

     29  H    Isotropic =    28.9552   Anisotropy =     9.6456

     30  H    Isotropic =    29.5165   Anisotropy =     7.6246

     31  H    Isotropic =    30.4460   Anisotropy =     7.1507

     32  H    Isotropic =    30.8208   Anisotropy =     9.2392

     33  H    Isotropic =    30.3846   Anisotropy =     9.4000

     34  H    Isotropic =    30.6706   Anisotropy =     7.7918

     35  H    Isotropic =    30.3977   Anisotropy =     7.2348

     36  H    Isotropic =    30.6545   Anisotropy =     9.3541

     37  H    Isotropic =    27.8457   Anisotropy =     6.2739

     38  H    Isotropic =    29.6060   Anisotropy =     8.0926

  Exact polarizability: 215.832  -2.663 150.473  -3.490   3.394 113.712
 Approx polarizability: 242.234  -9.974 234.926  -6.558  12.673 182.345

                      1                      2                      3
                      A                      A                      A
 Frequencies --     13.5750                33.9656                42.4959
 Red. masses --      5.0875                 4.3835                 4.7342
 Frc consts  --      0.0006                 0.0030                 0.0050
 IR Inten    --      3.5194                 2.6649                 0.0000

                      4                      5                      6
                      A                      A                      A
 Frequencies --     49.8908                51.6951                59.2051
 Red. masses --      3.4351                 4.4757                 4.5383
 Frc consts  --      0.0050                 0.0070                 0.0094
 IR Inten    --      2.5800                 0.0000                 2.2672

                      7                      8                      9
                      A                      A                      A
 Frequencies --     81.4434               179.5091               187.2025
 Red. masses --      5.3813                 2.8509                 3.6977
 Frc consts  --      0.0210                 0.0541                 0.0763
 IR Inten    --      0.0000                 0.0000                 4.1157

                     10                     11                     12
                      A                      A                      A
 Frequencies --    207.4192               219.5594               253.6983
 Red. masses --      4.1011                 7.8739                 2.2440
 Frc consts  --      0.1040                 0.2236                 0.0851
 IR Inten    --      5.6870                 0.0000                 0.0000

                     13                     14                     15
                      A                      A                      A
 Frequencies --    262.9816               298.7672               315.8510
 Red. masses --      2.3628                 2.5351                 2.8986
 Frc consts  --      0.0963                 0.1333                 0.1704
 IR Inten    --      3.6418                 0.0000                25.7292

                     16                     17                     18
                      A                      A                      A
 Frequencies --    364.7192               379.6629               390.1200
 Red. masses --      6.1002                 4.0650                 1.7557
 Frc consts  --      0.4781                 0.3452                 0.1574
 IR Inten    --      0.0000                 2.5042                 0.0000

                     19                     20                     21
                      A                      A                      A
 Frequencies --    394.6909               446.9750               451.0160
 Red. masses --      1.9019                 3.3757                 2.9410
 Frc consts  --      0.1746                 0.3974                 0.3525
 IR Inten    --      6.0629                 0.0000                 1.0235

                     22                     23                     24
                      A                      A                      A
 Frequencies --    475.2983               525.3237               536.9854
 Red. masses --      3.3302                 2.0091                 2.3540
 Frc consts  --      0.4433                 0.3267                 0.3999
 IR Inten    --      0.0000                 9.9312                 0.0000

                     25                     26                     27
                      A                      A                      A
 Frequencies --    577.2969               598.4334               626.9299
 Red. masses --      6.2602                 5.0152                 3.5335
 Frc consts  --      1.2292                 1.0582                 0.8183
 IR Inten    --     20.1501                 0.0000                11.0378

                     28                     29                     30
                      A                      A                      A
 Frequencies --    685.5159               747.9749               795.4945
 Red. masses --      3.7246                 5.3673                11.7376
 Frc consts  --      1.0313                 1.7692                 4.3763
 IR Inten    --      0.0000                 3.2777                19.9521

                     31                     32                     33
                      A                      A                      A
 Frequencies --    823.2445               823.7450               836.2751
 Red. masses --      1.5125                 1.4936                 3.2412
 Frc consts  --      0.6039                 0.5971                 1.3355
 IR Inten    --      0.0000                 0.6805                 0.0000

                     34                     35                     36
                      A                      A                      A
 Frequencies --    844.6548               869.7298               869.7603
 Red. masses --      3.0815                 1.4047                 1.3974
 Frc consts  --      1.2953                 0.6261                 0.6228
 IR Inten    --      5.7952                 0.0019                17.8381

                     37                     38                     39
                      A                      A                      A
 Frequencies --    893.9824               912.0653               922.8682
 Red. masses --      3.3197                 2.5228                 3.2233
 Frc consts  --      1.5632                 1.2365                 1.6175
 IR Inten    --      0.0000                 8.5485                 0.0000

                     40                     41                     42
                      A                      A                      A
 Frequencies --    972.2900               976.6449               978.6478
 Red. masses --      2.8019                 1.6954                 1.3450
 Frc consts  --      1.5606                 0.9528                 0.7590
 IR Inten    --      5.0367                 0.0000                 5.9425

                     43                     44                     45
                      A                      A                      A
 Frequencies --    981.7350              1035.1878              1041.6029
 Red. masses --      2.4794                 2.7352                 2.5589
 Frc consts  --      1.4079                 1.7269                 1.6357
 IR Inten    --      0.0000                 0.0000                78.1006

                     46                     47                     48
                      A                      A                      A
 Frequencies --   1049.6148              1056.0372              1084.6348
 Red. masses --      2.1378                 2.2625                 1.7048
 Frc consts  --      1.3877                 1.4866                 1.1816
 IR Inten    --      0.0000                 5.1870                 0.0000

                     49                     50                     51
                      A                      A                      A
 Frequencies --   1084.9030              1156.1370              1159.4277
 Red. masses --      1.7141                 2.2432                 2.1513
 Frc consts  --      1.1887                 1.7666                 1.7039
 IR Inten    --      0.5434                 0.0000                22.3985

                     52                     53                     54
                      A                      A                      A
 Frequencies --   1168.6818              1169.8936              1195.7356
 Red. masses --      1.8651                 1.9975                 1.2473
 Frc consts  --      1.5009                 1.6108                 1.0507
 IR Inten    --      0.0001                97.7180                 2.4952

                     55                     56                     57
                      A                      A                      A
 Frequencies --   1195.7992              1263.4468              1264.2333
 Red. masses --      1.2487                 1.7708                 1.8038
 Frc consts  --      1.0520                 1.6655                 1.6986
 IR Inten    --      0.0002               306.7350                 0.0003

                     58                     59                     60
                      A                      A                      A
 Frequencies --   1288.3661              1293.8966              1301.8961
 Red. masses --      2.2454                 1.7765                 1.2759
 Frc consts  --      2.1960                 1.7523                 1.2741
 IR Inten    --    293.6644                 0.0000                38.4072

                     61                     62                     63
                      A                      A                      A
 Frequencies --   1304.1485              1323.6942              1323.8019
 Red. masses --      1.3965                 1.2078                 1.2033
 Frc consts  --      1.3994                 1.2468                 1.2424
 IR Inten    --      0.0000                 0.0035                39.8064

                     64                     65                     66
                      A                      A                      A
 Frequencies --   1372.6787              1372.7291              1398.4460
 Red. masses --      1.2874                 1.2874                 1.3966
 Frc consts  --      1.4292                 1.4294                 1.6093
 IR Inten    --      0.9808                 0.0001                 0.0000

                     67                     68                     69
                      A                      A                      A
 Frequencies --   1398.5081              1401.7832              1401.9198
 Red. masses --      1.3914                 1.4480                 1.4589
 Frc consts  --      1.6033                 1.6765                 1.6893
 IR Inten    --      3.3452                 0.0000                 5.4020

                     70                     71                     72
                      A                      A                      A
 Frequencies --   1405.7016              1405.7747              1424.5729
 Red. masses --      1.4425                 1.4406                 1.3423
 Frc consts  --      1.6794                 1.6774                 1.6049
 IR Inten    --      8.5200                 0.0004                 0.0000

                     73                     74                     75
                      A                      A                      A
 Frequencies --   1425.7637              1480.7516              1484.8215
 Red. masses --      1.3446                 2.8297                 2.9864
 Frc consts  --      1.6105                 3.6555                 3.8792
 IR Inten    --     17.6759               415.7639                 0.0002

                     76                     77                     78
                      A                      A                      A
 Frequencies --   1507.8008              1507.8030              1514.7440
 Red. masses --      1.0934                 1.0934                 1.0857
 Frc consts  --      1.4647                 1.4646                 1.4678
 IR Inten    --      0.0008                 1.9208                 9.9000

                     79                     80                     81
                      A                      A                      A
 Frequencies --   1514.7449              1518.5334              1518.9865
 Red. masses --      1.0856                 1.0947                 1.0960
 Frc consts  --      1.4676                 1.4873                 1.4899
 IR Inten    --      0.7845                 4.8770                 0.0000

                     82                     83                     84
                      A                      A                      A
 Frequencies --   1519.5020              1519.5702              1534.0239
 Red. masses --      1.0957                 1.0893                 1.1004
 Frc consts  --      1.4905                 1.4819                 1.5257
 IR Inten    --      0.0011                22.3549                 6.2930

                     85                     86                     87
                      A                      A                      A
 Frequencies --   1534.1157              1653.6981              1776.2989
 Red. masses --      1.1016                13.7991                11.6186
 Frc consts  --      1.5275                22.2339                21.5992
 IR Inten    --      0.0000                 0.0000                 0.0000

                     88                     89                     90
                      A                      A                      A
 Frequencies --   1797.9591              3013.8133              3013.8261
 Red. masses --     11.6766                 1.0732                 1.0732
 Frc consts  --     22.2396                 5.7434                 5.7434
 IR Inten    --    844.9720                 0.0681                25.4615

                     91                     92                     93
                      A                      A                      A
 Frequencies --   3017.1988              3017.3329              3025.3790
 Red. masses --      1.0730                 1.0730                 1.0691
 Frc consts  --      5.7554                 5.7556                 5.7654
 IR Inten    --     83.9771                 0.0034                80.8895

                     94                     95                     96
                      A                      A                      A
 Frequencies --   3025.4614              3045.5074              3045.5100
 Red. masses --      1.0692                 1.0609                 1.0609
 Frc consts  --      5.7662                 5.7974                 5.7975
 IR Inten    --      0.0006                53.6573                 0.0002

                     97                     98                     99
                      A                      A                      A
 Frequencies --   3047.5311              3047.5581              3082.0760
 Red. masses --      1.0617                 1.0617                 1.0934
 Frc consts  --      5.8097                 5.8096                 6.1197
 IR Inten    --      0.0050                41.9110               108.1448

                    100                    101                    102
                      A                      A                      A
 Frequencies --   3082.2259              3088.9675              3088.9781
 Red. masses --      1.0933                 1.1037                 1.1036
 Frc consts  --      6.1197                 6.2046                 6.2045
 IR Inten    --      0.0001                 0.0026                65.2508

                    103                    104                    105
                      A                      A                      A
 Frequencies --   3094.1653              3094.2082              3147.2719
 Red. masses --      1.1049                 1.1049                 1.0920
 Frc consts  --      6.2326                 6.2329                 6.3731
 IR Inten    --      0.0029               125.1880                11.9917

                    106                    107                    108
                      A                      A                      A
 Frequencies --   3147.6379              3156.4612              3156.4751
 Red. masses --      1.0921                 1.0916                 1.0916
 Frc consts  --      6.3750                 6.4078                 6.4078
 IR Inten    --      0.0007                 7.4305                 0.0587

 - Thermochemistry -
 -------------------
 Temperature   298.150 Kelvin.  Pressure   1.00000 Atm.
 Atom     1 has atomic number  6 and mass  12.00000

 Molecular mass:   252.15863 amu.
 Principal axes and moments of inertia in atomic units:
                           1         2         3
     Eigenvalues --  1497.54139********************
           X            0.99997  -0.00749  -0.00039
           Y            0.00749   0.99995  -0.00723
           Z            0.00044   0.00723   0.99997
 This molecule is an asymmetric top.
 Rotational symmetry number  1.
 Warning -- assumption of classical behavior for rotation
           may cause significant error
 Rotational temperatures (Kelvin)      0.05784     0.00802     0.00724
 Rotational constants (GHZ):           1.20514     0.16708     0.15087
 Zero-point vibrational energy     864596.8 (Joules/Mol)
                                  206.64359 (Kcal/Mol)
 Warning -- explicit consideration of  26 degrees of freedom as
           vibrations may cause significant error
 Vibrational temperatures:     19.53    48.87    61.14    71.78    74.38
          (Kelvin)             85.18   117.18   258.27   269.34   298.43
                              315.90   365.02   378.37   429.86   454.44
                              524.75   546.25   561.30   567.87   643.10
                              648.91   683.85   755.82   772.60   830.60
                              861.01   902.01   986.30  1076.17  1144.54
                             1184.47  1185.19  1203.21  1215.27  1251.35
                             1251.39  1286.24  1312.26  1327.80  1398.91
                             1405.17  1408.06  1412.50  1489.40  1498.63
                             1510.16  1519.40  1560.55  1560.93  1663.42
                             1668.16  1681.47  1683.22  1720.40  1720.49
                             1817.82  1818.95  1853.67  1861.63  1873.14
                             1876.38  1904.50  1904.66  1974.98  1975.05
                             2012.05  2012.14  2016.85  2017.05  2022.49
                             2022.60  2049.64  2051.36  2130.47  2136.33
                             2169.39  2169.39  2179.38  2179.38  2184.83
                             2185.48  2186.22  2186.32  2207.12  2207.25
                             2379.30  2555.70  2586.86  4336.21  4336.22
                             4341.08  4341.27  4352.85  4352.96  4381.81
                             4381.81  4384.72  4384.76  4434.42  4434.64
                             4444.34  4444.35  4451.81  4451.88  4528.22
                             4528.75  4541.44  4541.46

 Zero-point correction=                           0.329308 (Hartree/Particle)
 Thermal correction to Energy=                    0.346543
 Thermal correction to Enthalpy=                  0.347487
 Thermal correction to Gibbs Free Energy=         0.281092
 Sum of electronic and zero-point Energies=           -838.433996
 Sum of electronic and thermal Energies=              -838.416761
 Sum of electronic and thermal Enthalpies=            -838.415816
 Sum of electronic and thermal Free Energies=         -838.482212

                     E (Thermal)             CV                S
                      KCal/Mol        Cal/Mol-Kelvin    Cal/Mol-Kelvin
 Total                  217.459             64.774            139.741
 Electronic               0.000              0.000              0.000
 Translational            0.889              2.981             42.475
 Rotational               0.889              2.981             33.625
 Vibrational            215.682             58.812             63.641
 Vibration     1          0.593              1.986              7.404
 Vibration     2          0.594              1.983              5.583
 Vibration     3          0.595              1.980              5.139
 Vibration     4          0.595              1.978              4.822
 Vibration     5          0.596              1.977              4.751
 Vibration     6          0.597              1.974              4.484
 Vibration     7          0.600              1.962              3.856
 Vibration     8          0.629              1.867              2.334
 Vibration     9          0.632              1.857              2.255
 Vibration    10          0.641              1.829              2.066
 Vibration    11          0.647              1.811              1.963
 Vibration    12          0.665              1.757              1.705
 Vibration    13          0.670              1.741              1.642
 Vibration    14          0.692              1.676              1.424
 Vibration    15          0.703              1.643              1.331
 Vibration    16          0.738              1.545              1.102
 Vibration    17          0.750              1.514              1.041
 Vibration    18          0.758              1.491              1.000
 Vibration    19          0.762              1.482              0.982
 Vibration    20          0.806              1.368              0.805
 Vibration    21          0.810              1.359              0.793
 Vibration    22          0.832              1.305              0.723
 Vibration    23          0.880              1.194              0.598
 Vibration    24          0.892              1.168              0.572
 Vibration    25          0.934              1.080              0.490
 Vibration    26          0.956              1.035              0.452

 Optimization completed.
    -- Stationary point found.
 Normal termination of Gaussian 16 at Sat Aug 22 16:47:41 2020.
 Gaussian 16:  ES64L-G16RevA.03 25-Dec-2016

 ----------------------------------------------------------------------
 # TD(NStates=10, Root=1) B3LYP/6-31G* scf=qc volume pop=NPA density=cu
 rrent Geom=AllCheck Guess=Read
 ----------------------------------------------------------------------

 Structure from the checkpoint file:  "azadicarboxylate_5_conf223.chk"
 -------------------
 Title Card Required
 -------------------
 Charge =  0 Multiplicity = 1

                         Standard orientation:
 ---------------------------------------------------------------------
 Center     Atomic      Atomic             Coordinates (Angstroms)
 Number     Number       Type             X           Y           Z
 ---------------------------------------------------------------------
      1          6           0       -1.514230   -0.958724   -0.085421
      2          8           0       -1.295109   -2.148198   -0.250911
      3          7           0       -0.466510    0.010049   -0.410982
      4          7           0        0.466551   -0.009969    0.411192
      5          6           0        1.514279    0.958790    0.085636
      6          8           0        1.295221    2.148253    0.251289
      7          7           0        2.692256    0.389473   -0.266562
      8          6           0        3.862790    1.237788   -0.506064
      9          6           0        5.058139    0.754883    0.324753
     10          6           0        5.328660   -0.739146    0.088826
     11          6           0        4.061914   -1.570231    0.343147
     12          6           0        2.880148   -1.049545   -0.485326
     13          7           0       -2.692270   -0.389417    0.266591
     14          6           0       -2.880253    1.049613    0.485197
     15          6           0       -4.061984    1.570154   -0.343416
     16          6           0       -5.328707    0.739033   -0.089101
     17          6           0       -5.058093   -0.755007   -0.324853
     18          6           0       -3.862779   -1.237765    0.506100
     19          1           0        3.580059    2.262251   -0.260878
     20          1           0        4.111004    1.199346   -1.577774
     21          1           0        4.845952    0.930062    1.387736
     22          1           0        5.940111    1.354457    0.067695
     23          1           0        6.146990   -1.085629    0.731160
     24          1           0        5.658951   -0.888990   -0.949907
     25          1           0        3.794340   -1.523991    1.406970
     26          1           0        4.232946   -2.625319    0.097276
     27          1           0        1.958398   -1.574460   -0.230161
     28          1           0        3.070352   -1.217748   -1.556519
     29          1           0       -1.958510    1.574548    0.230050
     30          1           0       -3.070546    1.217914    1.556359
     31          1           0       -3.794331    1.523819   -1.407214
     32          1           0       -4.233087    2.625259   -0.097665
     33          1           0       -6.147008    1.085407   -0.731531
     34          1           0       -5.659081    0.888968    0.949592
     35          1           0       -4.845820   -0.930286   -1.387802
     36          1           0       -5.940053   -1.354599   -0.067796
     37          1           0       -3.579981   -2.262240    0.261042
     38          1           0       -4.111072   -1.199223    1.577788
 ---------------------------------------------------------------------

 SCF Done:  E(RB3LYP) =  -838.763303692     a.u. after    1 cycles

 Excitation energies and oscillator strengths:

 Excited State   1:      Singlet-A      2.6142 eV  474.28 nm  f=0.0000  <S**2>=0.000
      66 -> 69         0.10193
      68 -> 69         0.69567
 This state for optimization and/or second-order correction.
 Total Energy, E(TD-HF/TD-DFT) =  -838.667235139
 Copying the excited state density for this state as the 1-particle RhoCI density.

 Excited State   2:      Singlet-A      3.8372 eV  323.11 nm  f=0.0000  <S**2>=0.000
      66 -> 69         0.69852

 Excited State   3:      Singlet-A      3.8419 eV  322.71 nm  f=0.0054  <S**2>=0.000
      67 -> 69         0.70261

 Excited State   4:      Singlet-A      4.3211 eV  286.93 nm  f=0.0371  <S**2>=0.000
      65 -> 69         0.69390

 Excited State   5:      Singlet-A      4.9882 eV  248.55 nm  f=0.0000  <S**2>=0.000
      64 -> 69         0.68328
      68 -> 70         0.11665

 Excited State   6:      Singlet-A      5.7585 eV  215.31 nm  f=0.0624  <S**2>=0.000
      65 -> 70         0.18549
      68 -> 71         0.66775

 Excited State   7:      Singlet-A      5.8122 eV  213.32 nm  f=0.0000  <S**2>=0.000
      64 -> 69        -0.13352
      65 -> 71         0.18644
      68 -> 70         0.65569

 Excited State   8:      Singlet-A      6.3563 eV  195.06 nm  f=0.0041  <S**2>=0.000
      59 -> 69        -0.25229
      61 -> 69         0.33692
      63 -> 69         0.54625

 Excited State   9:      Singlet-A      6.4499 eV  192.23 nm  f=0.0000  <S**2>=0.000
      60 -> 69         0.13033
      62 -> 69         0.69126

 Excited State  10:      Singlet-A      6.4563 eV  192.04 nm  f=0.0460  <S**2>=0.000
      59 -> 69        -0.27878
      61 -> 69         0.45317
      63 -> 69        -0.44302

 The electronic state is 1-A.
 Alpha  occ. eigenvalues --  -19.12058 -19.12058 -14.40289 -14.40238 -14.37102
 Alpha  occ. eigenvalues --  -14.37101 -10.30828 -10.30828 -10.22641 -10.22641
 Alpha  occ. eigenvalues --  -10.22163 -10.22163 -10.19170 -10.19170 -10.19158
 Alpha  occ. eigenvalues --  -10.19158 -10.19126 -10.19126  -1.08170  -1.04535
 Alpha  occ. eigenvalues --   -1.00731  -0.94838  -0.94694  -0.81215  -0.80580
 Alpha  occ. eigenvalues --   -0.77502  -0.76845  -0.74974  -0.69168  -0.66834
 Alpha  occ. eigenvalues --   -0.64272  -0.63569  -0.60227  -0.58719  -0.55485
 Alpha  occ. eigenvalues --   -0.54440  -0.53059  -0.49334  -0.47879  -0.47607
 Alpha  occ. eigenvalues --   -0.46684  -0.46381  -0.45362  -0.44892  -0.43986
 Alpha  occ. eigenvalues --   -0.43871  -0.43078  -0.42845  -0.41774  -0.41306
 Alpha  occ. eigenvalues --   -0.39995  -0.39639  -0.38478  -0.37977  -0.36310
 Alpha  occ. eigenvalues --   -0.36115  -0.36039  -0.34425  -0.33965  -0.33418
 Alpha  occ. eigenvalues --   -0.33258  -0.33003  -0.32872  -0.29754  -0.26812
 Alpha  occ. eigenvalues --   -0.24592  -0.24477  -0.22314
 Alpha virt. eigenvalues --   -0.06905   0.03441   0.03489   0.08904   0.08904
 Alpha virt. eigenvalues --    0.10939   0.11009   0.12638   0.12827   0.14020
 Alpha virt. eigenvalues --    0.14302   0.14494   0.14542   0.15627   0.15867

 Mulliken charges:
               1
     1  C    0.700788
     2  O   -0.468476
     3  N   -0.281283
     4  N   -0.281279
     5  C    0.700779
     6  O   -0.468473
     7  N   -0.404799
     8  C   -0.148015
     9  C   -0.264481
    10  C   -0.269328
    11  C   -0.263916
    12  C   -0.149024
    13  N   -0.404806
    14  C   -0.149020
    15  C   -0.263916
    16  C   -0.269328
    17  C   -0.264481
    18  C   -0.148015
    19  H    0.190290
    20  H    0.147041
    21  H    0.148401
    22  H    0.142588
    23  H    0.142528
    24  H    0.132883
    25  H    0.147783
    26  H    0.144366
    27  H    0.207650
    28  H    0.145010
    29  H    0.207645
    30  H    0.145011
    31  H    0.147782
    32  H    0.144366
    33  H    0.142528
    34  H    0.132884
    35  H    0.148400
    36  H    0.142588
    37  H    0.190290
    38  H    0.147041
 Sum of Mulliken charges =  -0.00000

 Dipole moment (field-independent basis, Debye):
    X=             -0.0002    Y=             -0.0001    Z=             -0.0006  Tot=              0.0006
 Quadrupole moment (field-independent basis, Debye-Ang):
   XX=            -75.5556   YY=           -115.9589   ZZ=           -106.2934
   XY=             -4.2996   XZ=             -3.3910   YZ=             -1.6519

 Summary of Natural Population Analysis:

                                       Natural Population
                Natural  -----------------------------------------------
    Atom  No    Charge         Core      Valence    Rydberg      Total
 -----------------------------------------------------------------------
      C    1    0.79566      1.99934     3.15823    0.04676     5.20434
      O    2   -0.57188      1.99979     6.55353    0.01856     8.57188
      N    3   -0.24953      1.99941     5.22390    0.02622     7.24953
      N    4   -0.24952      1.99941     5.22389    0.02622     7.24952
      C    5    0.79567      1.99934     3.15823    0.04676     5.20433
      O    6   -0.57188      1.99979     6.55353    0.01856     8.57188
      N    7   -0.47116      1.99928     5.45900    0.01288     7.47116
      C    8   -0.25924      1.99932     4.24372    0.01620     6.25924
      C    9   -0.47141      1.99932     4.46068    0.01141     6.47141
      C   10   -0.46519      1.99933     4.45433    0.01154     6.46519
      C   11   -0.47064      1.99932     4.45982    0.01150     6.47064
      C   12   -0.26142      1.99930     4.24606    0.01606     6.26142
      N   13   -0.47116      1.99928     5.45900    0.01288     7.47116
      C   14   -0.26142      1.99930     4.24605    0.01606     6.26142
      C   15   -0.47064      1.99932     4.45982    0.01150     6.47064
      C   16   -0.46519      1.99933     4.45433    0.01154     6.46519
      C   17   -0.47141      1.99932     4.46068    0.01141     6.47141
      C   18   -0.25924      1.99932     4.24372    0.01620     6.25924
      H   19    0.26763      0.00000     0.73035    0.00202     0.73237
      H   20    0.22462      0.00000     0.77335    0.00202     0.77538
      H   21    0.23641      0.00000     0.76172    0.00188     0.76359
      H   22    0.24547      0.00000     0.75340    0.00113     0.75453
      H   23    0.24433      0.00000     0.75455    0.00111     0.75567
      H   24    0.22658      0.00000     0.77147    0.00195     0.77342
      H   25    0.23597      0.00000     0.76196    0.00206     0.76403
      H   26    0.24634      0.00000     0.75256    0.00110     0.75366
      H   27    0.27381      0.00000     0.72383    0.00236     0.72619
      H   28    0.22363      0.00000     0.77408    0.00229     0.77637
      H   29    0.27381      0.00000     0.72383    0.00236     0.72619
      H   30    0.22363      0.00000     0.77408    0.00229     0.77637
      H   31    0.23597      0.00000     0.76196    0.00206     0.76403
      H   32    0.24634      0.00000     0.75256    0.00110     0.75366
      H   33    0.24433      0.00000     0.75455    0.00111     0.75567
      H   34    0.22658      0.00000     0.77147    0.00195     0.77342
      H   35    0.23641      0.00000     0.76172    0.00188     0.76359
      H   36    0.24547      0.00000     0.75340    0.00113     0.75453
      H   37    0.26763      0.00000     0.73035    0.00202     0.73237
      H   38    0.22462      0.00000     0.77336    0.00202     0.77538
 =======================================================================
   * Total *    0.00000     35.98882    99.63306    0.37812   136.00000

 Normal termination of Gaussian 16 at Sat Aug 22 16:56:50 2020.
