 Gaussian 16, Revision A.03,

 ---------------------------------
 # opt=CalcAll B3LYP/6-31G* scf=qc
 ---------------------------------

 -------------------
 Title Card Required
 -------------------
 Symbolic Z-matrix:
 Charge =  0 Multiplicity = 1

 SCF Done:  E(RB3LYP) =  -838.690185970     a.u. after    9 cycles
 SCF Done:  E(RB3LYP) =  -838.710212839     a.u. after   19 cycles
 SCF Done:  E(RB3LYP) =  -838.720773518     a.u. after   15 cycles
 SCF Done:  E(RB3LYP) =  -838.748857323     a.u. after   19 cycles
 SCF Done:  E(RB3LYP) =  -838.755568592     a.u. after   25 cycles
 SCF Done:  E(RB3LYP) =  -838.758459140     a.u. after   17 cycles
 SCF Done:  E(RB3LYP) =  -838.759857647     a.u. after   17 cycles
 SCF Done:  E(RB3LYP) =  -838.761810605     a.u. after   23 cycles
 SCF Done:  E(RB3LYP) =  -838.763038329     a.u. after   15 cycles
 SCF Done:  E(RB3LYP) =  -838.763236777     a.u. after   19 cycles
 SCF Done:  E(RB3LYP) =  -838.763314275     a.u. after    9 cycles
 SCF Done:  E(RB3LYP) =  -838.763314964     a.u. after    4 cycles
 SCF Done:  E(RB3LYP) =  -838.763315169     a.u. after    4 cycles
 Optimization completed.
    -- Stationary point found.
 Normal termination of Gaussian 16 at Sat Aug 22 16:59:55 2020.

 ----------------------------------------------------------------------
 # freq B3LYP/6-31G* scf=qc volume NMR pop=NPA density=current Geom=All
 Check Guess=Read
 ----------------------------------------------------------------------

 Structure from the checkpoint file:  "azadicarboxylate_5_conf192.chk"
 -------------------
 Title Card Required
 -------------------
 Charge =  0 Multiplicity = 1

 SCF Done:  E(RB3LYP) =  -838.763315169     a.u. after    1 cycles

      1  C    Isotropic =    36.1536   Anisotropy =    77.5334

      2  O    Isotropic =     1.6572   Anisotropy =   439.9929

      3  N    Isotropic =  -352.7754   Anisotropy =   728.1378

      4  N    Isotropic =  -352.0790   Anisotropy =   725.7397

      5  C    Isotropic =    36.0166   Anisotropy =    77.6573

      6  O    Isotropic =     1.7210   Anisotropy =   440.3611

      7  N    Isotropic =   148.2414   Anisotropy =    66.7675

      8  C    Isotropic =   145.5300   Anisotropy =    24.4335

      9  C    Isotropic =   163.1387   Anisotropy =     6.6568

     10  C    Isotropic =   164.1197   Anisotropy =     3.8077

     11  C    Isotropic =   162.9423   Anisotropy =     6.7319

     12  C    Isotropic =   146.8850   Anisotropy =    26.0125

     13  N    Isotropic =   147.9046   Anisotropy =    64.7779

     14  C    Isotropic =   145.5757   Anisotropy =    25.0253

     15  C    Isotropic =   163.1964   Anisotropy =     5.5664

     16  C    Isotropic =   164.1526   Anisotropy =     3.9798

     17  C    Isotropic =   162.9847   Anisotropy =     7.1414

     18  C    Isotropic =   146.6741   Anisotropy =    25.9768

     19  H    Isotropic =    28.9781   Anisotropy =     9.5510

     20  H    Isotropic =    29.5067   Anisotropy =     7.6849

     21  H    Isotropic =    30.4592   Anisotropy =     7.1165

     22  H    Isotropic =    30.8099   Anisotropy =     9.2301

     23  H    Isotropic =    30.3796   Anisotropy =     9.3960

     24  H    Isotropic =    30.6657   Anisotropy =     7.8641

     25  H    Isotropic =    30.4020   Anisotropy =     7.1797

     26  H    Isotropic =    30.6501   Anisotropy =     9.3792

     27  H    Isotropic =    27.8411   Anisotropy =     6.2238

     28  H    Isotropic =    29.6016   Anisotropy =     8.1852

     29  H    Isotropic =    29.0003   Anisotropy =     8.0939

     30  H    Isotropic =    29.3615   Anisotropy =     7.3360

     31  H    Isotropic =    30.7593   Anisotropy =     7.3906

     32  H    Isotropic =    30.8467   Anisotropy =     9.2065

     33  H    Isotropic =    30.4416   Anisotropy =     9.5006

     34  H    Isotropic =    30.6799   Anisotropy =     7.9042

     35  H    Isotropic =    30.6133   Anisotropy =     7.0813

     36  H    Isotropic =    30.7261   Anisotropy =     9.4494

     37  H    Isotropic =    27.8398   Anisotropy =     6.0986

     38  H    Isotropic =    29.5334   Anisotropy =     8.0620

  Exact polarizability: 210.284  -2.476 150.829  -1.958   0.548 115.532
 Approx polarizability: 241.970 -10.585 238.301  -7.323  -0.236 179.660

                      1                      2                      3
                      A                      A                      A
 Frequencies --     15.2917                37.3309                39.0472
 Red. masses --      4.8680                 4.4689                 4.9149
 Frc consts  --      0.0007                 0.0037                 0.0044
 IR Inten    --      3.2821                 1.7560                 3.5006

                      4                      5                      6
                      A                      A                      A
 Frequencies --     47.7824                55.2176                61.6607
 Red. masses --      3.4663                 4.4073                 5.0480
 Frc consts  --      0.0047                 0.0079                 0.0113
 IR Inten    --      0.4270                 0.2393                 2.1021

                      7                      8                      9
                      A                      A                      A
 Frequencies --     83.3955               175.9465               191.3795
 Red. masses --      4.7500                 2.9762                 3.2125
 Frc consts  --      0.0195                 0.0543                 0.0693
 IR Inten    --      0.1763                 0.1666                 8.1936

                     10                     11                     12
                      A                      A                      A
 Frequencies --    200.9648               219.7879               256.1941
 Red. masses --      5.7987                 5.0978                 2.2153
 Frc consts  --      0.1380                 0.1451                 0.0857
 IR Inten    --      2.3978                 0.2954                 0.8595

                     13                     14                     15
                      A                      A                      A
 Frequencies --    270.9720               300.4585               323.9737
 Red. masses --      2.5139                 2.5590                 2.8212
 Frc consts  --      0.1088                 0.1361                 0.1745
 IR Inten    --      2.6978                 1.8650                22.2122

                     16                     17                     18
                      A                      A                      A
 Frequencies --    364.5429               381.6481               392.8553
 Red. masses --      5.5701                 4.9133                 1.8097
 Frc consts  --      0.4361                 0.4216                 0.1646
 IR Inten    --      1.3485                 1.6284                 2.4549

                     19                     20                     21
                      A                      A                      A
 Frequencies --    405.9549               445.4990               450.4886
 Red. masses --      1.7847                 3.1825                 2.9945
 Frc consts  --      0.1733                 0.3721                 0.3580
 IR Inten    --      2.4532                 0.1289                 0.8395

                     22                     23                     24
                      A                      A                      A
 Frequencies --    476.6083               525.7855               550.4656
 Red. masses --      3.4204                 2.0174                 2.1756
 Frc consts  --      0.4578                 0.3286                 0.3884
 IR Inten    --      0.1278                 8.6721                 0.8288

                     25                     26                     27
                      A                      A                      A
 Frequencies --    576.3181               583.7593               627.2926
 Red. masses --      6.2036                 5.7000                 3.5402
 Frc consts  --      1.2140                 1.1444                 0.8208
 IR Inten    --     19.6579                 3.4101                10.3116

                     28                     29                     30
                      A                      A                      A
 Frequencies --    687.8287               747.9770               795.1661
 Red. masses --      3.8345                 5.4913                11.6068
 Frc consts  --      1.0688                 1.8101                 4.3239
 IR Inten    --      0.3115                 2.8947                20.4416

                     31                     32                     33
                      A                      A                      A
 Frequencies --    823.3188               825.1680               834.4578
 Red. masses --      1.5089                 1.5043                 3.1928
 Frc consts  --      0.6026                 0.6035                 1.3099
 IR Inten    --      0.2654                 0.2582                 0.7694

                     34                     35                     36
                      A                      A                      A
 Frequencies --    843.2781               869.5318               869.9112
 Red. masses --      3.0699                 1.4006                 1.4217
 Frc consts  --      1.2862                 0.6239                 0.6339
 IR Inten    --      3.3708                 9.8314                 7.6208

                     37                     38                     39
                      A                      A                      A
 Frequencies --    891.8938               910.3556               922.0510
 Red. masses --      3.2472                 2.5246                 3.1708
 Frc consts  --      1.5219                 1.2327                 1.5883
 IR Inten    --      0.0513                 7.7232                 0.2395

                     40                     41                     42
                      A                      A                      A
 Frequencies --    971.5878               977.1622               979.4033
 Red. masses --      2.7183                 1.5636                 1.3831
 Frc consts  --      1.5119                 0.8797                 0.7817
 IR Inten    --      4.1630                 1.1864                 4.2492

                     43                     44                     45
                      A                      A                      A
 Frequencies --    981.8668              1036.0572              1041.1033
 Red. masses --      2.6637                 2.7546                 2.5568
 Frc consts  --      1.5130                 1.7421                 1.6328
 IR Inten    --      0.4160                 5.6729                78.7511

                     46                     47                     48
                      A                      A                      A
 Frequencies --   1048.1224              1054.6532              1083.5414
 Red. masses --      2.1585                 2.2448                 1.7165
 Frc consts  --      1.3971                 1.4711                 1.1874
 IR Inten    --      0.3490                 3.1204                 0.2780

                     49                     50                     51
                      A                      A                      A
 Frequencies --   1084.7358              1154.9887              1158.4342
 Red. masses --      1.7104                 2.1700                 2.1371
 Frc consts  --      1.1857                 1.7055                 1.6898
 IR Inten    --      0.2287                 2.6392                16.1834

                     52                     53                     54
                      A                      A                      A
 Frequencies --   1169.4486              1172.3842              1195.6568
 Red. masses --      1.8910                 2.0041                 1.2513
 Frc consts  --      1.5237                 1.6229                 1.0539
 IR Inten    --     16.1730                77.9232                 1.3883

                     55                     56                     57
                      A                      A                      A
 Frequencies --   1197.0115              1261.1990              1264.1883
 Red. masses --      1.2643                 1.7978                 1.7923
 Frc consts  --      1.0673                 1.6848                 1.6877
 IR Inten    --      1.3056               148.4704               135.4835

                     58                     59                     60
                      A                      A                      A
 Frequencies --   1287.5597              1293.0912              1300.8503
 Red. masses --      2.2581                 1.8232                 1.2626
 Frc consts  --      2.2056                 1.7961                 1.2588
 IR Inten    --    280.8970                10.9218                21.3019

                     61                     62                     63
                      A                      A                      A
 Frequencies --   1303.2917              1323.2798              1323.7661
 Red. masses --      1.3609                 1.2221                 1.2028
 Frc consts  --      1.3619                 1.2608                 1.2418
 IR Inten    --     10.0395                19.6951                24.5114

                     64                     65                     66
                      A                      A                      A
 Frequencies --   1371.0157              1372.7509              1398.1277
 Red. masses --      1.2808                 1.2875                 1.3697
 Frc consts  --      1.4185                 1.4295                 1.5775
 IR Inten    --      0.0334                 0.5145                 1.6697

                     67                     68                     69
                      A                      A                      A
 Frequencies --   1398.3840              1400.8317              1401.6515
 Red. masses --      1.3865                 1.4606                 1.4636
 Frc consts  --      1.5975                 1.6888                 1.6942
 IR Inten    --      2.1160                 1.5627                 3.0486

                     70                     71                     72
                      A                      A                      A
 Frequencies --   1403.5392              1405.7894              1421.6364
 Red. masses --      1.4503                 1.4411                 1.3327
 Frc consts  --      1.6833                 1.6780                 1.5869
 IR Inten    --      3.4379                 4.1439                 8.7188

                     73                     74                     75
                      A                      A                      A
 Frequencies --   1425.4008              1481.8576              1485.9892
 Red. masses --      1.3433                 2.8816                 3.0634
 Frc consts  --      1.6080                 3.7282                 3.9855
 IR Inten    --     10.2769               413.4326                 3.2444

                     76                     77                     78
                      A                      A                      A
 Frequencies --   1507.8971              1507.9234              1514.4317
 Red. masses --      1.0950                 1.0950                 1.0860
 Frc consts  --      1.4670                 1.4670                 1.4675
 IR Inten    --      0.1172                 1.7745                 5.7055

                     79                     80                     81
                      A                      A                      A
 Frequencies --   1514.7554              1516.9528              1519.0182
 Red. masses --      1.0859                 1.0894                 1.0868
 Frc consts  --      1.4680                 1.4769                 1.4775
 IR Inten    --      5.2449                12.8317                 4.0045

                     82                     83                     84
                      A                      A                      A
 Frequencies --   1519.5986              1523.1248              1534.2186
 Red. masses --      1.0996                 1.0939                 1.1006
 Frc consts  --      1.4961                 1.4952                 1.5263
 IR Inten    --     10.2004                 4.4709                 3.0782

                     85                     86                     87
                      A                      A                      A
 Frequencies --   1535.0296              1649.5709              1775.7590
 Red. masses --      1.0997                13.7873                11.6206
 Frc consts  --      1.5268                22.1040                21.5897
 IR Inten    --      4.1686                 0.0314                 1.1222

                     88                     89                     90
                      A                      A                      A
 Frequencies --   1797.7913              3015.0573              3018.1929
 Red. masses --     11.7124                 1.0732                 1.0729
 Frc consts  --     22.3035                 5.7483                 5.7582
 IR Inten    --    854.0709                12.2276                12.2347

                     91                     92                     93
                      A                      A                      A
 Frequencies --   3018.2921              3021.2087              3025.4355
 Red. masses --      1.0730                 1.0718                 1.0699
 Frc consts  --      5.7591                 5.7639                 5.7700
 IR Inten    --     38.3790                30.9985                82.5117

                     94                     95                     96
                      A                      A                      A
 Frequencies --   3025.6236              3045.4523              3045.8480
 Red. masses --      1.0697                 1.0609                 1.0608
 Frc consts  --      5.7695                 5.7973                 5.7982
 IR Inten    --     23.0431                25.4416                25.3852

                     97                     98                     99
                      A                      A                      A
 Frequencies --   3047.3372              3047.5395              3082.0698
 Red. masses --      1.0617                 1.0616                 1.0934
 Frc consts  --      5.8090                 5.8093                 6.1193
 IR Inten    --     19.3183                21.1338                59.8899

                    100                    101                    102
                      A                      A                      A
 Frequencies --   3082.2841              3088.9401              3089.1868
 Red. masses --      1.0933                 1.1036                 1.1038
 Frc consts  --      6.1199                 6.2040                 6.2061
 IR Inten    --     43.1410                31.8257                31.9495

                    103                    104                    105
                      A                      A                      A
 Frequencies --   3094.0668              3094.3343              3149.6833
 Red. masses --      1.1049                 1.1049                 1.0920
 Frc consts  --      6.2322                 6.2334                 6.3830
 IR Inten    --     60.5746                69.0783                 6.9480

                    106                    107                    108
                      A                      A                      A
 Frequencies --   3151.3815              3156.4576              3157.3275
 Red. masses --      1.0927                 1.0916                 1.0919
 Frc consts  --      6.3938                 6.4080                 6.4134
 IR Inten    --      5.3060                 3.6657                 3.5118

 - Thermochemistry -
 -------------------
 Temperature   298.150 Kelvin.  Pressure   1.00000 Atm.
 Atom     1 has atomic number  6 and mass  12.00000

 Molecular mass:   252.15863 amu.
 Principal axes and moments of inertia in atomic units:
                           1         2         3
     Eigenvalues --  1722.24357********************
           X            0.99997  -0.00820   0.00140
           Y            0.00819   0.99993   0.00826
           Z           -0.00147  -0.00825   0.99996
 This molecule is an asymmetric top.
 Rotational symmetry number  1.
 Warning -- assumption of classical behavior for rotation
           may cause significant error
 Rotational temperatures (Kelvin)      0.05029     0.00849     0.00778
 Rotational constants (GHZ):           1.04790     0.17690     0.16206
 Zero-point vibrational energy     864802.6 (Joules/Mol)
                                  206.69279 (Kcal/Mol)
 Warning -- explicit consideration of  26 degrees of freedom as
           vibrations may cause significant error
 Vibrational temperatures:     22.00    53.71    56.18    68.75    79.45
          (Kelvin)             88.72   119.99   253.15   275.35   289.14
                              316.23   368.61   389.87   432.29   466.13
                              524.50   549.11   565.23   584.08   640.97
                              648.15   685.73   756.49   792.00   829.19
                              839.90   902.53   989.63  1076.17  1144.07
                             1184.57  1187.23  1200.60  1213.29  1251.06
                             1251.61  1283.24  1309.80  1326.63  1397.90
                             1405.92  1409.14  1412.69  1490.66  1497.92
                             1508.01  1517.41  1558.97  1560.69  1661.77
                             1666.73  1682.58  1686.80  1720.28  1722.23
                             1814.58  1818.88  1852.51  1860.47  1871.63
                             1875.15  1903.90  1904.60  1972.59  1975.08
                             2011.59  2011.96  2015.48  2016.66  2019.38
                             2022.62  2045.42  2050.83  2132.06  2138.01
                             2169.53  2169.57  2178.93  2179.40  2182.56
                             2185.53  2186.36  2191.44  2207.40  2208.57
                             2373.36  2554.92  2586.62  4337.99  4342.51
                             4342.65  4346.85  4352.93  4353.20  4381.73
                             4382.30  4384.44  4384.73  4434.41  4434.72
                             4444.30  4444.65  4451.67  4452.06  4531.69
                             4534.14  4541.44  4542.69

 Zero-point correction=                           0.329386 (Hartree/Particle)
 Thermal correction to Energy=                    0.346575
 Thermal correction to Enthalpy=                  0.347519
 Thermal correction to Gibbs Free Energy=         0.281380
 Sum of electronic and zero-point Energies=           -838.433929
 Sum of electronic and thermal Energies=              -838.416740
 Sum of electronic and thermal Enthalpies=            -838.415796
 Sum of electronic and thermal Free Energies=         -838.481935

                     E (Thermal)             CV                S
                      KCal/Mol        Cal/Mol-Kelvin    Cal/Mol-Kelvin
 Total                  217.479             64.723            139.201
 Electronic               0.000              0.000              0.000
 Translational            0.889              2.981             42.475
 Rotational               0.889              2.981             33.636
 Vibrational            215.701             58.761             63.090
 Vibration     1          0.593              1.986              7.167
 Vibration     2          0.594              1.982              5.396
 Vibration     3          0.594              1.981              5.307
 Vibration     4          0.595              1.978              4.907
 Vibration     5          0.596              1.975              4.621
 Vibration     6          0.597              1.973              4.403
 Vibration     7          0.600              1.961              3.809
 Vibration     8          0.628              1.872              2.371
 Vibration     9          0.634              1.852              2.214
 Vibration    10          0.638              1.839              2.124
 Vibration    11          0.647              1.811              1.961
 Vibration    12          0.666              1.752              1.688
 Vibration    13          0.675              1.727              1.590
 Vibration    14          0.693              1.673              1.414
 Vibration    15          0.709              1.627              1.290
 Vibration    16          0.738              1.545              1.103
 Vibration    17          0.751              1.509              1.033
 Vibration    18          0.760              1.485              0.989
 Vibration    19          0.771              1.457              0.941
 Vibration    20          0.805              1.371              0.810
 Vibration    21          0.809              1.360              0.794
 Vibration    22          0.833              1.302              0.719
 Vibration    23          0.881              1.193              0.597
 Vibration    24          0.906              1.139              0.543
 Vibration    25          0.933              1.082              0.492
 Vibration    26          0.941              1.066              0.478

 Optimization completed.
    -- Stationary point found.
 Normal termination of Gaussian 16 at Sat Aug 22 17:07:26 2020.
 Gaussian 16:  ES64L-G16RevA.03 25-Dec-2016

 ----------------------------------------------------------------------
 # TD(NStates=10, Root=1) B3LYP/6-31G* scf=qc volume pop=NPA density=cu
 rrent Geom=AllCheck Guess=Read
 ----------------------------------------------------------------------

 Structure from the checkpoint file:  "azadicarboxylate_5_conf193.chk"
 -------------------
 Title Card Required
 -------------------
 Charge =  0 Multiplicity = 1

                         Standard orientation:
 ---------------------------------------------------------------------
 Center     Atomic      Atomic             Coordinates (Angstroms)
 Number     Number       Type             X           Y           Z
 ---------------------------------------------------------------------
      1          6           0       -1.554299   -1.010588    0.592232
      2          8           0       -1.344347   -2.208719    0.487967
      3          7           0       -0.437179   -0.122338    0.915262
      4          7           0        0.316551    0.055543   -0.058834
      5          6           0        1.432214    0.947064    0.256087
      6          8           0        1.220512    2.147148    0.332306
      7          7           0        2.634866    0.326823    0.314406
      8          6           0        2.818735   -1.127679    0.244467
      9          6           0        3.835187   -1.490175   -0.846264
     10          6           0        5.147642   -0.712836   -0.664118
     11          6           0        4.881393    0.798488   -0.587420
     12          6           0        3.850839    1.123286    0.501030
     13          7           0       -2.756263   -0.387570    0.551820
     14          6           0       -2.938125    1.066671    0.628346
     15          6           0       -3.612478    1.591903   -0.646525
     16          6           0       -4.914544    0.828487   -0.936251
     17          6           0       -4.667656   -0.688019   -0.976676
     18          6           0       -3.970071   -1.169132    0.302562
     19          1           0        1.854986   -1.603670    0.058519
     20          1           0        3.177510   -1.480883    1.223357
     21          1           0        3.398652   -1.258250   -1.826653
     22          1           0        4.016619   -2.571514   -0.819751
     23          1           0        5.840615   -0.937932   -1.483519
     24          1           0        5.639280   -1.042550    0.263279
     25          1           0        4.503131    1.158132   -1.553464
     26          1           0        5.808892    1.345984   -0.379044
     27          1           0        3.558714    2.174054    0.488702
     28          1           0        4.269218    0.896869    1.493584
     29          1           0       -1.971066    1.544404    0.790912
     30          1           0       -3.568614    1.287529    1.502696
     31          1           0       -2.916043    1.476061   -1.487403
     32          1           0       -3.808103    2.665146   -0.533011
     33          1           0       -5.352871    1.168897   -1.881926
     34          1           0       -5.649563    1.055373   -0.149570
     35          1           0       -4.036013   -0.938788   -1.839072
     36          1           0       -5.612846   -1.231253   -1.099081
     37          1           0       -3.678690   -2.218277    0.240156
     38          1           0       -4.641985   -1.048804    1.165719
 ---------------------------------------------------------------------

 SCF Done:  E(RB3LYP) =  -838.763315169     a.u. after    1 cycles

 Excitation energies and oscillator strengths:

 Excited State   1:      Singlet-A      2.6550 eV  466.98 nm  f=0.0000  <S**2>=0.000
      68 -> 69         0.69732
 This state for optimization and/or second-order correction.
 Total Energy, E(TD-HF/TD-DFT) =  -838.665745834
 Copying the excited state density for this state as the 1-particle RhoCI density.

 Excited State   2:      Singlet-A      3.8371 eV  323.12 nm  f=0.0015  <S**2>=0.000
      66 -> 69        -0.30102
      67 -> 69         0.63391

 Excited State   3:      Singlet-A      3.8608 eV  321.13 nm  f=0.0019  <S**2>=0.000
      66 -> 69         0.63295
      67 -> 69         0.30339

 Excited State   4:      Singlet-A      4.3826 eV  282.90 nm  f=0.0428  <S**2>=0.000
      65 -> 69         0.69355

 Excited State   5:      Singlet-A      5.0148 eV  247.24 nm  f=0.0000  <S**2>=0.000
      64 -> 69         0.68253
      68 -> 70        -0.10525

 Excited State   6:      Singlet-A      5.7565 eV  215.38 nm  f=0.0484  <S**2>=0.000
      65 -> 70        -0.18683
      68 -> 70         0.52299
      68 -> 71         0.41313

 Excited State   7:      Singlet-A      5.8118 eV  213.33 nm  f=0.0052  <S**2>=0.000
      64 -> 69        -0.12584
      65 -> 71         0.18758
      68 -> 70        -0.40190
      68 -> 71         0.51893

 Excited State   8:      Singlet-A      6.3929 eV  193.94 nm  f=0.0022  <S**2>=0.000
      59 -> 69         0.15750
      61 -> 69         0.16402
      63 -> 69         0.65063

 Excited State   9:      Singlet-A      6.4680 eV  191.69 nm  f=0.0004  <S**2>=0.000
      60 -> 69         0.23585
      62 -> 69         0.65490

 Excited State  10:      Singlet-A      6.5049 eV  190.60 nm  f=0.0541  <S**2>=0.000
      59 -> 69         0.39252
      60 -> 69         0.45238
      62 -> 69        -0.23240
      63 -> 69        -0.21410

 The electronic state is 1-A.
 Alpha  occ. eigenvalues --  -19.12112 -19.12073 -14.40321 -14.40263 -14.37157
 Alpha  occ. eigenvalues --  -14.37117 -10.30881 -10.30849 -10.22687 -10.22654
 Alpha  occ. eigenvalues --  -10.22197 -10.22182 -10.19208 -10.19190 -10.19157
 Alpha  occ. eigenvalues --  -10.19130 -10.19114 -10.19094  -1.08207  -1.04574
 Alpha  occ. eigenvalues --   -1.00769  -0.94884  -0.94734  -0.81200  -0.80552
 Alpha  occ. eigenvalues --   -0.77507  -0.76847  -0.75001  -0.69199  -0.66894
 Alpha  occ. eigenvalues --   -0.64264  -0.63572  -0.60178  -0.58897  -0.55815
 Alpha  occ. eigenvalues --   -0.54349  -0.52854  -0.49127  -0.48018  -0.47639
 Alpha  occ. eigenvalues --   -0.46599  -0.46417  -0.45846  -0.45010  -0.43866
 Alpha  occ. eigenvalues --   -0.43817  -0.43136  -0.42389  -0.41796  -0.41420
 Alpha  occ. eigenvalues --   -0.39994  -0.39659  -0.38380  -0.38082  -0.36537
 Alpha  occ. eigenvalues --   -0.36123  -0.36011  -0.34371  -0.34076  -0.33404
 Alpha  occ. eigenvalues --   -0.33304  -0.33018  -0.32874  -0.29745  -0.26871
 Alpha  occ. eigenvalues --   -0.24576  -0.24450  -0.22417
 Alpha virt. eigenvalues --   -0.06821   0.03300   0.03506   0.08741   0.08894
 Alpha virt. eigenvalues --    0.10868   0.10941   0.12675   0.12774   0.13998
 Alpha virt. eigenvalues --    0.14300   0.14441   0.14579   0.15620   0.15883

 Mulliken charges:
               1
     1  C    0.700331
     2  O   -0.468369
     3  N   -0.281336
     4  N   -0.283244
     5  C    0.699497
     6  O   -0.468625
     7  N   -0.403290
     8  C   -0.149544
     9  C   -0.263861
    10  C   -0.269359
    11  C   -0.264499
    12  C   -0.148341
    13  N   -0.399739
    14  C   -0.154956
    15  C   -0.261410
    16  C   -0.269406
    17  C   -0.262854
    18  C   -0.151038
    19  H    0.207472
    20  H    0.145776
    21  H    0.147464
    22  H    0.144592
    23  H    0.142580
    24  H    0.133102
    25  H    0.148261
    26  H    0.142838
    27  H    0.190549
    28  H    0.147455
    29  H    0.208224
    30  H    0.144677
    31  H    0.151140
    32  H    0.143828
    33  H    0.142606
    34  H    0.131670
    35  H    0.149482
    36  H    0.141517
    37  H    0.190369
    38  H    0.146443
 Sum of Mulliken charges =  -0.00000

 Dipole moment (field-independent basis, Debye):
    X=              0.1333    Y=              0.0566    Z=             -0.6724  Tot=              0.6879
 Quadrupole moment (field-independent basis, Debye-Ang):
   XX=            -76.4769   YY=           -116.4176   ZZ=           -106.6162
   XY=             -4.7690   XZ=              0.3047   YZ=              0.5835

 Summary of Natural Population Analysis:

                                       Natural Population
                Natural  -----------------------------------------------
    Atom  No    Charge         Core      Valence    Rydberg      Total
 -----------------------------------------------------------------------
      C    1    0.79532      1.99934     3.15850    0.04684     5.20468
      O    2   -0.57138      1.99979     6.55304    0.01855     8.57138
      N    3   -0.24921      1.99941     5.22367    0.02613     7.24921
      N    4   -0.25249      1.99941     5.22704    0.02603     7.25249
      C    5    0.79710      1.99934     3.15684    0.04672     5.20290
      O    6   -0.57264      1.99979     6.55431    0.01854     8.57264
      N    7   -0.47109      1.99927     5.45892    0.01290     7.47109
      C    8   -0.26150      1.99930     4.24608    0.01612     6.26150
      C    9   -0.47070      1.99932     4.45990    0.01148     6.47070
      C   10   -0.46524      1.99933     4.45437    0.01154     6.46524
      C   11   -0.47146      1.99932     4.46074    0.01140     6.47146
      C   12   -0.25927      1.99932     4.24375    0.01620     6.25927
      N   13   -0.47011      1.99928     5.45794    0.01289     7.47011
      C   14   -0.26153      1.99930     4.24592    0.01631     6.26153
      C   15   -0.47197      1.99932     4.46120    0.01145     6.47197
      C   16   -0.46554      1.99933     4.45466    0.01155     6.46554
      C   17   -0.47181      1.99932     4.46117    0.01132     6.47181
      C   18   -0.25936      1.99932     4.24388    0.01616     6.25936
      H   19    0.27345      0.00000     0.72412    0.00243     0.72655
      H   20    0.22422      0.00000     0.77351    0.00227     0.77578
      H   21    0.23579      0.00000     0.76214    0.00207     0.76421
      H   22    0.24646      0.00000     0.75245    0.00110     0.75354
      H   23    0.24436      0.00000     0.75453    0.00111     0.75564
      H   24    0.22670      0.00000     0.77136    0.00194     0.77330
      H   25    0.23631      0.00000     0.76181    0.00188     0.76369
      H   26    0.24561      0.00000     0.75326    0.00113     0.75439
      H   27    0.26780      0.00000     0.73017    0.00203     0.73220
      H   28    0.22495      0.00000     0.77304    0.00201     0.77505
      H   29    0.27342      0.00000     0.72415    0.00243     0.72658
      H   30    0.22525      0.00000     0.77258    0.00217     0.77475
      H   31    0.23793      0.00000     0.76008    0.00199     0.76207
      H   32    0.24593      0.00000     0.75295    0.00112     0.75407
      H   33    0.24435      0.00000     0.75454    0.00111     0.75565
      H   34    0.22579      0.00000     0.77227    0.00194     0.77421
      H   35    0.23686      0.00000     0.76125    0.00189     0.76314
      H   36    0.24438      0.00000     0.75449    0.00113     0.75562
      H   37    0.26759      0.00000     0.73035    0.00205     0.73241
      H   38    0.22575      0.00000     0.77220    0.00205     0.77425
 =======================================================================
   * Total *    0.00000     35.98882    99.63317    0.37801   136.00000

 Normal termination of Gaussian 16 at Sat Aug 22 17:15:56 2020.
