 Gaussian 16, Revision A.03,

 ---------------------------------
 # opt=CalcAll B3LYP/6-31G* scf=qc
 ---------------------------------

 -------------------
 Title Card Required
 -------------------
 Symbolic Z-matrix:
 Charge =  0 Multiplicity = 1

 SCF Done:  E(RB3LYP) =  -1947.64054741     a.u. after   11 cycles
 SCF Done:  E(RB3LYP) =  -1947.66518146     a.u. after   25 cycles
 SCF Done:  E(RB3LYP) =  -1947.67006598     a.u. after   27 cycles
 SCF Done:  E(RB3LYP) =  -1947.67102165     a.u. after   21 cycles
 SCF Done:  E(RB3LYP) =  -1947.67182453     a.u. after   17 cycles
 SCF Done:  E(RB3LYP) =  -1947.67207443     a.u. after   17 cycles
 SCF Done:  E(RB3LYP) =  -1947.67253484     a.u. after   19 cycles
 SCF Done:  E(RB3LYP) =  -1947.67281619     a.u. after   21 cycles
 SCF Done:  E(RB3LYP) =  -1947.67336906     a.u. after   13 cycles
 SCF Done:  E(RB3LYP) =  -1947.67336237     a.u. after   17 cycles
 SCF Done:  E(RB3LYP) =  -1947.67340728     a.u. after   17 cycles
 SCF Done:  E(RB3LYP) =  -1947.67341230     a.u. after   11 cycles
 SCF Done:  E(RB3LYP) =  -1947.67341294     a.u. after    5 cycles
 SCF Done:  E(RB3LYP) =  -1947.67341374     a.u. after   11 cycles
 SCF Done:  E(RB3LYP) =  -1947.67341404     a.u. after    7 cycles
 Optimization completed.
    -- Stationary point found.
 Normal termination of Gaussian 16 at Sat Aug 22 17:49:57 2020.

 ----------------------------------------------------------------------
 # freq B3LYP/6-31G* scf=qc volume NMR pop=NPA density=current Geom=All
 Check Guess=Read
 ----------------------------------------------------------------------

 Structure from the checkpoint file:  "azadicarboxylate_3_conf72.chk"
 -------------------
 Title Card Required
 -------------------
 Charge =  0 Multiplicity = 1

 SCF Done:  E(RB3LYP) =  -1947.67341404     a.u. after    1 cycles

      1  C    Isotropic =    63.7932   Anisotropy =   172.1810

      2  C    Isotropic =   121.7026   Anisotropy =    40.6463

      3  O    Isotropic =   143.3060   Anisotropy =   138.6955

      4  C    Isotropic =    34.6842   Anisotropy =    75.4303

      5  O    Isotropic =   -19.6734   Anisotropy =   491.7300

      6  N    Isotropic =  -326.2499   Anisotropy =   677.7638

      7  N    Isotropic =  -321.3768   Anisotropy =   671.9137

      8  C    Isotropic =    34.8575   Anisotropy =    85.5461

      9  O    Isotropic =   -21.2568   Anisotropy =   493.0779

     10  O    Isotropic =   142.2007   Anisotropy =   140.3649

     11  C    Isotropic =   121.5241   Anisotropy =    40.2574

     12  C    Isotropic =    63.8043   Anisotropy =   171.9901

     13  C    Isotropic =    64.2367   Anisotropy =   152.2162

     14  C    Isotropic =    67.4826   Anisotropy =   141.1914

     15  C    Isotropic =    51.2175   Anisotropy =   111.3474

     16  C    Isotropic =    66.6991   Anisotropy =   142.6354

     17  C    Isotropic =    62.7642   Anisotropy =   159.8343

     18  Cl   Isotropic =   718.0116   Anisotropy =   454.4832

     19  C    Isotropic =    62.6767   Anisotropy =   158.9517

     20  C    Isotropic =    66.6479   Anisotropy =   142.5851

     21  C    Isotropic =    51.1127   Anisotropy =   111.4097

     22  C    Isotropic =    67.3558   Anisotropy =   141.1829

     23  C    Isotropic =    64.1909   Anisotropy =   152.3680

     24  Cl   Isotropic =   717.9218   Anisotropy =   454.3965

     25  H    Isotropic =    26.4560   Anisotropy =     2.9827

     26  H    Isotropic =    27.7519   Anisotropy =     5.4971

     27  H    Isotropic =    26.4968   Anisotropy =     3.0119

     28  H    Isotropic =    27.6984   Anisotropy =     5.2201

     29  H    Isotropic =    25.0851   Anisotropy =     6.2780

     30  H    Isotropic =    25.1743   Anisotropy =     6.8079

     31  H    Isotropic =    25.1080   Anisotropy =     7.1203

     32  H    Isotropic =    24.4662   Anisotropy =     7.7205

     33  H    Isotropic =    24.3734   Anisotropy =     7.3388

     34  H    Isotropic =    25.0449   Anisotropy =     7.1488

     35  H    Isotropic =    25.0997   Anisotropy =     6.8538

     36  H    Isotropic =    25.0025   Anisotropy =     6.3047

  Exact polarizability: 201.285 -15.931 237.217  12.297   2.357 186.892
 Approx polarizability: 240.428 -31.160 365.657  26.021  -1.660 341.428

                      1                      2                      3
                      A                      A                      A
 Frequencies --      3.4114                 9.0309                21.7776
 Red. masses --      7.0434                13.2517                 6.6807
 Frc consts  --      0.0000                 0.0006                 0.0019
 IR Inten    --      0.2258                 0.0716                 0.1195

                      4                      5                      6
                      A                      A                      A
 Frequencies --     24.2678                29.4361                42.0996
 Red. masses --      4.1558                 6.5446                10.7536
 Frc consts  --      0.0014                 0.0033                 0.0112
 IR Inten    --      0.2232                 0.1083                 1.7204

                      7                      8                      9
                      A                      A                      A
 Frequencies --     51.7145                66.5039                71.2712
 Red. masses --     12.1742                 8.3564                 6.8192
 Frc consts  --      0.0192                 0.0218                 0.0204
 IR Inten    --      1.1717                 1.0231                 1.1559

                     10                     11                     12
                      A                      A                      A
 Frequencies --     93.2276               105.2479               159.0890
 Red. masses --     10.4966                 9.7877                10.8931
 Frc consts  --      0.0538                 0.0639                 0.1624
 IR Inten    --      0.4860                 0.3561                 0.8399

                     13                     14                     15
                      A                      A                      A
 Frequencies --    195.6041               211.6789               214.8638
 Red. masses --     10.0354                 9.8188                 7.9041
 Frc consts  --      0.2262                 0.2592                 0.2150
 IR Inten    --      5.0065                 0.8832                 2.7800

                     16                     17                     18
                      A                      A                      A
 Frequencies --    250.7045               262.8392               293.6712
 Red. masses --     11.2908                 9.5876                 4.4201
 Frc consts  --      0.4181                 0.3902                 0.2246
 IR Inten    --      1.1566                 1.6740                 3.5794

                     19                     20                     21
                      A                      A                      A
 Frequencies --    301.7019               322.9038               356.5486
 Red. masses --      4.9038                 8.6105                 7.6350
 Frc consts  --      0.2630                 0.5290                 0.5719
 IR Inten    --      2.5803                 0.9520                 2.8941

                     22                     23                     24
                      A                      A                      A
 Frequencies --    375.6208               388.8051               411.4365
 Red. masses --      2.7679                 2.3819                 6.3615
 Frc consts  --      0.2301                 0.2121                 0.6345
 IR Inten    --      0.4564                 8.6054                40.3482

                     25                     26                     27
                      A                      A                      A
 Frequencies --    420.6728               420.7808               438.9303
 Red. masses --      3.0348                 3.0485                 6.0528
 Frc consts  --      0.3164                 0.3180                 0.6871
 IR Inten    --      0.0136                 1.0126                17.9199

                     28                     29                     30
                      A                      A                      A
 Frequencies --    457.9992               528.6733               542.2427
 Red. masses --      5.1897                 3.9659                 4.0958
 Frc consts  --      0.6414                 0.6531                 0.7095
 IR Inten    --      4.4849                18.9777                34.3475

                     31                     32                     33
                      A                      A                      A
 Frequencies --    585.1011               627.9716               639.2908
 Red. masses --     11.6164                 7.2465                 7.1864
 Frc consts  --      2.3431                 1.6837                 1.7304
 IR Inten    --      0.3175                 7.1153                 5.3415

                     34                     35                     36
                      A                      A                      A
 Frequencies --    648.1394               648.4793               664.8213
 Red. masses --      6.6248                 6.7160                 4.9802
 Frc consts  --      1.6397                 1.6640                 1.2969
 IR Inten    --      0.3897                 0.0139                 0.4996

                     37                     38                     39
                      A                      A                      A
 Frequencies --    667.3846               737.4043               738.9193
 Red. masses --      4.9905                 4.2348                 4.2343
 Frc consts  --      1.3096                 1.3567                 1.3621
 IR Inten    --      5.9870                 3.5862                 3.6070

                     40                     41                     42
                      A                      A                      A
 Frequencies --    808.5867               820.3794               822.7235
 Red. masses --      9.5099                 2.6056                 2.4996
 Frc consts  --      3.6633                 1.0332                 0.9968
 IR Inten    --     22.1158                38.8954                59.4456

                     43                     44                     45
                      A                      A                      A
 Frequencies --    829.3511               843.8305               844.0581
 Red. masses --      4.6579                 1.3028                 1.3073
 Frc consts  --      1.8876                 0.5465                 0.5488
 IR Inten    --      6.8581                 0.4165                 4.0394

                     46                     47                     48
                      A                      A                      A
 Frequencies --    858.1598               862.0032               876.5802
 Red. masses --      2.7839                 2.1961                 3.3972
 Frc consts  --      1.2079                 0.9614                 1.5380
 IR Inten    --    130.3322                17.7108                12.0462

                     49                     50                     51
                      A                      A                      A
 Frequencies --    924.1436               961.0709               963.0751
 Red. masses --      7.1284                 1.4670                 1.3570
 Frc consts  --      3.5869                 0.7983                 0.7416
 IR Inten    --      8.7412                19.5855                 0.8381

                     52                     53                     54
                      A                      A                      A
 Frequencies --    973.6860               977.5437               979.3763
 Red. masses --      2.2033                 1.3539                 1.7002
 Frc consts  --      1.2308                 0.7623                 0.9608
 IR Inten    --     89.8874                 2.8509                30.6689

                     55                     56                     57
                      A                      A                      A
 Frequencies --    991.7633              1023.9320              1025.1957
 Red. masses --      4.0160                 2.4910                 2.5797
 Frc consts  --      2.3273                 1.5388                 1.5975
 IR Inten    --     20.0845                18.4695                18.4129

                     58                     59                     60
                      A                      A                      A
 Frequencies --   1035.3727              1035.5200              1110.7318
 Red. masses --      3.7916                 3.8189                 3.1223
 Frc consts  --      2.3948                 2.4127                 2.2696
 IR Inten    --      9.2313                29.3423                41.9447

                     61                     62                     63
                      A                      A                      A
 Frequencies --   1111.1293              1146.3638              1146.4805
 Red. masses --      3.1261                 1.3246                 1.3245
 Frc consts  --      2.2739                 1.0256                 1.0257
 IR Inten    --    100.7999                 4.1933                 2.0964

                     64                     65                     66
                      A                      A                      A
 Frequencies --   1214.6908              1216.1363              1228.6053
 Red. masses --      1.2382                 1.1440                 4.0591
 Frc consts  --      1.0764                 0.9969                 3.6100
 IR Inten    --    145.8518                 0.7152              1082.9787

                     67                     68                     69
                      A                      A                      A
 Frequencies --   1240.3660              1240.4061              1269.2046
 Red. masses --      3.0782                 3.0360                 2.8125
 Frc consts  --      2.7903                 2.7522                 2.6693
 IR Inten    --     17.4803                 3.5253               167.1191

                     70                     71                     72
                      A                      A                      A
 Frequencies --   1295.4849              1301.1127              1336.4541
 Red. masses --      1.4489                 1.8388                 1.8102
 Frc consts  --      1.4327                 1.8341                 1.9050
 IR Inten    --     55.5435               111.0512                 1.1531

                     73                     74                     75
                      A                      A                      A
 Frequencies --   1336.5212              1363.5077              1363.9158
 Red. masses --      1.8191                 2.1607                 2.1470
 Frc consts  --      1.9145                 2.3668                 2.3532
 IR Inten    --      1.1683                 5.0303                 7.6559

                     76                     77                     78
                      A                      A                      A
 Frequencies --   1416.7984              1418.1491              1456.2545
 Red. masses --      1.3447                 1.3607                 2.6039
 Frc consts  --      1.5904                 1.6123                 3.2535
 IR Inten    --     16.6455                23.9224                 5.6169

                     79                     80                     81
                      A                      A                      A
 Frequencies --   1456.3935              1516.7410              1518.4098
 Red. masses --      2.6021                 1.1174                 1.1189
 Frc consts  --      3.2518                 1.5146                 1.5199
 IR Inten    --      8.4113                13.6265                11.4673

                     82                     83                     84
                      A                      A                      A
 Frequencies --   1541.4763              1541.6671              1630.9367
 Red. masses --      2.3097                 2.3069                 6.6801
 Frc consts  --      3.2335                 3.2304                10.4690
 IR Inten    --     26.3023                61.3338                 0.5852

                     85                     86                     87
                      A                      A                      A
 Frequencies --   1631.1298              1655.9914              1656.1083
 Red. masses --      6.6804                 5.7536                 5.8685
 Frc consts  --     10.4720                 9.2963                 9.4833
 IR Inten    --      0.8559                26.0342                25.3899

                     88                     89                     90
                      A                      A                      A
 Frequencies --   1656.4084              1833.7263              1850.0180
 Red. masses --     11.7584                12.2026                12.1523
 Frc consts  --     19.0078                24.1753                24.5053
 IR Inten    --      9.7804                64.1923               438.6367

                     91                     92                     93
                      A                      A                      A
 Frequencies --   3108.7767              3112.4380              3166.6466
 Red. masses --      1.0577                 1.0578                 1.1109
 Frc consts  --      6.0225                 6.0375                 6.5631
 IR Inten    --     21.4128                21.1279                 3.9406

                     94                     95                     96
                      A                      A                      A
 Frequencies --   3169.8298              3189.7410              3189.8961
 Red. masses --      1.1109                 1.0897                 1.0896
 Frc consts  --      6.5764                 6.5321                 6.5327
 IR Inten    --      3.5379                 7.9697                10.5243

                     97                     98                     99
                      A                      A                      A
 Frequencies --   3212.5405              3212.8548              3225.8704
 Red. masses --      1.0890                 1.0890                 1.0935
 Frc consts  --      6.6219                 6.6229                 6.7042
 IR Inten    --      0.8731                 0.7691                 3.3978

                    100                    101                    102
                      A                      A                      A
 Frequencies --   3226.0702              3228.6918              3228.8918
 Red. masses --      1.0935                 1.0948                 1.0949
 Frc consts  --      6.7051                 6.7244                 6.7253
 IR Inten    --      3.6826                 1.1280                 1.1614

 - Thermochemistry -
 -------------------
 Temperature   298.150 Kelvin.  Pressure   1.00000 Atm.
 Atom     1 has atomic number  6 and mass  12.00000

 Molecular mass:   366.01741 amu.
 Principal axes and moments of inertia in atomic units:
                           1         2         3
     Eigenvalues --  7460.50504********************
           X            1.00000   0.00118  -0.00163
           Y           -0.00118   1.00000  -0.00061
           Z            0.00163   0.00061   1.00000
 This molecule is an asymmetric top.
 Rotational symmetry number  1.
 Warning -- assumption of classical behavior for rotation
           may cause significant error
 Rotational temperatures (Kelvin)      0.01161     0.00342     0.00284
 Rotational constants (GHZ):           0.24191     0.07128     0.05924
 Zero-point vibrational energy     678642.6 (Joules/Mol)
                                  162.19948 (Kcal/Mol)
 Warning -- explicit consideration of  31 degrees of freedom as
           vibrations may cause significant error
 Vibrational temperatures:      4.91    12.99    31.33    34.92    42.35
          (Kelvin)             60.57    74.41    95.68   102.54   134.13
                              151.43   228.89   281.43   304.56   309.14
                              360.71   378.17   422.53   434.08   464.59
                              512.99   540.43   559.40   591.97   605.25
                              605.41   631.52   658.96   760.64   780.17
                              841.83   903.51   919.80   932.53   933.02
                              956.53   960.22  1060.96  1063.14  1163.38
                             1180.34  1183.72  1193.25  1214.08  1214.41
                             1234.70  1240.23  1261.20  1329.64  1382.77
                             1385.65  1400.92  1406.47  1409.10  1426.93
                             1473.21  1475.03  1489.67  1489.88  1598.10
                             1598.67  1649.36  1649.53  1747.67  1749.75
                             1767.69  1784.61  1784.67  1826.10  1863.91
                             1872.01  1922.86  1922.96  1961.78  1962.37
                             2038.46  2040.40  2095.23  2095.43  2182.25
                             2184.65  2217.84  2218.12  2346.55  2346.83
                             2382.60  2382.77  2383.20  2638.32  2661.76
                             4472.84  4478.10  4556.10  4560.68  4589.33
                             4589.55  4622.13  4622.58  4641.31  4641.60
                             4645.37  4645.66

 Zero-point correction=                           0.258481 (Hartree/Particle)
 Thermal correction to Energy=                    0.280371
 Thermal correction to Enthalpy=                  0.281315
 Thermal correction to Gibbs Free Energy=         0.198485
 Sum of electronic and zero-point Energies=          -1947.414933
 Sum of electronic and thermal Energies=             -1947.393043
 Sum of electronic and thermal Enthalpies=           -1947.392099
 Sum of electronic and thermal Free Energies=        -1947.474929

                     E (Thermal)             CV                S
                      KCal/Mol        Cal/Mol-Kelvin    Cal/Mol-Kelvin
 Total                  175.935             79.060            174.331
 Electronic               0.000              0.000              0.000
 Translational            0.889              2.981             43.586
 Rotational               0.889              2.981             36.996
 Vibrational            174.158             73.098             93.750
 Vibration     1          0.592              1.987             10.148
 Vibration     2          0.593              1.987              8.214
 Vibration     3          0.593              1.985              6.465
 Vibration     4          0.593              1.985              6.250
 Vibration     5          0.593              1.984              5.867
 Vibration     6          0.595              1.980              5.158
 Vibration     7          0.596              1.977              4.751
 Vibration     8          0.598              1.970              4.254
 Vibration     9          0.598              1.968              4.118
 Vibration    10          0.602              1.954              3.591
 Vibration    11          0.605              1.945              3.355
 Vibration    12          0.621              1.892              2.561
 Vibration    13          0.636              1.846              2.174
 Vibration    14          0.643              1.823              2.029
 Vibration    15          0.645              1.818              2.002
 Vibration    16          0.663              1.762              1.726
 Vibration    17          0.670              1.741              1.643
 Vibration    18          0.688              1.686              1.453
 Vibration    19          0.694              1.670              1.407
 Vibration    20          0.708              1.630              1.295
 Vibration    21          0.732              1.562              1.137
 Vibration    22          0.746              1.522              1.057
 Vibration    23          0.757              1.494              1.005
 Vibration    24          0.775              1.445              0.922
 Vibration    25          0.783              1.425              0.890
 Vibration    26          0.783              1.425              0.889
 Vibration    27          0.799              1.385              0.830
 Vibration    28          0.816              1.343              0.772
 Vibration    29          0.884              1.187              0.590
 Vibration    30          0.897              1.157              0.560
 Vibration    31          0.942              1.064              0.476

                           ! Non-Optimized Parameters !
 Normal termination of Gaussian 16 at Sat Aug 22 18:01:32 2020.
 Gaussian 16:  ES64L-G16RevA.03 25-Dec-2016

 ----------------------------------------------------------------------
 # TD(NStates=10, Root=1) B3LYP/6-31G* scf=qc volume pop=NPA density=cu
 rrent Geom=AllCheck Guess=Read
 ----------------------------------------------------------------------

 Structure from the checkpoint file:  "azadicarboxylate_3_conf73.chk"
 -------------------
 Title Card Required
 -------------------
 Charge =  0 Multiplicity = 1

                         Standard orientation:
 ---------------------------------------------------------------------
 Center     Atomic      Atomic             Coordinates (Angstroms)
 Number     Number       Type             X           Y           Z
 ---------------------------------------------------------------------
      1          6           0        4.241107    0.800390    0.287290
      2          6           0        3.581312    2.147046    0.414266
      3          8           0        2.119242    2.032152    0.464340
      4          6           0        1.487963    2.051768   -0.707678
      5          8           0        1.961182    2.167795   -1.810209
      6          7           0        0.078336    1.784221   -0.507984
      7          7           0       -0.578884    2.807396   -0.242393
      8          6           0       -2.003188    2.555328   -0.149225
      9          8           0       -2.763195    2.943800   -1.000769
     10          8           0       -2.294034    1.975971    1.013556
     11          6           0       -3.719697    1.784529    1.301445
     12          6           0       -4.217891    0.457627    0.795268
     13          6           0       -4.152164   -0.678985    1.610036
     14          6           0       -4.603599   -1.916302    1.154297
     15          6           0       -5.126407   -2.010446   -0.135059
     16          6           0       -5.202039   -0.894117   -0.967795
     17          6           0       -4.746127    0.335908   -0.496936
     18         17           0       -5.704316   -3.563695   -0.718957
     19          6           0        4.533589    0.261499   -0.972829
     20          6           0        5.136828   -0.989538   -1.090935
     21          6           0        5.448169   -1.705130    0.064976
     22          6           0        5.166412   -1.191854    1.330740
     23          6           0        4.563289    0.060472    1.431537
     24         17           0        6.213611   -3.280560   -0.074739
     25          1           0        3.841254    2.808317   -0.413776
     26          1           0        3.827776    2.627925    1.362023
     27          1           0       -4.267479    2.619591    0.860872
     28          1           0       -3.768058    1.842533    2.389907
     29          1           0       -3.744918   -0.599764    2.615051
     30          1           0       -4.554296   -2.795084    1.788110
     31          1           0       -5.612145   -0.987638   -1.967554
     32          1           0       -4.790128    1.208295   -1.141738
     33          1           0        4.277192    0.821166   -1.867177
     34          1           0        5.364432   -1.405431   -2.066483
     35          1           0        5.418161   -1.761905    2.218493
     36          1           0        4.343137    0.466108    2.416016
 ---------------------------------------------------------------------

 SCF Done:  E(RB3LYP) =  -1947.67341404     a.u. after    1 cycles

 Excitation energies and oscillator strengths:

 Excited State   1:      Singlet-A      2.9343 eV  422.53 nm  f=0.0019  <S**2>=0.000
      92 -> 95         0.47166
      94 -> 95         0.51154
 This state for optimization and/or second-order correction.
 Total Energy, E(TD-HF/TD-DFT) =  -1947.56557927
 Copying the excited state density for this state as the 1-particle RhoCI density.

 Excited State   2:      Singlet-A      4.0049 eV  309.58 nm  f=0.0159  <S**2>=0.000
      92 -> 95         0.21467
      93 -> 95         0.60792
      94 -> 95        -0.28555

 Excited State   3:      Singlet-A      4.0606 eV  305.34 nm  f=0.0134  <S**2>=0.000
      92 -> 95         0.46976
      93 -> 95        -0.35023
      94 -> 95        -0.39176

 Excited State   4:      Singlet-A      4.4429 eV  279.06 nm  f=0.0008  <S**2>=0.000
      91 -> 95         0.70550

 Excited State   5:      Singlet-A      4.4984 eV  275.62 nm  f=0.0002  <S**2>=0.000
      90 -> 95         0.70557

 Excited State   6:      Singlet-A      5.0622 eV  244.92 nm  f=0.0788  <S**2>=0.000
      87 -> 95        -0.19537
      89 -> 95         0.65316

 Excited State   7:      Singlet-A      5.1980 eV  238.52 nm  f=0.0006  <S**2>=0.000
      86 -> 95         0.47862
      87 -> 95        -0.17428
      88 -> 95         0.44724

 Excited State   8:      Singlet-A      5.2387 eV  236.67 nm  f=0.0005  <S**2>=0.000
      90 -> 96         0.44165
      92 -> 98         0.19904
      93 -> 98        -0.34974
      94 -> 98        -0.35939

 Excited State   9:      Singlet-A      5.2504 eV  236.14 nm  f=0.0005  <S**2>=0.000
      91 -> 97         0.44231
      92 -> 99        -0.13251
      93 -> 99        -0.38145
      94 -> 99         0.35918

 Excited State  10:      Singlet-A      5.4287 eV  228.39 nm  f=0.0358  <S**2>=0.000
      84 -> 95        -0.10878
      85 -> 95         0.38515
      92 -> 96         0.22894
      92 ->100        -0.12168
      94 -> 96         0.45054
      94 ->100        -0.15951

 The electronic state is 1-A.
 Alpha  occ. eigenvalues -- -101.55497-101.55402 -19.22099 -19.22043 -19.16474
 Alpha  occ. eigenvalues --  -19.16413 -14.43015 -14.42963 -10.36013 -10.35987
 Alpha  occ. eigenvalues --  -10.26882 -10.26873 -10.26429 -10.26332 -10.21785
 Alpha  occ. eigenvalues --  -10.21705 -10.21541 -10.21450 -10.21449 -10.21349
 Alpha  occ. eigenvalues --  -10.21326 -10.21230 -10.21163 -10.21062  -9.47130
 Alpha  occ. eigenvalues --   -9.47035  -7.23526  -7.23431  -7.22559  -7.22521
 Alpha  occ. eigenvalues --   -7.22464  -7.22427  -1.14528  -1.13291  -1.06443
 Alpha  occ. eigenvalues --   -1.04697  -1.04340  -0.90020  -0.89924  -0.85367
 Alpha  occ. eigenvalues --   -0.85177  -0.81382  -0.78424  -0.76961  -0.76867
 Alpha  occ. eigenvalues --   -0.76435  -0.71554  -0.69718  -0.63506  -0.63413
 Alpha  occ. eigenvalues --   -0.62731  -0.60764  -0.59483  -0.57447  -0.56506
 Alpha  occ. eigenvalues --   -0.53284  -0.52851  -0.51447  -0.50643  -0.49850
 Alpha  occ. eigenvalues --   -0.49012  -0.48858  -0.48280  -0.47971  -0.46759
 Alpha  occ. eigenvalues --   -0.45561  -0.44722  -0.44611  -0.43904  -0.43846
 Alpha  occ. eigenvalues --   -0.42975  -0.41124  -0.40949  -0.40349  -0.40121
 Alpha  occ. eigenvalues --   -0.38947  -0.38803  -0.38116  -0.37908  -0.36513
 Alpha  occ. eigenvalues --   -0.36452  -0.34026  -0.33893  -0.32691  -0.32621
 Alpha  occ. eigenvalues --   -0.31996  -0.31854  -0.31740  -0.31494  -0.27295
 Alpha  occ. eigenvalues --   -0.27191  -0.26242  -0.25554  -0.25120
 Alpha virt. eigenvalues --   -0.08949  -0.03315  -0.03111  -0.02305  -0.02204
 Alpha virt. eigenvalues --   -0.00198   0.00197   0.02327   0.02416   0.09606
 Alpha virt. eigenvalues --    0.09687   0.10732   0.10822   0.11927   0.12058

 Mulliken charges:
               1
     1  C    0.151351
     2  C   -0.157672
     3  O   -0.407574
     4  C    0.739165
     5  O   -0.409873
     6  N   -0.238154
     7  N   -0.243574
     8  C    0.738415
     9  O   -0.418269
    10  O   -0.409699
    11  C   -0.157216
    12  C    0.151832
    13  C   -0.165254
    14  C   -0.128145
    15  C   -0.062419
    16  C   -0.129029
    17  C   -0.171842
    18  Cl  -0.014454
    19  C   -0.172517
    20  C   -0.128921
    21  C   -0.062261
    22  C   -0.128058
    23  C   -0.164804
    24  Cl  -0.012278
    25  H    0.187664
    26  H    0.172722
    27  H    0.186573
    28  H    0.172174
    29  H    0.143775
    30  H    0.160321
    31  H    0.163333
    32  H    0.171992
    33  H    0.171821
    34  H    0.164313
    35  H    0.161276
    36  H    0.145287
 Sum of Mulliken charges =  -0.00000

 Dipole moment (field-independent basis, Debye):
    X=              0.6728    Y=              0.9681    Z=              3.8504  Tot=              4.0269
 Quadrupole moment (field-independent basis, Debye-Ang):
   XX=           -140.7372   YY=           -157.0809   ZZ=           -141.9899
   XY=              3.5657   XZ=             -2.8445   YZ=              5.7904

 Summary of Natural Population Analysis:

                                       Natural Population
                Natural  -----------------------------------------------
    Atom  No    Charge         Core      Valence    Rydberg      Total
 -----------------------------------------------------------------------
      C    1   -0.09437      1.99901     4.08097    0.01439     6.09437
      C    2   -0.12670      1.99913     4.10841    0.01917     6.12670
      O    3   -0.52158      1.99973     6.50953    0.01232     8.52158
      C    4    0.92510      1.99951     3.02492    0.05048     5.07490
      O    5   -0.54384      1.99977     6.52332    0.02075     8.54384
      N    6   -0.21724      1.99938     5.19156    0.02630     7.21724
      N    7   -0.22082      1.99938     5.19491    0.02653     7.22082
      C    8    0.92089      1.99950     3.02932    0.05029     5.07911
      O    9   -0.55210      1.99977     6.53156    0.02077     8.55210
      O   10   -0.52390      1.99973     6.51192    0.01225     8.52390
      C   11   -0.12457      1.99912     4.10617    0.01928     6.12457
      C   12   -0.09418      1.99901     4.08082    0.01435     6.09418
      C   13   -0.20020      1.99903     4.18811    0.01307     6.20020
      C   14   -0.24365      1.99893     4.22980    0.01491     6.24365
      C   15   -0.03605      1.99856     4.01574    0.02176     6.03605
      C   16   -0.24146      1.99894     4.22760    0.01493     6.24146
      C   17   -0.19904      1.99903     4.18669    0.01331     6.19904
     Cl   18    0.00226      9.99967     6.97877    0.01930    16.99774
      C   19   -0.19875      1.99903     4.18637    0.01334     6.19875
      C   20   -0.24167      1.99894     4.22778    0.01495     6.24167
      C   21   -0.03506      1.99856     4.01471    0.02179     6.03506
      C   22   -0.24334      1.99893     4.22949    0.01492     6.24334
      C   23   -0.19926      1.99903     4.18714    0.01309     6.19926
     Cl   24    0.00397      9.99967     6.97706    0.01931    16.99603
      H   25    0.24460      0.00000     0.75330    0.00210     0.75540
      H   26    0.24286      0.00000     0.75599    0.00115     0.75714
      H   27    0.24369      0.00000     0.75414    0.00217     0.75631
      H   28    0.24247      0.00000     0.75642    0.00112     0.75753
      H   29    0.24270      0.00000     0.75630    0.00101     0.75730
      H   30    0.25608      0.00000     0.74290    0.00102     0.74392
      H   31    0.25750      0.00000     0.74150    0.00100     0.74250
      H   32    0.25897      0.00000     0.73970    0.00132     0.74103
      H   33    0.25858      0.00000     0.74006    0.00137     0.74142
      H   34    0.25804      0.00000     0.74097    0.00100     0.74196
      H   35    0.25655      0.00000     0.74243    0.00102     0.74345
      H   36    0.24353      0.00000     0.75547    0.00101     0.75647
 =======================================================================
   * Total *    0.00000     63.98135   123.52183    0.49681   188.00000

 Normal termination of Gaussian 16 at Sat Aug 22 18:14:09 2020.
