 Gaussian 16, Revision A.03,

 ---------------------------------
 # opt=CalcAll B3LYP/6-31G* scf=qc
 ---------------------------------

 -------------------
 Title Card Required
 -------------------
 Symbolic Z-matrix:
 Charge =  0 Multiplicity = 1

 SCF Done:  E(RB3LYP) =  -1028.45717539     a.u. after   10 cycles
 SCF Done:  E(RB3LYP) =  -1028.47487505     a.u. after   21 cycles
 SCF Done:  E(RB3LYP) =  -1028.47816529     a.u. after   25 cycles
 SCF Done:  E(RB3LYP) =  -1028.47946352     a.u. after   21 cycles
 SCF Done:  E(RB3LYP) =  -1028.47703817     a.u. after   25 cycles
 SCF Done:  E(RB3LYP) =  -1028.47952238     a.u. after   12 cycles
 SCF Done:  E(RB3LYP) =  -1028.48027497     a.u. after   19 cycles
 SCF Done:  E(RB3LYP) =  -1028.48078143     a.u. after   17 cycles
 SCF Done:  E(RB3LYP) =  -1028.48145331     a.u. after   17 cycles
 SCF Done:  E(RB3LYP) =  -1028.47927674     a.u. after   19 cycles
 SCF Done:  E(RB3LYP) =  -1028.48108841     a.u. after   10 cycles
 SCF Done:  E(RB3LYP) =  -1028.48098058     a.u. after   11 cycles
 SCF Done:  E(RB3LYP) =  -1028.48145332     a.u. after    2 cycles
 SCF Done:  E(RB3LYP) =  -1028.48164337     a.u. after   13 cycles
 SCF Done:  E(RB3LYP) =  -1028.48166498     a.u. after   17 cycles
 SCF Done:  E(RB3LYP) =  -1028.48169392     a.u. after   11 cycles
 SCF Done:  E(RB3LYP) =  -1028.48169550     a.u. after    7 cycles
 SCF Done:  E(RB3LYP) =  -1028.48169569     a.u. after    3 cycles
 Optimization completed on the basis of negligible forces.
    -- Stationary point found.
 Normal termination of Gaussian 16 at Sat Aug 22 22:04:15 2020.

 ----------------------------------------------------------------------
 # freq B3LYP/6-31G* scf=qc volume NMR pop=NPA density=current Geom=All
 Check Guess=Read
 ----------------------------------------------------------------------

 Structure from the checkpoint file:  "azadicarboxylate_4_conf62.chk"
 -------------------
 Title Card Required
 -------------------
 Charge =  0 Multiplicity = 1

 SCF Done:  E(RB3LYP) =  -1028.48169569     a.u. after    1 cycles

      1  C    Isotropic =    63.2164   Anisotropy =   174.3824

      2  C    Isotropic =   118.8397   Anisotropy =    33.2407

      3  O    Isotropic =   146.6441   Anisotropy =   129.7733

      4  C    Isotropic =    35.2077   Anisotropy =    79.1877

      5  O    Isotropic =   -26.8044   Anisotropy =   496.8580

      6  N    Isotropic =  -326.4951   Anisotropy =   680.0095

      7  N    Isotropic =  -322.2007   Anisotropy =   674.8153

      8  C    Isotropic =    34.7172   Anisotropy =    85.7154

      9  O    Isotropic =   -21.0130   Anisotropy =   496.0790

     10  O    Isotropic =   140.6707   Anisotropy =   142.8267

     11  C    Isotropic =   120.5979   Anisotropy =    39.0757

     12  C    Isotropic =    62.1058   Anisotropy =   173.2657

     13  C    Isotropic =    65.0719   Anisotropy =   156.3062

     14  C    Isotropic =    68.2714   Anisotropy =   165.6564

     15  C    Isotropic =    66.9951   Anisotropy =   170.9738

     16  C    Isotropic =    67.7291   Anisotropy =   166.9600

     17  C    Isotropic =    64.0079   Anisotropy =   162.8284

     18  C    Isotropic =    64.7910   Anisotropy =   159.4202

     19  C    Isotropic =    67.8053   Anisotropy =   166.7752

     20  C    Isotropic =    66.9604   Anisotropy =   171.2442

     21  C    Isotropic =    68.0008   Anisotropy =   166.3294

     22  C    Isotropic =    65.0746   Anisotropy =   156.4522

     23  H    Isotropic =    27.2520   Anisotropy =     4.4956

     24  H    Isotropic =    27.1782   Anisotropy =     4.2985

     25  H    Isotropic =    26.4356   Anisotropy =     2.7078

     26  H    Isotropic =    27.5893   Anisotropy =     5.3289

     27  H    Isotropic =    24.9096   Anisotropy =     6.8007

     28  H    Isotropic =    24.9359   Anisotropy =     4.5084

     29  H    Isotropic =    24.9346   Anisotropy =     4.1694

     30  H    Isotropic =    24.9371   Anisotropy =     4.9787

     31  H    Isotropic =    24.4255   Anisotropy =     7.6524

     32  H    Isotropic =    24.8451   Anisotropy =     7.1556

     33  H    Isotropic =    24.8737   Anisotropy =     4.6870

     34  H    Isotropic =    24.8794   Anisotropy =     4.2028

     35  H    Isotropic =    24.9069   Anisotropy =     4.7099

     36  H    Isotropic =    24.9101   Anisotropy =     6.9365

  Exact polarizability: 204.895 -15.248 180.228 -30.912  -1.374 168.743
 Approx polarizability: 239.943 -29.055 305.230 -58.667   6.106 297.959

                      1                      2                      3
                      A                      A                      A
 Frequencies --      6.0125                 9.1744                22.0996
 Red. masses --      5.7024                 3.8208                 5.3541
 Frc consts  --      0.0001                 0.0002                 0.0015
 IR Inten    --      0.5388                 0.1016                 0.1985

                      4                      5                      6
                      A                      A                      A
 Frequencies --     24.0813                27.9661                30.7056
 Red. masses --      4.1865                 7.1839                 8.8930
 Frc consts  --      0.0014                 0.0033                 0.0049
 IR Inten    --      0.1646                 1.2514                 0.8965

                      7                      8                      9
                      A                      A                      A
 Frequencies --     62.8424                74.8143               100.3422
 Red. masses --      8.5398                 6.1994                 6.6724
 Frc consts  --      0.0199                 0.0204                 0.0396
 IR Inten    --      0.8988                 1.6236                 0.6586

                     10                     11                     12
                      A                      A                      A
 Frequencies --    102.4902               150.8989               209.6549
 Red. masses --      6.3197                 6.3082                 8.4542
 Frc consts  --      0.0391                 0.0846                 0.2189
 IR Inten    --      0.1601                 0.5497                 2.6846

                     13                     14                     15
                      A                      A                      A
 Frequencies --    220.8257               226.1405               250.9523
 Red. masses --      7.1729                 8.6290                 8.0663
 Frc consts  --      0.2061                 0.2600                 0.2993
 IR Inten    --      0.3354                15.3004                 8.0092

                     16                     17                     18
                      A                      A                      A
 Frequencies --    295.9295               326.5445               335.8597
 Red. masses --      5.9104                 6.0505                 2.2190
 Frc consts  --      0.3050                 0.3801                 0.1475
 IR Inten    --      0.4083                 2.5547                 1.4490

                     19                     20                     21
                      A                      A                      A
 Frequencies --    367.3532               416.3295               416.9383
 Red. masses --      2.2109                 2.9554                 2.9677
 Frc consts  --      0.1758                 0.3018                 0.3040
 IR Inten    --      9.2316                 0.0169                 0.0361

                     22                     23                     24
                      A                      A                      A
 Frequencies --    433.3756               481.7311               510.9965
 Red. masses --      6.5138                 4.1975                 4.4523
 Frc consts  --      0.7208                 0.5739                 0.6850
 IR Inten    --      2.0909                 7.0117                 0.2637

                     25                     26                     27
                      A                      A                      A
 Frequencies --    574.6642               587.6720               592.2452
 Red. masses --      6.5110                 5.1906                 7.9952
 Frc consts  --      1.2669                 1.0562                 1.6523
 IR Inten    --     22.0455                11.9568                19.8861

                     28                     29                     30
                      A                      A                      A
 Frequencies --    635.4768               635.9589               643.3012
 Red. masses --      6.3350                 6.3176                 5.4591
 Frc consts  --      1.5073                 1.5054                 1.3311
 IR Inten    --      0.3815                 0.0318                 6.1037

                     31                     32                     33
                      A                      A                      A
 Frequencies --    652.9368               712.3587               713.6440
 Red. masses --      9.5550                 1.8472                 1.7928
 Frc consts  --      2.4001                 0.5523                 0.5380
 IR Inten    --     11.7836                22.3276                38.2672

                     34                     35                     36
                      A                      A                      A
 Frequencies --    770.9895               773.9156               810.8542
 Red. masses --      1.9546                 2.0428                 9.7790
 Frc consts  --      0.6846                 0.7209                 3.7882
 IR Inten    --      3.8818                66.8621                26.5144

                     37                     38                     39
                      A                      A                      A
 Frequencies --    819.2928               839.3727               857.9445
 Red. masses --      5.8356                 3.8313                 4.6940
 Frc consts  --      2.3079                 1.5904                 2.0357
 IR Inten    --      6.2757                13.9076                30.6364

                     40                     41                     42
                      A                      A                      A
 Frequencies --    860.2952               863.6369               903.7731
 Red. masses --      1.2488                 1.2481                 5.8712
 Frc consts  --      0.5446                 0.5485                 2.8255
 IR Inten    --      0.0056                 0.0783                25.4970

                     43                     44                     45
                      A                      A                      A
 Frequencies --    922.2288               941.6202               966.1614
 Red. masses --      1.7037                 1.5257                 4.1454
 Frc consts  --      0.8537                 0.7970                 2.2799
 IR Inten    --     32.1165                 5.8392                45.4824

                     46                     47                     48
                      A                      A                      A
 Frequencies --    968.6098               973.9167               979.7900
 Red. masses --      1.3574                 1.3599                 3.2107
 Frc consts  --      0.7503                 0.7600                 1.8160
 IR Inten    --      0.0823                 0.3068               102.7894

                     49                     50                     51
                      A                      A                      A
 Frequencies --    985.2850              1000.8643              1002.2874
 Red. masses --      1.9389                 1.3281                 1.2965
 Frc consts  --      1.1090                 0.7838                 0.7673
 IR Inten    --     22.9304                 0.9954                 1.4077

                     52                     53                     54
                      A                      A                      A
 Frequencies --   1003.1148              1018.9106              1020.0996
 Red. masses --      6.0851                 3.9289                 6.2735
 Frc consts  --      3.6076                 2.4032                 3.8463
 IR Inten    --     27.0244                 9.0369                 1.0620

                     55                     56                     57
                      A                      A                      A
 Frequencies --   1021.8187              1058.6870              1059.0093
 Red. masses --      3.4447                 2.1978                 2.2312
 Frc consts  --      2.1191                 1.4514                 1.4743
 IR Inten    --      8.1637                 0.3621                 0.9240

                     58                     59                     60
                      A                      A                      A
 Frequencies --   1121.1567              1123.6248              1194.8284
 Red. masses --      1.5110                 1.5185                 1.1024
 Frc consts  --      1.1190                 1.1296                 0.9273
 IR Inten    --      2.1103                 1.7735                 0.0081

                     61                     62                     63
                      A                      A                      A
 Frequencies --   1194.9305              1214.6024              1216.0568
 Red. masses --      1.1031                 1.1429                 1.1451
 Frc consts  --      0.9280                 0.9934                 0.9977
 IR Inten    --      0.0046                18.0356                13.6055

                     64                     65                     66
                      A                      A                      A
 Frequencies --   1239.9088              1244.6688              1249.5230
 Red. masses --      3.1402                 3.1976                 3.2608
 Frc consts  --      2.8443                 2.9186                 2.9996
 IR Inten    --     72.2603               481.2469               624.1043

                     67                     68                     69
                      A                      A                      A
 Frequencies --   1259.6428              1266.8214              1299.3206
 Red. masses --      1.3192                 3.4515                 1.5085
 Frc consts  --      1.2333                 3.2635                 1.5005
 IR Inten    --     10.2666               364.0686                67.7305

                     70                     71                     72
                      A                      A                      A
 Frequencies --   1363.2959              1365.1835              1370.1479
 Red. masses --      5.0847                 4.1314                 1.2934
 Frc consts  --      5.5680                 4.5366                 1.4306
 IR Inten    --      0.6053                 2.8117                 0.6049

                     73                     74                     75
                      A                      A                      A
 Frequencies --   1375.4644              1417.5874              1420.7260
 Red. masses --      1.2678                 1.3585                 1.4900
 Frc consts  --      1.4131                 1.6084                 1.7719
 IR Inten    --      2.8164                21.7982                23.9323

                     76                     77                     78
                      A                      A                      A
 Frequencies --   1503.7851              1504.8742              1516.6976
 Red. masses --      2.2163                 2.1990                 1.1177
 Frc consts  --      2.9529                 2.9341                 1.5149
 IR Inten    --      7.1431                 7.0224                11.2660

                     79                     80                     81
                      A                      A                      A
 Frequencies --   1528.9151              1548.0430              1550.2151
 Red. masses --      1.0970                 2.2118                 2.2762
 Frc consts  --      1.5109                 3.1229                 3.2228
 IR Inten    --      4.8614                 4.5096                 2.7658

                     82                     83                     84
                      A                      A                      A
 Frequencies --   1646.4552              1647.8002              1647.9390
 Red. masses --      5.5268                 5.8695                12.0955
 Frc consts  --      8.8273                 9.3899                19.3534
 IR Inten    --      0.8119                 0.2823                 0.2139

                     85                     86                     87
                      A                      A                      A
 Frequencies --   1666.1444              1668.4828              1834.1523
 Red. masses --      5.5101                 5.5846                12.2790
 Frc consts  --      9.0124                 9.1598                24.3379
 IR Inten    --      0.5559                 0.3851                11.3969

                     88                     89                     90
                      A                      A                      A
 Frequencies --   1848.7166              3088.7041              3107.1490
 Red. masses --     12.4438                 1.0577                 1.0575
 Frc consts  --     25.0579                 5.9453                 6.0154
 IR Inten    --    569.8528                14.3119                22.7910

                     91                     92                     93
                      A                      A                      A
 Frequencies --   3139.6264              3164.9878              3179.8796
 Red. masses --      1.1101                 1.1108                 1.0864
 Frc consts  --      6.4469                 6.5557                 6.4725
 IR Inten    --      9.8123                 4.6547                 4.4055

                     94                     95                     96
                      A                      A                      A
 Frequencies --   3180.9377              3183.8108              3187.5264
 Red. masses --      1.0859                 1.0879                 1.0878
 Frc consts  --      6.4734                 6.4975                 6.5117
 IR Inten    --      4.4570                 2.7491                 2.7290

                     97                     98                     99
                      A                      A                      A
 Frequencies --   3192.7023              3198.1153              3202.7899
 Red. masses --      1.0906                 1.0914                 1.0942
 Frc consts  --      6.5498                 6.5771                 6.6130
 IR Inten    --     10.5783                22.5784                32.5128

                    100                    101                    102
                      A                      A                      A
 Frequencies --   3207.8455              3212.4675              3215.4266
 Red. masses --      1.0949                 1.0980                 1.0963
 Frc consts  --      6.6381                 6.6763                 6.6782
 IR Inten    --     24.1551                16.8368                 7.4119

 - Thermochemistry -
 -------------------
 Temperature   298.150 Kelvin.  Pressure   1.00000 Atm.
 Atom     1 has atomic number  6 and mass  12.00000

 Molecular mass:   298.09536 amu.
 Principal axes and moments of inertia in atomic units:
                           1         2         3
     Eigenvalues --  3137.03559********************
           X            1.00000  -0.00109  -0.00286
           Y            0.00101   0.99954  -0.03031
           Z            0.00289   0.03031   0.99954
 This molecule is an asymmetric top.
 Rotational symmetry number  1.
 Warning -- assumption of classical behavior for rotation
           may cause significant error
 Rotational temperatures (Kelvin)      0.02761     0.00444     0.00429
 Rotational constants (GHZ):           0.57530     0.09250     0.08947
 Zero-point vibrational energy     728444.9 (Joules/Mol)
                                  174.10251 (Kcal/Mol)
 Warning -- explicit consideration of  27 degrees of freedom as
           vibrations may cause significant error
 Vibrational temperatures:      8.65    13.20    31.80    34.65    40.24
          (Kelvin)             44.18    90.42   107.64   144.37   147.46
                              217.11   301.65   317.72   325.37   361.06
                              425.78   469.82   483.23   528.54   599.01
                              599.88   623.53   693.10   735.21   826.81
                              845.53   852.11   914.31   915.00   925.57
                              939.43  1024.93  1026.77  1109.28  1113.49
                             1166.64  1178.78  1207.67  1234.39  1237.77
                             1242.58  1300.33  1326.88  1354.78  1390.09
                             1393.61  1401.25  1409.70  1417.61  1440.02
                             1442.07  1443.26  1465.99  1467.70  1470.17
                             1523.21  1523.68  1613.09  1616.65  1719.09
                             1719.24  1747.54  1749.63  1783.95  1790.80
                             1797.78  1812.35  1822.67  1869.43  1961.48
                             1964.19  1971.34  1978.99  2039.59  2044.11
                             2163.61  2165.18  2182.19  2199.77  2227.29
                             2230.41  2368.88  2370.82  2371.02  2397.21
                             2400.57  2638.94  2659.89  4443.96  4470.49
                             4517.22  4553.71  4575.14  4576.66  4580.79
                             4586.14  4593.59  4601.37  4608.10  4615.37
                             4622.02  4626.28

 Zero-point correction=                           0.277450 (Hartree/Particle)
 Thermal correction to Energy=                    0.297064
 Thermal correction to Enthalpy=                  0.298008
 Thermal correction to Gibbs Free Energy=         0.221038
 Sum of electronic and zero-point Energies=          -1028.204246
 Sum of electronic and thermal Energies=             -1028.184631
 Sum of electronic and thermal Enthalpies=           -1028.183687
 Sum of electronic and thermal Free Energies=        -1028.260658

                     E (Thermal)             CV                S
                      KCal/Mol        Cal/Mol-Kelvin    Cal/Mol-Kelvin
 Total                  186.411             71.469            161.999
 Electronic               0.000              0.000              0.000
 Translational            0.889              2.981             42.974
 Rotational               0.889              2.981             35.467
 Vibrational            184.633             65.507             83.559
 Vibration     1          0.593              1.987              9.022
 Vibration     2          0.593              1.987              8.182
 Vibration     3          0.593              1.985              6.436
 Vibration     4          0.593              1.985              6.266
 Vibration     5          0.593              1.984              5.969
 Vibration     6          0.594              1.984              5.783
 Vibration     7          0.597              1.972              4.366
 Vibration     8          0.599              1.966              4.023
 Vibration     9          0.604              1.949              3.448
 Vibration    10          0.605              1.947              3.406
 Vibration    11          0.618              1.902              2.661
 Vibration    12          0.642              1.826              2.047
 Vibration    13          0.648              1.809              1.952
 Vibration    14          0.650              1.801              1.909
 Vibration    15          0.663              1.761              1.724
 Vibration    16          0.690              1.681              1.440
 Vibration    17          0.710              1.622              1.277
 Vibration    18          0.717              1.604              1.232
 Vibration    19          0.740              1.539              1.091
 Vibration    20          0.780              1.435              0.905
 Vibration    21          0.780              1.433              0.902
 Vibration    22          0.794              1.398              0.848
 Vibration    23          0.838              1.291              0.705
 Vibration    24          0.866              1.226              0.631
 Vibration    25          0.931              1.086              0.495
 Vibration    26          0.945              1.058              0.471
 Vibration    27          0.950              1.048              0.463

 Optimization completed on the basis of negligible forces.
    -- Stationary point found.
 Normal termination of Gaussian 16 at Sat Aug 22 22:14:05 2020.
 Gaussian 16:  ES64L-G16RevA.03 25-Dec-2016

 ----------------------------------------------------------------------
 # TD(NStates=10, Root=1) B3LYP/6-31G* scf=qc volume pop=NPA density=cu
 rrent Geom=AllCheck Guess=Read
 ----------------------------------------------------------------------

 Structure from the checkpoint file:  "azadicarboxylate_4_conf63.chk"
 -------------------
 Title Card Required
 -------------------
 Charge =  0 Multiplicity = 1

                         Standard orientation:
 ---------------------------------------------------------------------
 Center     Atomic      Atomic             Coordinates (Angstroms)
 Number     Number       Type             X           Y           Z
 ---------------------------------------------------------------------
      1          6           0        4.538514    0.038339    0.401813
      2          6           0        3.552671    1.039288    0.931171
      3          8           0        2.226546    0.689862    0.414147
      4          6           0        1.225103    1.428899    0.883735
      5          8           0        1.281981    2.337243    1.674308
      6          7           0       -0.046289    0.921581    0.407373
      7          7           0       -0.297813    1.268860   -0.762090
      8          6           0       -1.571213    0.767056   -1.239113
      9          8           0       -1.619656   -0.072011   -2.104632
     10          8           0       -2.575857    1.434430   -0.678962
     11          6           0       -3.922139    1.112651   -1.166965
     12          6           0       -4.555097    0.005691   -0.367083
     13          6           0       -5.289439    0.303170    0.787778
     14          6           0       -5.872924   -0.716993    1.538591
     15          6           0       -5.727127   -2.046930    1.138935
     16          6           0       -4.996167   -2.352251   -0.011104
     17          6           0       -4.412106   -1.331601   -0.761198
     18          6           0        5.129849    0.221721   -0.854293
     19          6           0        6.034239   -0.714482   -1.354052
     20          6           0        6.357993   -1.844223   -0.599433
     21          6           0        5.774112   -2.034783    0.654307
     22          6           0        4.868345   -1.097338    1.150831
     23          1           0        3.778507    2.057294    0.602274
     24          1           0        3.500627    1.034921    2.022973
     25          1           0       -3.843804    0.857382   -2.225429
     26          1           0       -4.463279    2.053054   -1.050637
     27          1           0       -5.404183    1.339063    1.098787
     28          1           0       -6.442067   -0.474468    2.431863
     29          1           0       -6.183434   -2.842976    1.721298
     30          1           0       -4.881468   -3.386064   -0.325412
     31          1           0       -3.833639   -1.566148   -1.649957
     32          1           0        4.877700    1.101090   -1.442185
     33          1           0        6.487959   -0.561713   -2.329404
     34          1           0        7.065513   -2.572518   -0.986544
     35          1           0        6.024999   -2.911093    1.245650
     36          1           0        4.413487   -1.246372    2.127347
 ---------------------------------------------------------------------

 SCF Done:  E(RB3LYP) =  -1028.48169569     a.u. after    1 cycles

 Excitation energies and oscillator strengths:

 Excited State   1:      Singlet-A      2.9267 eV  423.64 nm  f=0.0002  <S**2>=0.000
      74 -> 79         0.27559
      78 -> 79         0.63648
 This state for optimization and/or second-order correction.
 Total Energy, E(TD-HF/TD-DFT) =  -1028.37414256
 Copying the excited state density for this state as the 1-particle RhoCI density.

 Excited State   2:      Singlet-A      4.1530 eV  298.54 nm  f=0.0094  <S**2>=0.000
      74 -> 79         0.14890
      76 -> 79         0.46396
      77 -> 79         0.48099
      78 -> 79        -0.16828

 Excited State   3:      Singlet-A      4.1883 eV  296.02 nm  f=0.0066  <S**2>=0.000
      76 -> 79        -0.47421
      77 -> 79         0.51132

 Excited State   4:      Singlet-A      4.2964 eV  288.58 nm  f=0.0054  <S**2>=0.000
      74 -> 79         0.57727
      75 -> 79        -0.24033
      76 -> 79        -0.21313
      78 -> 79        -0.22882

 Excited State   5:      Singlet-A      4.3153 eV  287.31 nm  f=0.0004  <S**2>=0.000
      74 -> 79         0.22430
      75 -> 79         0.66358

 Excited State   6:      Singlet-A      5.0237 eV  246.80 nm  f=0.1014  <S**2>=0.000
      72 -> 79        -0.22905
      73 -> 79         0.64953

 Excited State   7:      Singlet-A      5.1316 eV  241.61 nm  f=0.0166  <S**2>=0.000
      70 -> 79        -0.16207
      71 -> 79        -0.18358
      72 -> 79         0.60460
      73 -> 79         0.22630

 Excited State   8:      Singlet-A      5.3994 eV  229.62 nm  f=0.0021  <S**2>=0.000
      71 -> 79        -0.10140
      74 -> 82         0.28840
      75 -> 80         0.50227
      76 -> 82        -0.21853
      78 -> 82        -0.27420

 Excited State   9:      Singlet-A      5.4004 eV  229.58 nm  f=0.0017  <S**2>=0.000
      74 -> 83        -0.11641
      76 -> 81        -0.12007
      76 -> 83        -0.35599
      77 -> 81         0.50250
      78 -> 83         0.23932

 Excited State  10:      Singlet-A      5.4110 eV  229.13 nm  f=0.0072  <S**2>=0.000
      70 -> 79        -0.16898
      71 -> 79         0.65159
      72 -> 79         0.13411

 The electronic state is 1-A.
 Alpha  occ. eigenvalues --  -19.21196 -19.21128 -19.15633 -19.15523 -14.42171
 Alpha  occ. eigenvalues --  -14.42121 -10.35173 -10.34999 -10.25929 -10.25858
 Alpha  occ. eigenvalues --  -10.20720 -10.20410 -10.20073 -10.20025 -10.19995
 Alpha  occ. eigenvalues --  -10.19881 -10.19862 -10.19799 -10.19712 -10.19598
 Alpha  occ. eigenvalues --  -10.19516 -10.19455  -1.13687  -1.12448  -1.05532
 Alpha  occ. eigenvalues --   -1.03846  -1.03451  -0.86576  -0.86206  -0.80969
 Alpha  occ. eigenvalues --   -0.78677  -0.76608  -0.75349  -0.74988  -0.71334
 Alpha  occ. eigenvalues --   -0.69500  -0.62092  -0.61556  -0.61291  -0.59986
 Alpha  occ. eigenvalues --   -0.58757  -0.56894  -0.55445  -0.52451  -0.52355
 Alpha  occ. eigenvalues --   -0.51196  -0.49597  -0.49050  -0.48419  -0.47321
 Alpha  occ. eigenvalues --   -0.46842  -0.46585  -0.45122  -0.44131  -0.43077
 Alpha  occ. eigenvalues --   -0.42987  -0.42798  -0.42254  -0.40974  -0.40546
 Alpha  occ. eigenvalues --   -0.39209  -0.38729  -0.37748  -0.36984  -0.36430
 Alpha  occ. eigenvalues --   -0.35966  -0.35179  -0.35073  -0.34506  -0.31993
 Alpha  occ. eigenvalues --   -0.31759  -0.31179  -0.30199  -0.26281  -0.25874
 Alpha  occ. eigenvalues --   -0.25657  -0.25536  -0.24647
 Alpha virt. eigenvalues --   -0.08271  -0.01989  -0.01714  -0.00963  -0.00605
 Alpha virt. eigenvalues --    0.00978   0.01049   0.08317   0.09041   0.10814
 Alpha virt. eigenvalues --    0.11273   0.12261   0.12466   0.12586   0.13215

 Mulliken charges:
               1
     1  C    0.145772
     2  C   -0.142583
     3  O   -0.409481
     4  C    0.741540
     5  O   -0.419024
     6  N   -0.238358
     7  N   -0.242121
     8  C    0.736252
     9  O   -0.424912
    10  O   -0.409299
    11  C   -0.155816
    12  C    0.150266
    13  C   -0.167088
    14  C   -0.128675
    15  C   -0.123733
    16  C   -0.129752
    17  C   -0.174718
    18  C   -0.160384
    19  C   -0.128797
    20  C   -0.122791
    21  C   -0.128887
    22  C   -0.164931
    23  H    0.173757
    24  H    0.175693
    25  H    0.183457
    26  H    0.170164
    27  H    0.135074
    28  H    0.135699
    29  H    0.135347
    30  H    0.137410
    31  H    0.160776
    32  H    0.139112
    33  H    0.138544
    34  H    0.137673
    35  H    0.137877
    36  H    0.136936
 Sum of Mulliken charges =  -0.00000

 Dipole moment (field-independent basis, Debye):
    X=              0.4848    Y=             -1.2832    Z=              0.2622  Tot=              1.3965
 Quadrupole moment (field-independent basis, Debye-Ang):
   XX=            -89.9518   YY=           -120.4874   ZZ=           -123.0684
   XY=             -4.3218   XZ=             -3.8612   YZ=             -7.6749

 Summary of Natural Population Analysis:

                                       Natural Population
                Natural  -----------------------------------------------
    Atom  No    Charge         Core      Valence    Rydberg      Total
 -----------------------------------------------------------------------
      C    1   -0.08190      1.99901     4.06759    0.01529     6.08190
      C    2   -0.12366      1.99914     4.10655    0.01797     6.12366
      O    3   -0.52226      1.99972     6.51023    0.01232     8.52226
      C    4    0.91810      1.99951     3.03223    0.05016     5.08190
      O    5   -0.54473      1.99978     6.52428    0.02067     8.54473
      N    6   -0.21272      1.99938     5.18716    0.02617     7.21272
      N    7   -0.21684      1.99938     5.19109    0.02637     7.21684
      C    8    0.91824      1.99950     3.03196    0.05030     5.08176
      O    9   -0.55912      1.99977     6.53868    0.02067     8.55912
      O   10   -0.52310      1.99973     6.51110    0.01227     8.52310
      C   11   -0.12335      1.99912     4.10510    0.01913     6.12335
      C   12   -0.09125      1.99901     4.07775    0.01450     6.09125
      C   13   -0.21171      1.99903     4.19951    0.01317     6.21171
      C   14   -0.23059      1.99910     4.21766    0.01383     6.23059
      C   15   -0.22287      1.99910     4.21030    0.01347     6.22287
      C   16   -0.22919      1.99910     4.21626    0.01383     6.22919
      C   17   -0.21172      1.99903     4.19933    0.01336     6.21172
      C   18   -0.20744      1.99903     4.19526    0.01315     6.20744
      C   19   -0.22838      1.99910     4.21545    0.01383     6.22838
      C   20   -0.22102      1.99910     4.20845    0.01347     6.22102
      C   21   -0.22904      1.99910     4.21611    0.01383     6.22904
      C   22   -0.20924      1.99903     4.19713    0.01308     6.20924
      H   23    0.23734      0.00000     0.76088    0.00179     0.76266
      H   24    0.23772      0.00000     0.76037    0.00191     0.76228
      H   25    0.24196      0.00000     0.75582    0.00222     0.75804
      H   26    0.24136      0.00000     0.75750    0.00114     0.75864
      H   27    0.23705      0.00000     0.76189    0.00106     0.76295
      H   28    0.23942      0.00000     0.75973    0.00085     0.76058
      H   29    0.23847      0.00000     0.76070    0.00082     0.76153
      H   30    0.24019      0.00000     0.75897    0.00084     0.75981
      H   31    0.25183      0.00000     0.74681    0.00135     0.74817
      H   32    0.23934      0.00000     0.75962    0.00103     0.76066
      H   33    0.24081      0.00000     0.75835    0.00084     0.75919
      H   34    0.23971      0.00000     0.75947    0.00081     0.76029
      H   35    0.24050      0.00000     0.75866    0.00084     0.75950
      H   36    0.23809      0.00000     0.76089    0.00102     0.76191
 =======================================================================
   * Total *   -0.00000     43.98376   111.57887    0.43737   156.00000

 Normal termination of Gaussian 16 at Sat Aug 22 22:23:53 2020.
