 Gaussian 16, Revision A.03,

 ---------------------------------
 # opt=CalcAll B3LYP/6-31G* scf=qc
 ---------------------------------

 -------------------
 Title Card Required
 -------------------
 Symbolic Z-matrix:
 Charge =  0 Multiplicity = 1

 SCF Done:  E(RB3LYP) =  -2973.02983056     a.u. after    8 cycles
 SCF Done:  E(RB3LYP) =  -2973.03505034     a.u. after   52 cycles
 SCF Done:  E(RB3LYP) =  -2973.03509333     a.u. after    3 cycles
 Optimization completed.
    -- Stationary point found.
 Normal termination of Gaussian 16 at Thu Dec 26 11:57:48 2019.

 ----------------------------------------------------------------------
 # freq B3LYP/6-31G* scf=qc volume NMR pop=NPA density=current Geom=All
 Check Guess=Read
 ----------------------------------------------------------------------

 Structure from the checkpoint file:  "electrophile_32.chk"
 -------------------
 Title Card Required
 -------------------
 Charge =  0 Multiplicity = 1

 SCF Done:  E(RB3LYP) =  -2973.03509333     a.u. after    1 cycles

      1  Br   Isotropic =  2175.0140   Anisotropy =  1169.4285

      2  C    Isotropic =    55.5669   Anisotropy =   106.3928

      3  C    Isotropic =    63.6532   Anisotropy =   138.1761

      4  C    Isotropic =    63.6815   Anisotropy =   143.7965

      5  C    Isotropic =    49.2394   Anisotropy =   182.4675

      6  N    Isotropic =   -59.9329   Anisotropy =   511.7748

      7  C    Isotropic =    46.5989   Anisotropy =   154.8292

      8  C    Isotropic =    74.6312   Anisotropy =   155.3069

      9  C    Isotropic =    61.9621   Anisotropy =   162.3836

     10  C    Isotropic =    67.3567   Anisotropy =   189.5746

     11  C    Isotropic =    65.6008   Anisotropy =   121.6421

     12  H    Isotropic =    24.6520   Anisotropy =     9.6135

     13  H    Isotropic =    24.2890   Anisotropy =     6.0726

     14  H    Isotropic =    23.3158   Anisotropy =     5.7845

     15  H    Isotropic =    25.0371   Anisotropy =     5.7484

     16  H    Isotropic =    24.4972   Anisotropy =     7.5880

     17  H    Isotropic =    24.6547   Anisotropy =    10.7492

  Exact polarizability: 192.751   8.926 114.132   0.001  -0.000  42.454
 Approx polarizability: 310.419  13.789 211.426   0.001  -0.001  68.408

                      1                      2                      3
                      A                      A                      A
 Frequencies --     92.2384               177.8756               180.3457
 Red. masses --      6.4471                 4.1259                 7.3631
 Frc consts  --      0.0323                 0.0769                 0.1411
 IR Inten    --      0.1121                 3.3445                 0.4655

                      4                      5                      6
                      A                      A                      A
 Frequencies --    269.4066               270.7444               411.6065
 Red. masses --      4.9631                15.2484                 3.6939
 Frc consts  --      0.2122                 0.6586                 0.3687
 IR Inten    --      0.1274                 1.1081                 2.1709

                      7                      8                      9
                      A                      A                      A
 Frequencies --    412.3505               491.3718               524.5469
 Red. masses --      4.3425                 2.8197                 4.1620
 Frc consts  --      0.4350                 0.4011                 0.6747
 IR Inten    --      6.4953                 4.5115                 1.9415

                     10                     11                     12
                      A                      A                      A
 Frequencies --    538.7713               598.3450               635.8838
 Red. masses --      6.9617                 7.6929                 7.8052
 Frc consts  --      1.1906                 1.6227                 1.8595
 IR Inten    --      0.5662                12.6650                 5.7683

                     13                     14                     15
                      A                      A                      A
 Frequencies --    648.8267               781.0951               784.8565
 Red. masses --      3.2466                 5.1964                 1.7947
 Frc consts  --      0.8052                 1.8679                 0.6514
 IR Inten    --      0.0118                 0.2548                 3.6164

                     16                     17                     18
                      A                      A                      A
 Frequencies --    813.4316               859.2436               860.2545
 Red. masses --      1.6186                 6.5681                 1.7843
 Frc consts  --      0.6310                 2.8571                 0.7780
 IR Inten    --     10.2846                37.3626                36.2756

                     19                     20                     21
                      A                      A                      A
 Frequencies --    912.7906               953.0036               969.6983
 Red. masses --      1.4851                 5.3980                 1.4048
 Frc consts  --      0.7291                 2.8885                 0.7783
 IR Inten    --     16.6495                 9.3817                 0.3658

                     22                     23                     24
                      A                      A                      A
 Frequencies --    993.6904               997.8429              1059.4544
 Red. masses --      1.3217                 1.3382                 2.5908
 Frc consts  --      0.7690                 0.7850                 1.7133
 IR Inten    --      0.3933                 1.1223                 3.9337

                     25                     26                     27
                      A                      A                      A
 Frequencies --   1084.3080              1153.4111              1176.6031
 Red. masses --      2.2595                 1.5222                 1.1626
 Frc consts  --      1.5652                 1.1932                 0.9483
 IR Inten    --     19.0067                10.1439                 0.6035

                     28                     29                     30
                      A                      A                      A
 Frequencies --   1230.5294              1269.5560              1286.4069
 Red. masses --      2.6845                 1.9228                 1.5614
 Frc consts  --      2.3949                 1.8260                 1.5224
 IR Inten    --     13.7283                 3.9750                 1.8031

                     31                     32                     33
                      A                      A                      A
 Frequencies --   1372.7839              1390.8499              1410.9774
 Red. masses --      3.5336                 2.2776                 4.3964
 Frc consts  --      3.9235                 2.5959                 5.1569
 IR Inten    --     14.6238                 9.2905                 2.5735

                     34                     35                     36
                      A                      A                      A
 Frequencies --   1467.0023              1501.8771              1539.9556
 Red. masses --      2.1544                 2.5239                 3.6041
 Frc consts  --      2.7318                 3.3542                 5.0357
 IR Inten    --      0.0459                 5.7855                56.1897

                     37                     38                     39
                      A                      A                      A
 Frequencies --   1613.5110              1648.5741              1665.6688
 Red. masses --      6.8143                 5.6690                 6.3629
 Frc consts  --     10.4523                 9.0776                10.4012
 IR Inten    --      7.2788                38.0290                 0.9284

                     40                     41                     42
                      A                      A                      A
 Frequencies --   3164.9928              3188.0116              3211.1542
 Red. masses --      1.0893                 1.0891                 1.0917
 Frc consts  --      6.4290                 6.5219                 6.6324
 IR Inten    --     29.3848                 7.6454                 3.0541

                     43                     44                     45
                      A                      A                      A
 Frequencies --   3213.9586              3215.0972              3230.6479
 Red. masses --      1.0959                 1.0881                 1.0957
 Frc consts  --      6.6695                 6.6271                 6.7376
 IR Inten    --     21.1712                 0.3094                 4.0023

 - Thermochemistry -
 -------------------
 Temperature   298.150 Kelvin.  Pressure   1.00000 Atm.
 Atom     1 has atomic number 35 and mass  78.91834

 Molecular mass:   206.96836 amu.
 Principal axes and moments of inertia in atomic units:
                           1         2         3
     Eigenvalues --   664.766914698.994535363.76144
           X            0.99989   0.01459   0.00000
           Y           -0.01459   0.99989  -0.00000
           Z           -0.00000   0.00000   1.00000
 This molecule is an asymmetric top.
 Rotational symmetry number  1.
 Warning -- assumption of classical behavior for rotation
           may cause significant error
 Rotational temperatures (Kelvin)      0.13029     0.01843     0.01615
 Rotational constants (GHZ):           2.71485     0.38407     0.33647
 Zero-point vibrational energy     330609.3 (Joules/Mol)
                                   79.01751 (Kcal/Mol)
 Warning -- explicit consideration of  11 degrees of freedom as
           vibrations may cause significant error
 Vibrational temperatures:    132.71   255.92   259.48   387.62   389.54
          (Kelvin)            592.21   593.28   706.97   754.71   775.17
                              860.88   914.89   933.52  1123.82  1129.23
                             1170.35  1236.26  1237.71  1313.30  1371.16
                             1395.18  1429.70  1435.67  1524.32  1560.08
                             1659.50  1692.87  1770.46  1826.61  1850.85
                             1975.13  2001.12  2030.08  2110.69  2160.87
                             2215.65  2321.48  2371.93  2396.53  4553.72
                             4586.84  4620.13  4624.17  4625.81  4648.18

 Zero-point correction=                           0.125922 (Hartree/Particle)
 Thermal correction to Energy=                    0.134036
 Thermal correction to Enthalpy=                  0.134981
 Thermal correction to Gibbs Free Energy=         0.091546
 Sum of electronic and zero-point Energies=          -2972.909171
 Sum of electronic and thermal Energies=             -2972.901057
 Sum of electronic and thermal Enthalpies=           -2972.900113
 Sum of electronic and thermal Free Energies=        -2972.943547

                     E (Thermal)             CV                S
                      KCal/Mol        Cal/Mol-Kelvin    Cal/Mol-Kelvin
 Total                   84.109             32.000             91.415
 Electronic               0.000              0.000              0.000
 Translational            0.889              2.981             41.886
 Rotational               0.889              2.981             31.194
 Vibrational             82.332             26.038             18.335
 Vibration     1          0.602              1.955              3.612
 Vibration     2          0.628              1.870              2.351
 Vibration     3          0.629              1.866              2.325
 Vibration     4          0.674              1.729              1.600
 Vibration     5          0.674              1.727              1.591
 Vibration     6          0.776              1.445              0.921
 Vibration     7          0.776              1.443              0.918
 Vibration     8          0.847              1.269              0.680
 Vibration     9          0.880              1.196              0.600
 Vibration    10          0.894              1.164              0.568
 Vibration    11          0.956              1.035              0.453

 Optimization completed.
    -- Stationary point found.
 Normal termination of Gaussian 16 at Thu Dec 26 12:02:58 2019.
 Gaussian 16:  ES64L-G16RevA.03 25-Dec-2016

 ----------------------------------------------------------------------
 # TD(NStates=10, Root=1) B3LYP/6-31G* scf=qc volume pop=NPA density=cu
 rrent Geom=AllCheck Guess=Read
 ----------------------------------------------------------------------

 Structure from the checkpoint file:  "electrophile_33.chk"
 -------------------
 Title Card Required
 -------------------
 Charge =  0 Multiplicity = 1

                         Standard orientation:
 ---------------------------------------------------------------------
 Center     Atomic      Atomic             Coordinates (Angstroms)
 Number     Number       Type             X           Y           Z
 ---------------------------------------------------------------------
      1         35           0        2.904614   -0.239060   -0.000014
      2          6           0        1.032866    0.152227    0.000018
      3          6           0        0.626481    1.507956    0.000020
      4          6           0       -0.714774    1.813493    0.000020
      5          6           0       -1.695865    0.786811    0.000010
      6          7           0       -3.012690    1.145037   -0.000015
      7          6           0       -3.908905    0.179160   -0.000032
      8          6           0       -3.592703   -1.203569   -0.000014
      9          6           0       -2.271228   -1.580457    0.000019
     10          6           0       -1.266561   -0.578602    0.000023
     11          6           0        0.121253   -0.875841    0.000035
     12          1           0        1.377352    2.290393    0.000009
     13          1           0       -1.059129    2.842749    0.000011
     14          1           0       -4.953124    0.490403   -0.000066
     15          1           0       -4.390419   -1.940224   -0.000035
     16          1           0       -1.982855   -2.628952    0.000032
     17          1           0        0.452127   -1.909601    0.000046
 ---------------------------------------------------------------------

 SCF Done:  E(RB3LYP) =  -2973.03509333     a.u. after    1 cycles

 Excitation energies and oscillator strengths:

 Excited State   1:      Singlet-A      4.2617 eV  290.93 nm  f=0.0018  <S**2>=0.000
      49 -> 52         0.70226
 This state for optimization and/or second-order correction.
 Total Energy, E(TD-HF/TD-DFT) =  -2972.87847944
 Copying the excited state density for this state as the 1-particle RhoCI density.

 Excited State   2:      Singlet-A      4.2797 eV  289.70 nm  f=0.0520  <S**2>=0.000
      50 -> 52         0.21030
      50 -> 53        -0.16440
      51 -> 52         0.62258
      51 -> 53         0.19134

 Excited State   3:      Singlet-A      4.5286 eV  273.78 nm  f=0.0187  <S**2>=0.000
      50 -> 52         0.53251
      51 -> 52        -0.28297
      51 -> 53         0.35318

 Excited State   4:      Singlet-A      5.2027 eV  238.31 nm  f=0.0000  <S**2>=0.000
      49 -> 53         0.70342

 Excited State   5:      Singlet-A      5.4360 eV  228.08 nm  f=0.0002  <S**2>=0.000
      51 -> 54         0.69675

 Excited State   6:      Singlet-A      5.4907 eV  225.81 nm  f=0.0000  <S**2>=0.000
      48 -> 52         0.70042

 Excited State   7:      Singlet-A      5.6516 eV  219.38 nm  f=0.6997  <S**2>=0.000
      47 -> 52         0.27837
      50 -> 52        -0.36610
      50 -> 55        -0.10165
      51 -> 53         0.50695

 Excited State   8:      Singlet-A      5.7671 eV  214.99 nm  f=0.0416  <S**2>=0.000
      46 -> 52         0.13961
      47 -> 52        -0.38353
      50 -> 53         0.48893
      51 -> 53         0.16542
      51 -> 55         0.22531

 Excited State   9:      Singlet-A      5.9809 eV  207.30 nm  f=0.0362  <S**2>=0.000
      46 -> 52         0.34026
      46 -> 53        -0.14751
      47 -> 52         0.26478
      47 -> 53         0.11210
      51 -> 55         0.50093

 Excited State  10:      Singlet-A      6.0315 eV  205.56 nm  f=0.0000  <S**2>=0.000
      50 -> 54         0.69605

 The electronic state is 1-A.
 Alpha  occ. eigenvalues -- -482.91454 -61.87629 -56.39763 -56.39350 -56.39343
 Alpha  occ. eigenvalues --  -14.33609 -10.25505 -10.23404 -10.23249 -10.21810
 Alpha  occ. eigenvalues --  -10.21745 -10.21197 -10.21152 -10.20827 -10.20394
 Alpha  occ. eigenvalues --   -8.58771  -6.54168  -6.52895  -6.52863  -2.65740
 Alpha  occ. eigenvalues --   -2.65378  -2.65355  -2.64338  -2.64338  -0.95027
 Alpha  occ. eigenvalues --   -0.87289  -0.81814  -0.79990  -0.75688  -0.73163
 Alpha  occ. eigenvalues --   -0.65251  -0.63071  -0.61433  -0.53840  -0.52097
 Alpha  occ. eigenvalues --   -0.50890  -0.46096  -0.45311  -0.44189  -0.42126
 Alpha  occ. eigenvalues --   -0.42054  -0.41022  -0.37105  -0.36865  -0.36215
 Alpha  occ. eigenvalues --   -0.31531  -0.30385  -0.29041  -0.26171  -0.25410
 Alpha  occ. eigenvalues --   -0.23687
 Alpha virt. eigenvalues --   -0.06177  -0.02602   0.00259   0.00994   0.07923
 Alpha virt. eigenvalues --    0.09653   0.12327   0.13348   0.15908   0.16907
 Alpha virt. eigenvalues --    0.17565   0.18215   0.21399   0.24211   0.26099

 Mulliken charges:
               1
     1  Br  -0.144534
     2  C    0.081596
     3  C   -0.159154
     4  C   -0.191792
     5  C    0.296610
     6  N   -0.434691
     7  C    0.043375
     8  C   -0.160750
     9  C   -0.186428
    10  C    0.189024
    11  C   -0.254548
    12  H    0.148309
    13  H    0.141116
    14  H    0.176873
    15  H    0.155798
    16  H    0.146761
    17  H    0.152434
 Sum of Mulliken charges =  -0.00000

 Dipole moment (field-independent basis, Debye):
    X=             -3.6600    Y=              0.0036    Z=             -0.0001  Tot=              3.6600
 Quadrupole moment (field-independent basis, Debye-Ang):
   XX=            -64.1854   YY=            -67.8100   ZZ=            -79.2557
   XY=              1.0239   XZ=              0.0003   YZ=             -0.0001

 Summary of Natural Population Analysis:

                                       Natural Population
                Natural  -----------------------------------------------
    Atom  No    Charge         Core      Valence    Rydberg      Total
 -----------------------------------------------------------------------
     Br    1    0.04705     27.99914     6.93640    0.01740    34.95295
      C    2   -0.11142      1.99860     4.09116    0.02166     6.11142
      C    3   -0.24698      1.99895     4.23266    0.01537     6.24698
      C    4   -0.28997      1.99904     4.27598    0.01494     6.28997
      C    5    0.14403      1.99891     3.83901    0.01805     5.85597
      N    6   -0.12861      1.99891     5.11640    0.01330     7.12861
      C    7   -0.05293      1.99918     4.03302    0.02072     6.05293
      C    8   -0.29261      1.99905     4.27914    0.01442     6.29261
      C    9   -0.25924      1.99903     4.24456    0.01565     6.25924
      C   10   -0.04454      1.99896     4.03137    0.01421     6.04454
      C   11   -0.29001      1.99884     4.27551    0.01567     6.29001
      H   12    0.25322      0.00000     0.74577    0.00101     0.74678
      H   13    0.24706      0.00000     0.75222    0.00072     0.75294
      H   14    0.25679      0.00000     0.74261    0.00059     0.74321
      H   15    0.26030      0.00000     0.73922    0.00048     0.73970
      H   16    0.24962      0.00000     0.74958    0.00080     0.75038
      H   17    0.25824      0.00000     0.74059    0.00118     0.74176
 =======================================================================
   * Total *    0.00000     47.98863    53.82520    0.18618   102.00000

 Normal termination of Gaussian 16 at Thu Dec 26 12:09:03 2019.
