 Gaussian 16, Revision A.03,

 ---------------------------------
 # opt=CalcAll B3LYP/6-31G* scf=qc
 ---------------------------------

 -------------------
 Title Card Required
 -------------------
 Symbolic Z-matrix:
 Charge =  0 Multiplicity = 1

 SCF Done:  E(RB3LYP) =  -861.520606426     a.u. after    8 cycles
 SCF Done:  E(RB3LYP) =  -861.526239799     a.u. after    8 cycles
 SCF Done:  E(RB3LYP) =  -861.526291926     a.u. after    3 cycles
 Optimization completed.
    -- Stationary point found.
 Normal termination of Gaussian 16 at Thu Dec 26 11:52:11 2019.

 ----------------------------------------------------------------------
 # freq B3LYP/6-31G* scf=qc volume NMR pop=NPA density=current Geom=All
 Check Guess=Read
 ----------------------------------------------------------------------

 Structure from the checkpoint file:  "electrophile_22.chk"
 -------------------
 Title Card Required
 -------------------
 Charge =  0 Multiplicity = 1

 SCF Done:  E(RB3LYP) =  -861.526291926     a.u. after    1 cycles

      1  Cl   Isotropic =   721.5106   Anisotropy =   458.9791

      2  C    Isotropic =    54.4759   Anisotropy =   105.1125

      3  C    Isotropic =    66.0597   Anisotropy =   139.6132

      4  C    Isotropic =    63.6383   Anisotropy =   145.2552

      5  C    Isotropic =    49.5150   Anisotropy =   181.6490

      6  N    Isotropic =   -59.8720   Anisotropy =   511.9477

      7  C    Isotropic =    46.6811   Anisotropy =   154.7088

      8  C    Isotropic =    74.6248   Anisotropy =   155.5808

      9  C    Isotropic =    61.8609   Anisotropy =   162.6299

     10  C    Isotropic =    67.5600   Anisotropy =   190.9060

     11  C    Isotropic =    68.7532   Anisotropy =   121.9184

     12  H    Isotropic =    24.7192   Anisotropy =     7.8786

     13  H    Isotropic =    24.2681   Anisotropy =     5.9553

     14  H    Isotropic =    23.3191   Anisotropy =     5.8313

     15  H    Isotropic =    25.0358   Anisotropy =     5.7052

     16  H    Isotropic =    24.4845   Anisotropy =     7.3712

     17  H    Isotropic =    24.7559   Anisotropy =     9.0666

  Exact polarizability: 178.786   6.736 109.198   0.001  -0.000  37.182
 Approx polarizability: 292.438  10.507 200.060   0.002  -0.001  58.384

                      1                      2                      3
                      A                      A                      A
 Frequencies --    103.1352               177.4984               221.5430
 Red. masses --      6.9199                 4.1312                 8.2957
 Frc consts  --      0.0434                 0.0767                 0.2399
 IR Inten    --      0.2322                 3.4360                 0.6848

                      4                      5                      6
                      A                      A                      A
 Frequencies --    277.9871               357.6589               410.8480
 Red. masses --      5.0673                14.5665                 3.7063
 Frc consts  --      0.2307                 1.0978                 0.3686
 IR Inten    --      0.3995                 1.5622                 2.0540

                      7                      8                      9
                      A                      A                      A
 Frequencies --    423.1920               488.9590               525.7872
 Red. masses --      4.4950                 2.8443                 4.2428
 Frc consts  --      0.4743                 0.4007                 0.6911
 IR Inten    --      7.2661                 4.4313                 1.6401

                     10                     11                     12
                      A                      A                      A
 Frequencies --    540.5999               617.2733               641.2024
 Red. masses --      6.9037                 7.5582                 3.4241
 Frc consts  --      1.1887                 1.6968                 0.8294
 IR Inten    --      0.5549                10.6868                 0.0002

                     13                     14                     15
                      A                      A                      A
 Frequencies --    652.8995               777.7257               782.3071
 Red. masses --      7.9800                 1.9331                 5.1802
 Frc consts  --      2.0042                 0.6889                 1.8679
 IR Inten    --     12.4520                 1.2218                 0.5505

                     16                     17                     18
                      A                      A                      A
 Frequencies --    809.8194               853.0574               876.1380
 Red. masses --      1.4966                 1.8296                 6.4814
 Frc consts  --      0.5783                 0.7844                 2.9313
 IR Inten    --     10.4241                38.7210                40.0890

                     19                     20                     21
                      A                      A                      A
 Frequencies --    892.3369               957.0300               968.4094
 Red. masses --      1.4777                 5.1487                 1.3906
 Frc consts  --      0.6932                 2.7784                 0.7684
 IR Inten    --     20.6130                10.3180                 0.2233

                     22                     23                     24
                      A                      A                      A
 Frequencies --    982.4968               996.0155              1059.7691
 Red. masses --      1.2963                 1.3380                 2.5581
 Frc consts  --      0.7372                 0.7820                 1.6928
 IR Inten    --      0.0701                 1.5011                 3.9856

                     25                     26                     27
                      A                      A                      A
 Frequencies --   1096.9174              1153.4641              1175.3946
 Red. masses --      2.2809                 1.5050                 1.1563
 Frc consts  --      1.6170                 1.1798                 0.9412
 IR Inten    --     32.2975                10.3722                 0.8251

                     28                     29                     30
                      A                      A                      A
 Frequencies --   1231.3303              1269.7902              1284.4881
 Red. masses --      2.7850                 1.9214                 1.5613
 Frc consts  --      2.4879                 1.8253                 1.5177
 IR Inten    --     16.4047                 2.7117                 1.9763

                     31                     32                     33
                      A                      A                      A
 Frequencies --   1373.9479              1392.8528              1410.7278
 Red. masses --      3.5263                 2.2623                 4.5458
 Frc consts  --      3.9220                 2.5859                 5.3302
 IR Inten    --     15.8076                 7.2916                 2.7156

                     34                     35                     36
                      A                      A                      A
 Frequencies --   1469.0838              1503.3881              1542.0142
 Red. masses --      2.1994                 2.5608                 3.6184
 Frc consts  --      2.7967                 3.4101                 5.0692
 IR Inten    --      0.1869                 6.3799                58.8342

                     37                     38                     39
                      A                      A                      A
 Frequencies --   1614.6998              1651.0704              1668.2732
 Red. masses --      6.8617                 5.6183                 6.4410
 Frc consts  --     10.5407                 9.0237                10.5619
 IR Inten    --      6.8916                37.2579                 2.6893

                     40                     41                     42
                      A                      A                      A
 Frequencies --   3165.0673              3187.8119              3210.3198
 Red. masses --      1.0893                 1.0892                 1.0917
 Frc consts  --      6.4293                 6.5212                 6.6291
 IR Inten    --     28.7910                 7.8990                 3.9325

                     43                     44                     45
                      A                      A                      A
 Frequencies --   3213.8383              3215.0049              3229.8276
 Red. masses --      1.0960                 1.0880                 1.0959
 Frc consts  --      6.6696                 6.6260                 6.7355
 IR Inten    --     20.5015                 0.3285                 4.4381

 - Thermochemistry -
 -------------------
 Temperature   298.150 Kelvin.  Pressure   1.00000 Atm.
 Atom     1 has atomic number 17 and mass  34.96885

 Molecular mass:   163.01888 amu.
 Principal axes and moments of inertia in atomic units:
                           1         2         3
     Eigenvalues --   649.486663089.587613739.07427
           X            0.99987   0.01632   0.00000
           Y           -0.01632   0.99987  -0.00000
           Z           -0.00000   0.00000   1.00000
 This molecule is an asymmetric top.
 Rotational symmetry number  1.
 Warning -- assumption of classical behavior for rotation
           may cause significant error
 Rotational temperatures (Kelvin)      0.13336     0.02803     0.02316
 Rotational constants (GHZ):           2.77872     0.58414     0.48267
 Zero-point vibrational energy     331682.6 (Joules/Mol)
                                   79.27405 (Kcal/Mol)
 Warning -- explicit consideration of  11 degrees of freedom as
           vibrations may cause significant error
 Vibrational temperatures:    148.39   255.38   318.75   399.96   514.59
          (Kelvin)            591.12   608.88   703.50   756.49   777.80
                              888.12   922.55   939.38  1118.97  1125.57
                             1165.15  1227.36  1260.57  1283.87  1376.95
                             1393.33  1413.59  1433.04  1524.77  1578.22
                             1659.58  1691.13  1771.61  1826.94  1848.09
                             1976.80  2004.00  2029.72  2113.68  2163.04
                             2218.61  2323.19  2375.52  2400.27  4553.83
                             4586.55  4618.93  4624.00  4625.68  4647.00

 Zero-point correction=                           0.126331 (Hartree/Particle)
 Thermal correction to Energy=                    0.134225
 Thermal correction to Enthalpy=                  0.135169
 Thermal correction to Gibbs Free Energy=         0.093009
 Sum of electronic and zero-point Energies=           -861.399961
 Sum of electronic and thermal Energies=              -861.392067
 Sum of electronic and thermal Enthalpies=            -861.391123
 Sum of electronic and thermal Free Energies=         -861.433283

                     E (Thermal)             CV                S
                      KCal/Mol        Cal/Mol-Kelvin    Cal/Mol-Kelvin
 Total                   84.227             31.696             88.733
 Electronic               0.000              0.000              0.000
 Translational            0.889              2.981             41.175
 Rotational               0.889              2.981             30.396
 Vibrational             82.450             25.734             17.162
 Vibration     1          0.605              1.947              3.394
 Vibration     2          0.628              1.870              2.355
 Vibration     3          0.648              1.808              1.946
 Vibration     4          0.679              1.714              1.546
 Vibration     5          0.733              1.560              1.132
 Vibration     6          0.775              1.447              0.924
 Vibration     7          0.785              1.420              0.881
 Vibration     8          0.845              1.275              0.686
 Vibration     9          0.881              1.193              0.597
 Vibration    10          0.896              1.160              0.564
 Vibration    11          0.977              0.995              0.421

 Optimization completed.
    -- Stationary point found.
 Normal termination of Gaussian 16 at Thu Dec 26 11:56:52 2019.
 Gaussian 16:  ES64L-G16RevA.03 25-Dec-2016

 ----------------------------------------------------------------------
 # TD(NStates=10, Root=1) B3LYP/6-31G* scf=qc volume pop=NPA density=cu
 rrent Geom=AllCheck Guess=Read
 ----------------------------------------------------------------------

 Structure from the checkpoint file:  "electrophile_23.chk"
 -------------------
 Title Card Required
 -------------------
 Charge =  0 Multiplicity = 1

                         Standard orientation:
 ---------------------------------------------------------------------
 Center     Atomic      Atomic             Coordinates (Angstroms)
 Number     Number       Type             X           Y           Z
 ---------------------------------------------------------------------
      1         17           0        3.388851   -0.440938   -0.000049
      2          6           0        1.688800    0.006936    0.000022
      3          6           0        1.352398    1.382511    0.000025
      4          6           0        0.028887    1.756553    0.000038
      5          6           0       -1.003988    0.782068    0.000025
      6          7           0       -2.300397    1.208066   -0.000018
      7          6           0       -3.245544    0.290101   -0.000059
      8          6           0       -3.001211   -1.107058   -0.000031
      9          6           0       -1.701023   -1.551871    0.000036
     10          6           0       -0.645497   -0.603635    0.000047
     11          6           0        0.724539   -0.972926    0.000062
     12          1           0        2.143872    2.124240   -0.000002
     13          1           0       -0.262163    2.802075    0.000035
     14          1           0       -4.272224    0.655027   -0.000124
     15          1           0       -3.835903   -1.801534   -0.000075
     16          1           0       -1.467813   -2.614002    0.000060
     17          1           0        1.002386   -2.022386    0.000080
 ---------------------------------------------------------------------

 SCF Done:  E(RB3LYP) =  -861.526291926     a.u. after    1 cycles

 Excitation energies and oscillator strengths:

 Excited State   1:      Singlet-A      4.2681 eV  290.49 nm  f=0.0019  <S**2>=0.000
      40 -> 43         0.70237
 This state for optimization and/or second-order correction.
 Total Energy, E(TD-HF/TD-DFT) =  -861.369443543
 Copying the excited state density for this state as the 1-particle RhoCI density.

 Excited State   2:      Singlet-A      4.3458 eV  285.30 nm  f=0.0480  <S**2>=0.000
      41 -> 43         0.23613
      41 -> 44         0.16299
      42 -> 43         0.60716
      42 -> 44        -0.20890

 Excited State   3:      Singlet-A      4.5454 eV  272.77 nm  f=0.0207  <S**2>=0.000
      41 -> 43         0.51721
      42 -> 43        -0.31168
      42 -> 44        -0.35508

 Excited State   4:      Singlet-A      5.2122 eV  237.87 nm  f=0.0000  <S**2>=0.000
      40 -> 44         0.70359

 Excited State   5:      Singlet-A      5.8335 eV  212.54 nm  f=0.7818  <S**2>=0.000
      41 -> 43         0.34967
      41 -> 44         0.20525
      41 -> 45         0.16656
      42 -> 44         0.52445

 Excited State   6:      Singlet-A      5.8918 eV  210.44 nm  f=0.1297  <S**2>=0.000
      39 -> 43         0.34002
      41 -> 43         0.16919
      41 -> 44        -0.37761
      42 -> 44         0.12837
      42 -> 45         0.42602

 Excited State   7:      Singlet-A      6.1083 eV  202.98 nm  f=0.0004  <S**2>=0.000
      42 -> 46         0.69626

 Excited State   8:      Singlet-A      6.1519 eV  201.54 nm  f=0.0000  <S**2>=0.000
      38 -> 43         0.69830

 Excited State   9:      Singlet-A      6.1798 eV  200.63 nm  f=0.1758  <S**2>=0.000
      37 -> 43         0.30454
      39 -> 43         0.19158
      39 -> 44         0.12668
      41 -> 44         0.45096
      42 -> 43        -0.13493
      42 -> 45         0.33256

 Excited State  10:      Singlet-A      6.2577 eV  198.13 nm  f=0.0019  <S**2>=0.000
      40 -> 45         0.69995

 The electronic state is 1-A.
 Alpha  occ. eigenvalues -- -101.55279 -14.33623 -10.26116 -10.23410 -10.23247
 Alpha  occ. eigenvalues --  -10.21823 -10.21773 -10.21204 -10.21195 -10.20836
 Alpha  occ. eigenvalues --  -10.20442  -9.46906  -7.23302  -7.22335  -7.22300
 Alpha  occ. eigenvalues --   -0.95051  -0.89236  -0.83563  -0.81536  -0.75777
 Alpha  occ. eigenvalues --   -0.74172  -0.65356  -0.63261  -0.61527  -0.53902
 Alpha  occ. eigenvalues --   -0.52269  -0.51394  -0.46454  -0.45519  -0.44477
 Alpha  occ. eigenvalues --   -0.42613  -0.42280  -0.41299  -0.38033  -0.38032
 Alpha  occ. eigenvalues --   -0.36652  -0.32132  -0.31690  -0.31496  -0.26193
 Alpha  occ. eigenvalues --   -0.25574  -0.23885
 Alpha virt. eigenvalues --   -0.06168  -0.02578   0.00988   0.02566   0.07956
 Alpha virt. eigenvalues --    0.09673   0.12461   0.13406   0.15869   0.16925
 Alpha virt. eigenvalues --    0.17757   0.18202   0.22117   0.24547   0.27901

 Mulliken charges:
               1
     1  Cl  -0.036766
     2  C   -0.070683
     3  C   -0.140761
     4  C   -0.188574
     5  C    0.293881
     6  N   -0.434035
     7  C    0.043406
     8  C   -0.160681
     9  C   -0.187667
    10  C    0.191100
    11  C   -0.231408
    12  H    0.148996
    13  H    0.140675
    14  H    0.176952
    15  H    0.155714
    16  H    0.146401
    17  H    0.153450
 Sum of Mulliken charges =  -0.00000

 Dipole moment (field-independent basis, Debye):
    X=             -3.7301    Y=              0.2173    Z=             -0.0001  Tot=              3.7365
 Quadrupole moment (field-independent basis, Debye-Ang):
   XX=            -64.1930   YY=            -62.1890   ZZ=            -73.5001
   XY=              1.5197   XZ=              0.0005   YZ=             -0.0002

 Summary of Natural Population Analysis:

                                       Natural Population
                Natural  -----------------------------------------------
    Atom  No    Charge         Core      Valence    Rydberg      Total
 -----------------------------------------------------------------------
     Cl    1   -0.01319      9.99967     6.99412    0.01940    17.01319
      C    2   -0.04510      1.99856     4.02482    0.02172     6.04510
      C    3   -0.24896      1.99896     4.23482    0.01518     6.24896
      C    4   -0.28980      1.99905     4.27586    0.01489     6.28980
      C    5    0.14253      1.99891     3.84057    0.01799     5.85747
      N    6   -0.12825      1.99891     5.11605    0.01329     7.12825
      C    7   -0.05241      1.99918     4.03252    0.02070     6.05241
      C    8   -0.29349      1.99905     4.28000    0.01443     6.29349
      C    9   -0.25982      1.99903     4.24513    0.01565     6.25982
      C   10   -0.04426      1.99896     4.03119    0.01410     6.04426
      C   11   -0.29036      1.99885     4.27616    0.01535     6.29036
      H   12    0.25239      0.00000     0.74665    0.00095     0.74761
      H   13    0.24680      0.00000     0.75248    0.00072     0.75320
      H   14    0.25685      0.00000     0.74256    0.00059     0.74315
      H   15    0.26031      0.00000     0.73921    0.00048     0.73969
      H   16    0.24941      0.00000     0.74979    0.00080     0.75059
      H   17    0.25734      0.00000     0.74154    0.00112     0.74266
 =======================================================================
   * Total *    0.00000     29.98915    53.82348    0.18737    84.00000

 Normal termination of Gaussian 16 at Thu Dec 26 12:02:30 2019.
