 Gaussian 16, Revision A.03,

 ---------------------------------
 # opt=CalcAll B3LYP/genecp scf=qc
 ---------------------------------

 -------------------
 Title Card Required
 -------------------
 Symbolic Z-matrix:
 Charge =  0 Multiplicity = 1

 SCF Done:  E(RB3LYP) =  -412.693107819     a.u. after    7 cycles
 SCF Done:  E(RB3LYP) =  -412.699213115     a.u. after    9 cycles
 SCF Done:  E(RB3LYP) =  -412.699293535     a.u. after    4 cycles
 Optimization completed.
    -- Stationary point found.
 Normal termination of Gaussian 16 at Thu Dec 26 11:51:54 2019.

 ----------------------------------------------------------------------
 # freq B3LYP/genecp scf=qc volume NMR pop=NPA density=current Geom=All
 Check Guess=Read
 ----------------------------------------------------------------------

 Structure from the checkpoint file:  "electrophile_42.chk"
 -------------------
 Title Card Required
 -------------------
 Charge =  0 Multiplicity = 1

 SCF Done:  E(RB3LYP) =  -412.699293535     a.u. after    1 cycles

      1  I    Isotropic =    43.8941   Anisotropy =    30.5546

      2  C    Isotropic =    60.6947   Anisotropy =   100.3140

      3  C    Isotropic =    60.6300   Anisotropy =   134.3769

      4  C    Isotropic =    64.4096   Anisotropy =   141.5428

      5  C    Isotropic =    49.4305   Anisotropy =   183.2303

      6  N    Isotropic =   -60.0014   Anisotropy =   511.3994

      7  C    Isotropic =    46.7021   Anisotropy =   155.1213

      8  C    Isotropic =    75.2065   Anisotropy =   155.2741

      9  C    Isotropic =    62.5413   Anisotropy =   162.0098

     10  C    Isotropic =    67.6639   Anisotropy =   187.3972

     11  C    Isotropic =    61.6034   Anisotropy =   119.2744

     12  H    Isotropic =    24.7203   Anisotropy =     9.4087

     13  H    Isotropic =    24.4208   Anisotropy =     5.9702

     14  H    Isotropic =    23.3325   Anisotropy =     5.8484

     15  H    Isotropic =    25.0679   Anisotropy =     5.7599

     16  H    Isotropic =    24.5912   Anisotropy =     7.4640

     17  H    Isotropic =    24.6656   Anisotropy =    10.5346

  Exact polarizability: 208.792  -7.966 109.715   0.004   0.001  33.269
 Approx polarizability: 320.046 -11.364 199.939   0.008   0.003  51.842

                      1                      2                      3
                      A                      A                      A
 Frequencies --     83.0102               153.3145               176.9621
 Red. masses --      6.2657                 6.9791                 4.1238
 Frc consts  --      0.0254                 0.0967                 0.0761
 IR Inten    --      0.0633                 0.4079                 3.3308

                      4                      5                      6
                      A                      A                      A
 Frequencies --    218.6074               255.5197               406.0621
 Red. masses --     13.1962                 4.9338                 4.3814
 Frc consts  --      0.3716                 0.1898                 0.4256
 IR Inten    --      0.5745                 0.0006                 6.7514

                      7                      8                      9
                      A                      A                      A
 Frequencies --    407.6080               489.4380               513.8672
 Red. masses --      3.6848                 2.8610                 4.2430
 Frc consts  --      0.3607                 0.4038                 0.6601
 IR Inten    --      3.1072                 6.1647                 2.5215

                     10                     11                     12
                      A                      A                      A
 Frequencies --    537.3896               579.0028               630.8842
 Red. masses --      7.0435                 7.9705                 7.7181
 Frc consts  --      1.1984                 1.5743                 1.8099
 IR Inten    --      0.7175                14.9513                 5.0598

                     13                     14                     15
                      A                      A                      A
 Frequencies --    640.6484               779.0927               781.9782
 Red. masses --      3.5077                 1.7201                 5.2405
 Frc consts  --      0.8482                 0.6151                 1.8880
 IR Inten    --      0.1938                 2.0282                 0.2652

                     16                     17                     18
                      A                      A                      A
 Frequencies --    812.6801               844.6025               854.6610
 Red. masses --      1.5578                 6.6617                 1.8317
 Frc consts  --      0.6062                 2.7999                 0.7883
 IR Inten    --     10.4433                52.5786                40.8782

                     19                     20                     21
                      A                      A                      A
 Frequencies --    902.1424               949.5240               971.0839
 Red. masses --      1.4973                 5.5810                 1.3970
 Frc consts  --      0.7180                 2.9647                 0.7762
 IR Inten    --     12.2426                13.4045                 0.2480

                     22                     23                     24
                      A                      A                      A
 Frequencies --    988.0693               998.5889              1059.5030
 Red. masses --      1.3116                 1.3440                 2.6592
 Frc consts  --      0.7544                 0.7896                 1.7588
 IR Inten    --      0.0734                 1.5046                 4.9090

                     25                     26                     27
                      A                      A                      A
 Frequencies --   1075.6967              1154.1672              1180.2866
 Red. masses --      2.2712                 1.5348                 1.1800
 Frc consts  --      1.5484                 1.2046                 0.9685
 IR Inten    --     15.8551                10.8690                 0.4381

                     28                     29                     30
                      A                      A                      A
 Frequencies --   1230.9522              1271.1925              1289.9791
 Red. masses --      2.5897                 1.9052                 1.5549
 Frc consts  --      2.3120                 1.8139                 1.5244
 IR Inten    --     15.0122                 7.2469                 2.5522

                     31                     32                     33
                      A                      A                      A
 Frequencies --   1371.3760              1388.7527              1412.6695
 Red. masses --      3.5333                 2.2478                 4.5008
 Frc consts  --      3.9151                 2.5543                 5.2920
 IR Inten    --     16.4150                 9.7661                 2.7360

                     34                     35                     36
                      A                      A                      A
 Frequencies --   1465.8939              1500.4977              1537.7078
 Red. masses --      2.0914                 2.4656                 3.5391
 Frc consts  --      2.6479                 3.2708                 4.9306
 IR Inten    --      0.2548                 6.9604                57.6342

                     37                     38                     39
                      A                      A                      A
 Frequencies --   1612.3647              1645.0332              1663.9729
 Red. masses --      6.7109                 5.7440                 6.2434
 Frc consts  --     10.2792                 9.1582                10.1851
 IR Inten    --      8.6775                43.1985                 0.5743

                     40                     41                     42
                      A                      A                      A
 Frequencies --   3166.9383              3189.7205              3211.4997
 Red. masses --      1.0893                 1.0892                 1.0916
 Frc consts  --      6.4370                 6.5290                 6.6331
 IR Inten    --     30.0552                 7.3437                 1.8323

                     43                     44                     45
                      A                      A                      A
 Frequencies --   3215.2537              3215.9386              3231.7930
 Red. masses --      1.0884                 1.0959                 1.0954
 Frc consts  --      6.6291                 6.6780                 6.7410
 IR Inten    --      1.0180                21.8088                 5.3797

 - Thermochemistry -
 -------------------
 Temperature   298.150 Kelvin.  Pressure   1.00000 Atm.
 Atom     1 has atomic number 53 and mass 126.90040

 Molecular mass:   254.95042 amu.
 Principal axes and moments of inertia in atomic units:
                           1         2         3
     Eigenvalues --   674.031446213.897966887.92938
           X            0.99992  -0.01239   0.00000
           Y            0.01239   0.99992   0.00000
           Z           -0.00000  -0.00000   1.00000
 This molecule is an asymmetric top.
 Rotational symmetry number  1.
 Warning -- assumption of classical behavior for rotation
           may cause significant error
 Rotational temperatures (Kelvin)      0.12850     0.01394     0.01257
 Rotational constants (GHZ):           2.67753     0.29044     0.26202
 Zero-point vibrational energy     329367.4 (Joules/Mol)
                                   78.72069 (Kcal/Mol)
 Warning -- explicit consideration of  11 degrees of freedom as
           vibrations may cause significant error
 Vibrational temperatures:    119.43   220.59   254.61   314.53   367.64
          (Kelvin)            584.23   586.46   704.19   739.34   773.18
                              833.06   907.70   921.75  1120.94  1125.09
                             1169.27  1215.19  1229.67  1297.98  1366.15
                             1397.17  1421.61  1436.75  1524.39  1547.69
                             1660.59  1698.17  1771.07  1828.96  1855.99
                             1973.10  1998.11  2032.52  2109.09  2158.88
                             2212.42  2319.83  2366.84  2394.09  4556.52
                             4589.30  4620.63  4626.03  4627.02  4649.83

 Zero-point correction=                           0.125449 (Hartree/Particle)
 Thermal correction to Energy=                    0.133769
 Thermal correction to Enthalpy=                  0.134713
 Thermal correction to Gibbs Free Energy=         0.090183
 Sum of electronic and zero-point Energies=           -412.573844
 Sum of electronic and thermal Energies=              -412.565525
 Sum of electronic and thermal Enthalpies=            -412.564580
 Sum of electronic and thermal Free Energies=         -412.609111

                     E (Thermal)             CV                S
                      KCal/Mol        Cal/Mol-Kelvin    Cal/Mol-Kelvin
 Total                   83.941             32.338             93.721
 Electronic               0.000              0.000              0.000
 Translational            0.889              2.981             42.508
 Rotational               0.889              2.981             31.734
 Vibrational             82.164             26.376             19.480
 Vibration     1          0.600              1.961              3.818
 Vibration     2          0.619              1.899              2.631
 Vibration     3          0.628              1.871              2.360
 Vibration     4          0.646              1.813              1.971
 Vibration     5          0.666              1.753              1.692
 Vibration     6          0.771              1.457              0.941
 Vibration     7          0.772              1.454              0.935
 Vibration     8          0.845              1.273              0.685
 Vibration     9          0.869              1.219              0.624
 Vibration    10          0.892              1.167              0.571
 Vibration    11          0.936              1.077              0.487

 Optimization completed.
    -- Stationary point found.
 Normal termination of Gaussian 16 at Thu Dec 26 11:56:19 2019.
 Gaussian 16:  ES64L-G16RevA.03 25-Dec-2016

 ----------------------------------------------------------------------
 # TD(NStates=10, Root=1) B3LYP/genecp scf=qc volume pop=NPA density=cu
 rrent Geom=AllCheck Guess=Read
 ----------------------------------------------------------------------

 Structure from the checkpoint file:  "electrophile_43.chk"
 -------------------
 Title Card Required
 -------------------
 Charge =  0 Multiplicity = 1

                         Standard orientation:
 ---------------------------------------------------------------------
 Center     Atomic      Atomic             Coordinates (Angstroms)
 Number     Number       Type             X           Y           Z
 ---------------------------------------------------------------------
      1         53           0       -2.601921   -0.160423    0.000058
      2          6           0       -0.493028    0.224891   -0.000133
      3          6           0       -0.047164    1.569190   -0.000117
      4          6           0        1.303393    1.836820   -0.000116
      5          6           0        2.255770    0.784105   -0.000070
      6          7           0        3.582418    1.104661    0.000100
      7          6           0        4.450838    0.113894    0.000213
      8          6           0        4.095626   -1.259650    0.000102
      9          6           0        2.763599   -1.598734   -0.000115
     10          6           0        1.788149   -0.567985   -0.000161
     11          6           0        0.391302   -0.827367   -0.000230
     12          1           0       -0.767171    2.379972   -0.000065
     13          1           0        1.675659    2.856474   -0.000074
     14          1           0        5.503548    0.395322    0.000422
     15          1           0        4.872194   -2.018546    0.000228
     16          1           0        2.445509   -2.638609   -0.000207
     17          1           0        0.044262   -1.855782   -0.000302
 ---------------------------------------------------------------------

 SCF Done:  E(RB3LYP) =  -412.699293535     a.u. after    1 cycles

 Excitation energies and oscillator strengths:

 Excited State   1:      Singlet-A      4.2356 eV  292.72 nm  f=0.0546  <S**2>=0.000
      36 -> 38        -0.19116
      36 -> 40        -0.16151
      37 -> 38         0.63754
      37 -> 40        -0.16402
 This state for optimization and/or second-order correction.
 Total Energy, E(TD-HF/TD-DFT) =  -412.543638064
 Copying the excited state density for this state as the 1-particle RhoCI density.

 Excited State   2:      Singlet-A      4.2516 eV  291.62 nm  f=0.0018  <S**2>=0.000
      35 -> 38         0.69658

 Excited State   3:      Singlet-A      4.3927 eV  282.25 nm  f=0.0011  <S**2>=0.000
      37 -> 39         0.70270

 Excited State   4:      Singlet-A      4.5205 eV  274.27 nm  f=0.0196  <S**2>=0.000
      36 -> 38         0.54411
      37 -> 38         0.25413
      37 -> 40         0.34698

 Excited State   5:      Singlet-A      4.9463 eV  250.66 nm  f=0.0003  <S**2>=0.000
      36 -> 39         0.69976

 Excited State   6:      Singlet-A      5.0153 eV  247.21 nm  f=0.0000  <S**2>=0.000
      34 -> 38         0.69721

 Excited State   7:      Singlet-A      5.1887 eV  238.95 nm  f=0.0000  <S**2>=0.000
      35 -> 40         0.69774

 Excited State   8:      Singlet-A      5.2638 eV  235.54 nm  f=0.0017  <S**2>=0.000
      34 -> 39         0.64833
      35 -> 39         0.27532

 Excited State   9:      Singlet-A      5.3267 eV  232.76 nm  f=0.1910  <S**2>=0.000
      33 -> 38         0.51708
      36 -> 38        -0.29356
      36 -> 40         0.15734
      37 -> 40         0.32210

 Excited State  10:      Singlet-A      5.5259 eV  224.37 nm  f=0.0344  <S**2>=0.000
      33 -> 38        -0.11088
      34 -> 39        -0.26736
      35 -> 39         0.60578
      36 -> 40        -0.14693
      37 -> 40         0.14996

 The electronic state is 1-A.
 Alpha  occ. eigenvalues --  -14.33396 -10.24579 -10.23000 -10.22750 -10.21281
 Alpha  occ. eigenvalues --  -10.21245 -10.20795 -10.20703 -10.20261 -10.19795
 Alpha  occ. eigenvalues --   -0.95036  -0.86594  -0.81699  -0.77038  -0.75583
 Alpha  occ. eigenvalues --   -0.68863  -0.65076  -0.62547  -0.61349  -0.53890
 Alpha  occ. eigenvalues --   -0.51995  -0.50537  -0.45933  -0.45221  -0.44031
 Alpha  occ. eigenvalues --   -0.42074  -0.41830  -0.40680  -0.36720  -0.36215
 Alpha  occ. eigenvalues --   -0.34726  -0.31537  -0.28821  -0.27112  -0.26155
 Alpha  occ. eigenvalues --   -0.25279  -0.23601
 Alpha virt. eigenvalues --   -0.06211  -0.03788  -0.02647   0.00961   0.07935
 Alpha virt. eigenvalues --    0.09545   0.12068   0.13254   0.15910   0.16985
 Alpha virt. eigenvalues --    0.17851   0.18214   0.22724   0.24551   0.28152

 Mulliken charges:
               1
     1  I    0.336314
     2  C   -0.325818
     3  C   -0.109608
     4  C   -0.145019
     5  C    0.194862
     6  N   -0.440899
     7  C    0.013936
     8  C   -0.165904
     9  C   -0.187292
    10  C    0.156547
    11  C   -0.133560
    12  H    0.138017
    13  H    0.149509
    14  H    0.130093
    15  H    0.118685
    16  H    0.116044
    17  H    0.154092
 Sum of Mulliken charges =  -0.00000

 Dipole moment (field-independent basis, Debye):
    X=             -4.4352    Y=             -1.5534    Z=              0.0001  Tot=              4.6994
 Quadrupole moment (field-independent basis, Debye-Ang):
   XX=            -76.2502   YY=            -74.4922   ZZ=            -79.4847
   XY=             -5.0642   XZ=              0.0006   YZ=             -0.0000

 Summary of Natural Population Analysis:

                                       Natural Population
                Natural  -----------------------------------------------
    Atom  No    Charge         Core      Valence    Rydberg      Total
 -----------------------------------------------------------------------
      I    1    0.39111     46.00000     6.60559    0.00331    52.60889
      C    2   -0.19308      1.99862     4.16904    0.02542     6.19308
      C    3   -0.30822      1.99879     4.29154    0.01789     6.30822
      C    4   -0.20984      1.99890     4.19387    0.01706     6.20984
      C    5    0.20694      1.99886     3.77153    0.02267     5.79306
      N    6   -0.51986      1.99927     5.49718    0.02341     7.51986
      C    7    0.06836      1.99912     3.90796    0.02456     5.93164
      C    8   -0.31996      1.99895     4.30533    0.01569     6.31996
      C    9   -0.25728      1.99892     4.24191    0.01645     6.25728
      C   10   -0.08087      1.99885     4.06694    0.01509     6.08087
      C   11   -0.20073      1.99870     4.18440    0.01764     6.20073
      H   12    0.24697      0.00000     0.75219    0.00084     0.75303
      H   13    0.25312      0.00000     0.74511    0.00177     0.74688
      H   14    0.21450      0.00000     0.78406    0.00144     0.78550
      H   15    0.23380      0.00000     0.76506    0.00113     0.76620
      H   16    0.22672      0.00000     0.77204    0.00124     0.77328
      H   17    0.24827      0.00000     0.75029    0.00144     0.75173
 =======================================================================
   * Total *   -0.00005     65.98898    53.80402    0.20706   120.00005

 Normal termination of Gaussian 16 at Thu Dec 26 12:01:43 2019.
