 Gaussian 16, Revision A.03,

 ---------------------------------
 # opt=CalcAll B3LYP/6-31G* scf=qc
 ---------------------------------

 -------------------
 Title Card Required
 -------------------
 Symbolic Z-matrix:
 Charge =  0 Multiplicity = 1

 SCF Done:  E(RB3LYP) =  -1362.70288504     a.u. after    8 cycles
 SCF Done:  E(RB3LYP) =  -1362.72101838     a.u. after   17 cycles
 SCF Done:  E(RB3LYP) =  -1362.72217388     a.u. after   12 cycles
 SCF Done:  E(RB3LYP) =  -1362.72584351     a.u. after   15 cycles
 SCF Done:  E(RB3LYP) =  -1362.72633632     a.u. after   15 cycles
 SCF Done:  E(RB3LYP) =  -1362.72642251     a.u. after   15 cycles
 SCF Done:  E(RB3LYP) =  -1362.72593558     a.u. after   19 cycles
 SCF Done:  E(RB3LYP) =  -1362.72647616     a.u. after   17 cycles
 SCF Done:  E(RB3LYP) =  -1362.72648535     a.u. after    9 cycles
 SCF Done:  E(RB3LYP) =  -1362.72648718     a.u. after    7 cycles
 SCF Done:  E(RB3LYP) =  -1362.72648674     a.u. after    5 cycles
 SCF Done:  E(RB3LYP) =  -1362.72648719     a.u. after    5 cycles
 Optimization completed.
    -- Stationary point found.
 Normal termination of Gaussian 16 at Thu Dec 26 13:56:30 2019.

 ----------------------------------------------------------------------
 # freq B3LYP/6-31G* scf=qc volume NMR pop=NPA density=current Geom=All
 Check Guess=Read
 ----------------------------------------------------------------------

 Structure from the checkpoint file:  "electrophile_12.chk"
 -------------------
 Title Card Required
 -------------------
 Charge =  0 Multiplicity = 1

 SCF Done:  E(RB3LYP) =  -1362.72648719     a.u. after    1 cycles

      1  O    Isotropic =   115.3211   Anisotropy =    89.4341

      2  S    Isotropic =   215.9686   Anisotropy =   312.9491

      3  O    Isotropic =    93.9002   Anisotropy =   227.8679

      4  C    Isotropic =    51.8807   Anisotropy =    87.5049

      5  C    Isotropic =    70.1465   Anisotropy =   145.3515

      6  C    Isotropic =    62.3094   Anisotropy =   148.0842

      7  C    Isotropic =    48.6070   Anisotropy =   182.4988

      8  N    Isotropic =   -60.6060   Anisotropy =   512.2833

      9  C    Isotropic =    45.6454   Anisotropy =   156.5315

     10  C    Isotropic =    74.2399   Anisotropy =   156.5140

     11  C    Isotropic =    60.5899   Anisotropy =   165.2502

     12  C    Isotropic =    67.5676   Anisotropy =   192.0516

     13  C    Isotropic =    72.5460   Anisotropy =   128.9332

     14  C    Isotropic =    66.3255   Anisotropy =     9.7351

     15  F    Isotropic =   266.5507   Anisotropy =   122.9078

     16  F    Isotropic =   270.4323   Anisotropy =   127.0932

     17  F    Isotropic =   267.2084   Anisotropy =   123.7486

     18  O    Isotropic =   115.7000   Anisotropy =    89.7903

     19  H    Isotropic =    24.6104   Anisotropy =     7.9996

     20  H    Isotropic =    24.0968   Anisotropy =     6.3545

     21  H    Isotropic =    23.1951   Anisotropy =     5.7929

     22  H    Isotropic =    24.9346   Anisotropy =     5.9114

     23  H    Isotropic =    24.2823   Anisotropy =     8.0986

     24  H    Isotropic =    24.4321   Anisotropy =     9.8574

  Exact polarizability: 212.190 -13.448 135.755  -6.742  -5.853  67.665
 Approx polarizability: 311.225 -22.704 258.035 -18.302 -15.608 115.113

                      1                      2                      3
                      A                      A                      A
 Frequencies --     10.3870                24.5206                44.2262
 Red. masses --      8.3238                 8.7445                12.1167
 Frc consts  --      0.0005                 0.0031                 0.0140
 IR Inten    --      0.7745                 0.3236                 0.3532

                      4                      5                      6
                      A                      A                      A
 Frequencies --     48.8240               112.6701               147.2099
 Red. masses --     10.0962                10.1140                 7.5629
 Frc consts  --      0.0142                 0.0756                 0.0966
 IR Inten    --      0.2196                 0.2773                 1.5958

                      7                      8                      9
                      A                      A                      A
 Frequencies --    179.0067               181.6717               236.0534
 Red. masses --      4.3445                14.1406                 8.8558
 Frc consts  --      0.0820                 0.2750                 0.2907
 IR Inten    --      2.9254                 2.7763                 0.1694

                     10                     11                     12
                      A                      A                      A
 Frequencies --    257.8330               297.4871               310.7054
 Red. masses --     16.2529                 6.2785                12.2895
 Frc consts  --      0.6366                 0.3274                 0.6990
 IR Inten    --      7.6337                 0.8656                 1.3384

                     13                     14                     15
                      A                      A                      A
 Frequencies --    330.5693               409.8606               414.7255
 Red. masses --     11.8596                 4.9402                 4.7477
 Frc consts  --      0.7636                 0.4890                 0.4811
 IR Inten    --      0.5181                 4.2152                 1.4838

                     16                     17                     18
                      A                      A                      A
 Frequencies --    453.2508               473.7092               487.7255
 Red. masses --      9.1953                 7.8198                 9.9254
 Frc consts  --      1.1130                 1.0339                 1.3911
 IR Inten    --     18.5695                11.7352                17.7447

                     19                     20                     21
                      A                      A                      A
 Frequencies --    494.2232               537.0595               546.4767
 Red. masses --      3.0984                 7.7681                 7.5373
 Frc consts  --      0.4459                 1.3201                 1.3262
 IR Inten    --      6.4932                12.7381                 8.0560

                     22                     23                     24
                      A                      A                      A
 Frequencies --    550.5660               556.2146               615.4192
 Red. masses --     10.9488                10.0089                 7.7206
 Frc consts  --      1.9554                 1.8244                 1.7228
 IR Inten    --      7.3323                 1.5949                71.8561

                     25                     26                     27
                      A                      A                      A
 Frequencies --    629.6907               656.8013               694.7142
 Red. masses --      6.7865                 5.1103                 5.0286
 Frc consts  --      1.5854                 1.2989                 1.4299
 IR Inten    --     14.4662               102.9745                60.0807

                     28                     29                     30
                      A                      A                      A
 Frequencies --    759.6456               780.1266               781.8195
 Red. masses --     11.7125                 3.4593                 3.3537
 Frc consts  --      3.9822                 1.2404                 1.2078
 IR Inten    --     60.9316                 9.4541                 2.1228

                     31                     32                     33
                      A                      A                      A
 Frequencies --    804.6870               811.4733               857.3842
 Red. masses --      7.8130                 1.4337                 2.0013
 Frc consts  --      2.9807                 0.5562                 0.8668
 IR Inten    --    212.7201                16.6669                27.3703

                     34                     35                     36
                      A                      A                      A
 Frequencies --    900.0027               922.7398               971.5988
 Red. masses --      1.4955                 6.0090                 1.3865
 Frc consts  --      0.7137                 3.0145                 0.7712
 IR Inten    --     34.5395               106.5478                 0.2595

                     37                     38                     39
                      A                      A                      A
 Frequencies --    975.9972               980.6847               998.7404
 Red. masses --      3.7571                 1.3291                 1.3430
 Frc consts  --      2.1086                 0.7531                 0.7893
 IR Inten    --     50.7917                 2.9391                 1.4219

                     40                     41                     42
                      A                      A                      A
 Frequencies --   1059.5052              1117.7209              1142.6830
 Red. masses --      2.5186                14.0650                 1.7886
 Frc consts  --      1.6657                10.3528                 1.3760
 IR Inten    --      5.2655               187.6403                76.0447

                     43                     44                     45
                      A                      A                      A
 Frequencies --   1155.3468              1171.1962              1218.3251
 Red. masses --      1.6958                 1.1992                 7.0812
 Frc consts  --      1.3337                 0.9692                 6.1928
 IR Inten    --    121.7048                12.5592               158.0930

                     46                     47                     48
                      A                      A                      A
 Frequencies --   1248.3683              1269.1220              1269.9239
 Red. masses --      4.8686                 2.0396                10.2073
 Frc consts  --      4.4703                 1.9355                 9.6988
 IR Inten    --     11.6971                11.4723               249.4256

                     49                     50                     51
                      A                      A                      A
 Frequencies --   1277.1714              1281.7925              1367.2044
 Red. masses --     11.7331                 1.5812                19.3343
 Frc consts  --     11.2761                 1.5307                21.2934
 IR Inten    --    159.9195                10.2764               205.3556

                     52                     53                     54
                      A                      A                      A
 Frequencies --   1379.4283              1396.4593              1413.9139
 Red. masses --      3.5651                 2.5562                 3.5966
 Frc consts  --      3.9969                 2.9370                 4.2363
 IR Inten    --     22.2181                 1.5977                 2.2342

                     55                     56                     57
                      A                      A                      A
 Frequencies --   1473.5749              1509.2382              1550.7519
 Red. masses --      2.2867                 2.7185                 3.7339
 Frc consts  --      2.9255                 3.6484                 5.2905
 IR Inten    --      0.3379                12.0641                71.3306

                     58                     59                     60
                      A                      A                      A
 Frequencies --   1618.9963              1656.7377              1674.5736
 Red. masses --      7.0494                 5.6777                 6.5513
 Frc consts  --     10.8866                 9.1818                10.8240
 IR Inten    --      4.6015                33.0934                 3.9194

                     61                     62                     63
                      A                      A                      A
 Frequencies --   3166.9740              3191.3460              3216.0513
 Red. masses --      1.0895                 1.0893                 1.0962
 Frc consts  --      6.4381                 6.5364                 6.6802
 IR Inten    --     28.5923                 6.4007                19.1534

                     64                     65                     66
                      A                      A                      A
 Frequencies --   3219.7403              3221.0949              3234.2054
 Red. masses --      1.0891                 1.0915                 1.0962
 Frc consts  --      6.6523                 6.6723                 6.7556
 IR Inten    --      1.6681                 0.3614                 2.4130

 - Thermochemistry -
 -------------------
 Temperature   298.150 Kelvin.  Pressure   1.00000 Atm.
 Atom     1 has atomic number  8 and mass  15.99491

 Molecular mass:   277.00205 amu.
 Principal axes and moments of inertia in atomic units:
                           1         2         3
     Eigenvalues --  1527.12348********************
           X            0.99999  -0.00484   0.00184
           Y            0.00487   0.99990  -0.01322
           Z           -0.00178   0.01323   0.99991
 This molecule is an asymmetric top.
 Rotational symmetry number  1.
 Warning -- assumption of classical behavior for rotation
           may cause significant error
 Rotational temperatures (Kelvin)      0.05672     0.00858     0.00812
 Rotational constants (GHZ):           1.18179     0.17883     0.16918
 Zero-point vibrational energy     405222.7 (Joules/Mol)
                                   96.85055 (Kcal/Mol)
 Warning -- explicit consideration of  24 degrees of freedom as
           vibrations may cause significant error
 Vibrational temperatures:     14.94    35.28    63.63    70.25   162.11
          (Kelvin)            211.80   257.55   261.39   339.63   370.96
                              428.02   447.04   475.62   589.70   596.70
                              652.13   681.56   701.73   711.08   772.71
                              786.26   792.14   800.27   885.45   905.98
                              944.99   999.54  1092.96  1122.43  1124.86
                             1157.77  1167.53  1233.58  1294.90  1327.62
                             1397.91  1404.24  1410.99  1436.96  1524.39
                             1608.15  1644.07  1662.29  1685.09  1752.90
                             1796.12  1825.98  1827.14  1837.56  1844.21
                             1967.10  1984.69  2009.19  2034.31  2120.15
                             2171.46  2231.19  2329.37  2383.68  2409.34
                             4556.57  4591.64  4627.18  4632.49  4634.44
                             4653.30

 Zero-point correction=                           0.154341 (Hartree/Particle)
 Thermal correction to Energy=                    0.169257
 Thermal correction to Enthalpy=                  0.170202
 Thermal correction to Gibbs Free Energy=         0.108728
 Sum of electronic and zero-point Energies=          -1362.572146
 Sum of electronic and thermal Energies=             -1362.557230
 Sum of electronic and thermal Enthalpies=           -1362.556286
 Sum of electronic and thermal Free Energies=        -1362.617759

                     E (Thermal)             CV                S
                      KCal/Mol        Cal/Mol-Kelvin    Cal/Mol-Kelvin
 Total                  106.211             55.913            129.382
 Electronic               0.000              0.000              0.000
 Translational            0.889              2.981             42.755
 Rotational               0.889              2.981             33.463
 Vibrational            104.433             49.951             53.164
 Vibration     1          0.593              1.987              7.936
 Vibration     2          0.593              1.985              6.230
 Vibration     3          0.595              1.980              5.060
 Vibration     4          0.595              1.978              4.864
 Vibration     5          0.607              1.939              3.222
 Vibration     6          0.617              1.906              2.708
 Vibration     7          0.629              1.868              2.339
 Vibration     8          0.630              1.865              2.311
 Vibration     9          0.655              1.786              1.832
 Vibration    10          0.667              1.750              1.676
 Vibration    11          0.691              1.678              1.431
 Vibration    12          0.700              1.653              1.359
 Vibration    13          0.713              1.614              1.257
 Vibration    14          0.774              1.449              0.927
 Vibration    15          0.778              1.438              0.910
 Vibration    16          0.812              1.354              0.786
 Vibration    17          0.830              1.308              0.727
 Vibration    18          0.844              1.277              0.690
 Vibration    19          0.850              1.263              0.673
 Vibration    20          0.892              1.168              0.572
 Vibration    21          0.902              1.147              0.552
 Vibration    22          0.906              1.138              0.543
 Vibration    23          0.912              1.126              0.531
 Vibration    24          0.975              0.999              0.424

 Optimization completed.
    -- Stationary point found.
 Normal termination of Gaussian 16 at Thu Dec 26 14:05:15 2019.
 Gaussian 16:  ES64L-G16RevA.03 25-Dec-2016

 ----------------------------------------------------------------------
 # TD(NStates=10, Root=1) B3LYP/6-31G* scf=qc volume pop=NPA density=cu
 rrent Geom=AllCheck Guess=Read
 ----------------------------------------------------------------------

 Structure from the checkpoint file:  "electrophile_13.chk"
 -------------------
 Title Card Required
 -------------------
 Charge =  0 Multiplicity = 1

                         Standard orientation:
 ---------------------------------------------------------------------
 Center     Atomic      Atomic             Coordinates (Angstroms)
 Number     Number       Type             X           Y           Z
 ---------------------------------------------------------------------
      1          8           0        1.773308    1.730282    0.771378
      2         16           0        1.925054    0.294971    0.584174
      3          8           0        0.987715   -0.220063   -0.672221
      4          6           0       -0.392199   -0.377593   -0.408671
      5          6           0       -0.872189   -1.688100   -0.194695
      6          6           0       -2.220604   -1.883078   -0.006652
      7          6           0       -3.121655   -0.784252   -0.018522
      8          7           0       -4.449361   -1.034679    0.174266
      9          6           0       -5.273597   -0.006892    0.162465
     10          6           0       -4.870816    1.338705   -0.037769
     11          6           0       -3.538129    1.608192   -0.234855
     12          6           0       -2.608718    0.536124   -0.231089
     13          6           0       -1.216473    0.720394   -0.429868
     14          6           0        3.537370   -0.010155   -0.318962
     15          9           0        3.574949    0.708937   -1.435744
     16          9           0        4.521683    0.366272    0.495148
     17          9           0        3.657890   -1.302430   -0.604865
     18          8           0        1.832526   -0.635117    1.698882
     19          1           0       -0.168011   -2.512887   -0.184667
     20          1           0       -2.633006   -2.872886    0.158475
     21          1           0       -6.327764   -0.233096    0.319449
     22          1           0       -5.612851    2.131220   -0.032388
     23          1           0       -3.183988    2.624113   -0.391514
     24          1           0       -0.806741    1.710858   -0.599463
 ---------------------------------------------------------------------

 SCF Done:  E(RB3LYP) =  -1362.72648719     a.u. after    1 cycles

 Excitation energies and oscillator strengths:

 Excited State   1:      Singlet-A      4.2269 eV  293.32 nm  f=0.0017  <S**2>=0.000
      68 -> 71         0.70031
 This state for optimization and/or second-order correction.
 Total Energy, E(TD-HF/TD-DFT) =  -1362.57115290
 Copying the excited state density for this state as the 1-particle RhoCI density.

 Excited State   2:      Singlet-A      4.4996 eV  275.55 nm  f=0.0419  <S**2>=0.000
      69 -> 71        -0.25231
      69 -> 72         0.14659
      70 -> 71         0.60818
      70 -> 72         0.19246

 Excited State   3:      Singlet-A      4.5268 eV  273.89 nm  f=0.0227  <S**2>=0.000
      69 -> 71         0.49798
      70 -> 71         0.30802
      70 -> 72        -0.38082

 Excited State   4:      Singlet-A      5.1356 eV  241.42 nm  f=0.0000  <S**2>=0.000
      68 -> 72         0.69798

 Excited State   5:      Singlet-A      5.7677 eV  214.96 nm  f=0.6254  <S**2>=0.000
      67 -> 71         0.13634
      69 -> 71         0.29225
      69 -> 72        -0.17873
      69 -> 74        -0.10033
      70 -> 72         0.43205
      70 -> 73         0.37811

 Excited State   6:      Singlet-A      5.9475 eV  208.46 nm  f=0.3559  <S**2>=0.000
      66 -> 71        -0.10582
      67 -> 71         0.35375
      69 -> 71        -0.24070
      69 -> 72        -0.24656
      70 -> 72        -0.28426
      70 -> 73         0.31443
      70 -> 74        -0.21223

 Excited State   7:      Singlet-A      6.1088 eV  202.96 nm  f=0.1882  <S**2>=0.000
      69 -> 72         0.53534
      69 -> 73         0.17052
      70 -> 71        -0.12861
      70 -> 73         0.32439
      70 -> 74         0.13962

 Excited State   8:      Singlet-A      6.1312 eV  202.22 nm  f=0.0082  <S**2>=0.000
      66 -> 71         0.41349
      67 -> 71         0.25848
      68 -> 73         0.44952
      68 -> 74        -0.16436

 Excited State   9:      Singlet-A      6.1623 eV  201.20 nm  f=0.0181  <S**2>=0.000
      66 -> 71        -0.39869
      67 -> 71        -0.24089
      68 -> 73         0.46869
      68 -> 74        -0.17262

 Excited State  10:      Singlet-A      6.2933 eV  197.01 nm  f=0.0345  <S**2>=0.000
      66 -> 71        -0.24182
      67 -> 71         0.19588
      67 -> 72         0.15988
      69 -> 73         0.43173
      70 -> 73        -0.22214
      70 -> 74        -0.33087

 The electronic state is 1-A.
 Alpha  occ. eigenvalues --  -89.15528 -24.77236 -24.77232 -24.77227 -19.23504
 Alpha  occ. eigenvalues --  -19.18779 -19.18777 -14.34131 -10.48717 -10.27913
 Alpha  occ. eigenvalues --  -10.24092 -10.23804 -10.22429 -10.22315 -10.21889
 Alpha  occ. eigenvalues --  -10.21715 -10.21322 -10.21064  -8.18148  -6.14711
 Alpha  occ. eigenvalues --   -6.14477  -6.14431  -1.35485  -1.26676  -1.26643
 Alpha  occ. eigenvalues --   -1.17129  -1.07767  -1.04447  -0.95578  -0.87045
 Alpha  occ. eigenvalues --   -0.82279  -0.79265  -0.76493  -0.75513  -0.69879
 Alpha  occ. eigenvalues --   -0.66149  -0.64602  -0.62918  -0.62907  -0.62452
 Alpha  occ. eigenvalues --   -0.60582  -0.55649  -0.54294  -0.53376  -0.51208
 Alpha  occ. eigenvalues --   -0.50275  -0.49755  -0.49091  -0.48819  -0.46825
 Alpha  occ. eigenvalues --   -0.46674  -0.46415  -0.45944  -0.45370  -0.44169
 Alpha  occ. eigenvalues --   -0.43809  -0.42517  -0.41985  -0.39901  -0.39491
 Alpha  occ. eigenvalues --   -0.38411  -0.36785  -0.35342  -0.35159  -0.34383
 Alpha  occ. eigenvalues --   -0.32315  -0.32005  -0.26700  -0.26580  -0.24924
 Alpha virt. eigenvalues --   -0.06881  -0.03527  -0.00265   0.01453   0.02102
 Alpha virt. eigenvalues --    0.04631   0.06578   0.07725   0.09051   0.10457
 Alpha virt. eigenvalues --    0.12872   0.15462   0.16099   0.16413   0.17201

 Mulliken charges:
               1
     1  O   -0.477382
     2  S    1.188724
     3  O   -0.611309
     4  C    0.303074
     5  C   -0.138486
     6  C   -0.208055
     7  C    0.307457
     8  N   -0.432327
     9  C    0.045155
    10  C   -0.159307
    11  C   -0.182096
    12  C    0.179004
    13  C   -0.248819
    14  C    0.607017
    15  F   -0.217231
    16  F   -0.224276
    17  F   -0.218422
    18  O   -0.474995
    19  H    0.153666
    20  H    0.145287
    21  H    0.180983
    22  H    0.160458
    23  H    0.153471
    24  H    0.168408
 Sum of Mulliken charges =   0.00000

 Dipole moment (field-independent basis, Debye):
    X=             -4.3779    Y=             -0.5006    Z=             -1.4855  Tot=              4.6501
 Quadrupole moment (field-independent basis, Debye-Ang):
   XX=            -79.5836   YY=           -101.3696   ZZ=           -112.6920
   XY=             -3.0156   XZ=             -4.5226   YZ=             -1.2083

 Summary of Natural Population Analysis:

                                       Natural Population
                Natural  -----------------------------------------------
    Atom  No    Charge         Core      Valence    Rydberg      Total
 -----------------------------------------------------------------------
      O    1   -0.89510      1.99989     6.87142    0.02380     8.89510
      S    2    2.28011      9.99887     3.51630    0.20472    13.71989
      O    3   -0.72837      1.99976     6.71515    0.01346     8.72837
      C    4    0.25425      1.99869     3.72403    0.02303     5.74575
      C    5   -0.24684      1.99899     4.23334    0.01450     6.24684
      C    6   -0.29337      1.99906     4.27918    0.01513     6.29337
      C    7    0.14891      1.99891     3.83434    0.01783     5.85109
      N    8   -0.12180      1.99890     5.10976    0.01314     7.12180
      C    9   -0.05143      1.99918     4.03160    0.02065     6.05143
      C   10   -0.28842      1.99905     4.27506    0.01431     6.28842
      C   11   -0.25200      1.99903     4.23741    0.01557     6.25200
      C   12   -0.04666      1.99897     4.03358    0.01410     6.04666
      C   13   -0.30143      1.99890     4.28782    0.01471     6.30143
      C   14    0.89132      1.99975     3.02495    0.08397     5.10868
      F   15   -0.33388      1.99992     7.32572    0.00825     9.33388
      F   16   -0.33776      1.99992     7.32986    0.00798     9.33776
      F   17   -0.33479      1.99992     7.32661    0.00826     9.33479
      O   18   -0.88928      1.99988     6.86597    0.02342     8.88928
      H   19    0.25699      0.00000     0.74200    0.00101     0.74301
      H   20    0.24879      0.00000     0.75052    0.00069     0.75121
      H   21    0.25897      0.00000     0.74045    0.00058     0.74103
      H   22    0.26261      0.00000     0.73693    0.00047     0.73739
      H   23    0.25300      0.00000     0.74622    0.00078     0.74700
      H   24    0.26620      0.00000     0.73259    0.00121     0.73380
 =======================================================================
   * Total *    0.00000     43.98763    95.47081    0.54156   140.00000

 Normal termination of Gaussian 16 at Thu Dec 26 14:15:17 2019.
