 Gaussian 16, Revision A.03,

 -------------------------
 # opt b3lyp/6-31G* scf=qc
 -------------------------

 -------------------
 Title Card Required
 -------------------
 Symbolic Z-matrix:
 Charge =  0 Multiplicity = 1

 SCF Done:  E(RB3LYP) =  -519.799630606     a.u. after    9 cycles
 SCF Done:  E(RB3LYP) =  -519.809426267     a.u. after   13 cycles
 SCF Done:  E(RB3LYP) =  -519.798537399     a.u. after   15 cycles
 SCF Done:  E(RB3LYP) =  -519.815456749     a.u. after    8 cycles
 SCF Done:  E(RB3LYP) =  -519.820437538     a.u. after   11 cycles
 SCF Done:  E(RB3LYP) =  -519.825596527     a.u. after   13 cycles
 SCF Done:  E(RB3LYP) =  -519.827070782     a.u. after   11 cycles
 SCF Done:  E(RB3LYP) =  -519.828578785     a.u. after   11 cycles
 SCF Done:  E(RB3LYP) =  -519.828979523     a.u. after   11 cycles
 SCF Done:  E(RB3LYP) =  -519.829218580     a.u. after    9 cycles
 SCF Done:  E(RB3LYP) =  -519.829430443     a.u. after    4 cycles
 SCF Done:  E(RB3LYP) =  -519.829435515     a.u. after    3 cycles
 SCF Done:  E(RB3LYP) =  -519.829441380     a.u. after    4 cycles
 SCF Done:  E(RB3LYP) =  -519.829445690     a.u. after    4 cycles
 SCF Done:  E(RB3LYP) =  -519.829449658     a.u. after    4 cycles
 SCF Done:  E(RB3LYP) =  -519.829451099     a.u. after    3 cycles
 SCF Done:  E(RB3LYP) =  -519.829452243     a.u. after    2 cycles
 SCF Done:  E(RB3LYP) =  -519.829452350     a.u. after    2 cycles
 Optimization completed.
    -- Stationary point found.
 Normal termination of Gaussian 16 at Mon Aug 27 13:19:33 2018.

 ----------------------------------------------------------------------
 # freq b3lyp/6-31G* volume NMR pop=NPA density=current Geom=AllCheck G
 uess=Read
 ----------------------------------------------------------------------

 Structure from the checkpoint file:  "science_base_22.chk"
 -------------------
 Title Card Required
 -------------------
 Charge =  0 Multiplicity = 1

 SCF Done:  E(RB3LYP) =  -519.829452350     A.U. after    1 cycles

      1  C    Isotropic =    44.7805   Anisotropy =    69.4404

      2  N    Isotropic =    19.7402   Anisotropy =   285.3445

      3  C    Isotropic =   135.3666   Anisotropy =    31.4277

      4  C    Isotropic =   159.1461   Anisotropy =    39.1520

      5  C    Isotropic =   152.7032   Anisotropy =    46.9000

      6  C    Isotropic =   163.0976   Anisotropy =    32.4263

      7  N    Isotropic =   182.1515   Anisotropy =    82.9085

      8  C    Isotropic =   152.1242   Anisotropy =    52.2799

      9  C    Isotropic =   150.8957   Anisotropy =    45.6775

     10  N    Isotropic =   210.2828   Anisotropy =    59.8229

     11  C    Isotropic =   151.6455   Anisotropy =    54.7981

     12  C    Isotropic =   148.0020   Anisotropy =    53.5680

     13  H    Isotropic =    30.7489   Anisotropy =     6.9869

     14  H    Isotropic =    30.9937   Anisotropy =     5.7589

     15  H    Isotropic =    31.0560   Anisotropy =     8.2228

     16  H    Isotropic =    30.5397   Anisotropy =     6.6859

     17  H    Isotropic =    31.1934   Anisotropy =     8.2928

     18  H    Isotropic =    31.0199   Anisotropy =     6.5445

     19  H    Isotropic =    30.5623   Anisotropy =     6.0562

     20  H    Isotropic =    31.0873   Anisotropy =     5.7427

     21  H    Isotropic =    31.0452   Anisotropy =     7.8887

     22  H    Isotropic =    29.5589   Anisotropy =     4.5836

     23  H    Isotropic =    29.9837   Anisotropy =     9.2576

     24  H    Isotropic =    29.8828   Anisotropy =     9.0935

     25  H    Isotropic =    29.3333   Anisotropy =     7.1005

     26  H    Isotropic =    30.2734   Anisotropy =     9.0314

     27  H    Isotropic =    29.7965   Anisotropy =     8.3967

     28  H    Isotropic =    29.2319   Anisotropy =     6.8438

     29  H    Isotropic =    29.7707   Anisotropy =     9.6441

     30  H    Isotropic =    29.8846   Anisotropy =     8.3704

     31  H    Isotropic =    29.2974   Anisotropy =     6.0186

     32  H    Isotropic =    29.8061   Anisotropy =     9.4478

     33  H    Isotropic =    29.5091   Anisotropy =     7.9143

  Exact polarizability: 143.954  -1.401 121.708   0.483  -0.837  96.880
 Approx polarizability: 189.274  -5.916 166.670   4.472  -1.900 139.886

                      1                      2                      3
                      A                      A                      A
 Frequencies --     31.8593                67.1554                88.9605
 Red. masses --      2.5941                 2.7505                 2.5811
 Frc consts  --      0.0016                 0.0073                 0.0120
 IR Inten    --      0.2109                 0.4476                 2.1990

                      4                      5                      6
                      A                      A                      A
 Frequencies --    129.3268               133.8319               148.1984
 Red. masses --      1.7546                 2.1606                 2.0210
 Frc consts  --      0.0173                 0.0228                 0.0262
 IR Inten    --      2.0473                 1.3564                 0.6966

                      7                      8                      9
                      A                      A                      A
 Frequencies --    184.8682               201.7815               215.1842
 Red. masses --      1.7102                 1.2824                 1.1397
 Frc consts  --      0.0344                 0.0308                 0.0311
 IR Inten    --      0.2878                 0.5194                 0.1778

                     10                     11                     12
                      A                      A                      A
 Frequencies --    218.5382               226.3978               249.0060
 Red. masses --      1.1539                 1.5795                 1.3241
 Frc consts  --      0.0325                 0.0477                 0.0484
 IR Inten    --      0.9355                 1.0877                 2.4178

                     13                     14                     15
                      A                      A                      A
 Frequencies --    266.1269               271.3969               292.0672
 Red. masses --      1.1284                 1.9204                 1.3865
 Frc consts  --      0.0471                 0.0833                 0.0697
 IR Inten    --      1.3066                 0.8390                 3.1219

                     16                     17                     18
                      A                      A                      A
 Frequencies --    304.3027               329.7924               351.0450
 Red. masses --      2.2034                 2.7751                 2.4072
 Frc consts  --      0.1202                 0.1778                 0.1748
 IR Inten    --      4.3715                 2.8870                 1.3186

                     19                     20                     21
                      A                      A                      A
 Frequencies --    372.0164               379.4596               408.7571
 Red. masses --      2.6620                 2.4117                 2.4176
 Frc consts  --      0.2171                 0.2046                 0.2380
 IR Inten    --      5.5056                 1.4010                 1.9083

                     22                     23                     24
                      A                      A                      A
 Frequencies --    454.6102               503.9426               532.4537
 Red. masses --      2.4212                 3.5031                 3.2034
 Frc consts  --      0.2948                 0.5242                 0.5351
 IR Inten    --      0.7059                 8.1097                 0.1386

                     25                     26                     27
                      A                      A                      A
 Frequencies --    589.1897               694.2584               761.2776
 Red. masses --      3.4186                 5.2931                 7.6819
 Frc consts  --      0.6992                 1.5031                 2.6230
 IR Inten    --      9.8905                 2.2512                 9.2733

                     28                     29                     30
                      A                      A                      A
 Frequencies --    783.5576               909.8168               919.7700
 Red. masses --      3.6159                 2.3084                 2.3678
 Frc consts  --      1.3080                 1.1258                 1.1802
 IR Inten    --      1.0996                 8.5032                 5.8123

                     31                     32                     33
                      A                      A                      A
 Frequencies --    927.0548               953.3875               967.3263
 Red. masses --      1.7093                 3.0538                 1.2050
 Frc consts  --      0.8655                 1.6354                 0.6644
 IR Inten    --      0.4791                 5.8351                 0.2321

                     34                     35                     36
                      A                      A                      A
 Frequencies --   1045.2653              1056.1480              1065.6206
 Red. masses --      1.7843                 1.3960                 1.5134
 Frc consts  --      1.1486                 0.9175                 1.0126
 IR Inten    --     59.4662                 3.1395                18.5568

                     37                     38                     39
                      A                      A                      A
 Frequencies --   1081.0648              1096.8967              1131.7287
 Red. masses --      1.4305                 1.3800                 1.5513
 Frc consts  --      0.9850                 0.9783                 1.1707
 IR Inten    --     11.4977                 3.4085                83.8656

                     40                     41                     42
                      A                      A                      A
 Frequencies --   1135.6518              1149.6557              1182.1973
 Red. masses --      1.4484                 1.3522                 1.3499
 Frc consts  --      1.1006                 1.0530                 1.1116
 IR Inten    --     71.9200                32.6510                 3.4635

                     43                     44                     45
                      A                      A                      A
 Frequencies --   1184.2485              1246.4820              1248.4639
 Red. masses --      1.4161                 2.5046                 2.7359
 Frc consts  --      1.1701                 2.2927                 2.5125
 IR Inten    --     20.8428                79.2115                12.0406

                     46                     47                     48
                      A                      A                      A
 Frequencies --   1256.1498              1268.8869              1284.0370
 Red. masses --      2.8667                 4.4936                 4.9201
 Frc consts  --      2.6651                 4.2627                 4.7795
 IR Inten    --     14.1567                41.0689                18.1272

                     49                     50                     51
                      A                      A                      A
 Frequencies --   1361.3005              1396.7447              1416.9340
 Red. masses --      2.9643                 3.0564                 1.2428
 Frc consts  --      3.2365                 3.5131                 1.4701
 IR Inten    --     14.5475               206.1589                 3.5031

                     52                     53                     54
                      A                      A                      A
 Frequencies --   1419.9656              1448.5336              1460.9779
 Red. masses --      1.2393                 1.2243                 1.1540
 Frc consts  --      1.4722                 1.5135                 1.4512
 IR Inten    --      6.5763                 4.6941                 0.6070

                     55                     56                     57
                      A                      A                      A
 Frequencies --   1466.6260              1483.2309              1494.6305
 Red. masses --      1.1374                 1.1680                 1.1629
 Frc consts  --      1.4414                 1.5139                 1.5305
 IR Inten    --      2.7417                15.0268                13.8132

                     58                     59                     60
                      A                      A                      A
 Frequencies --   1503.5639              1505.2022              1509.5863
 Red. masses --      1.0581                 1.0730                 1.0571
 Frc consts  --      1.4093                 1.4323                 1.4194
 IR Inten    --      3.0641                 5.2906                 4.6203

                     61                     62                     63
                      A                      A                      A
 Frequencies --   1511.9150              1514.8466              1516.3367
 Red. masses --      1.0471                 1.0523                 1.0466
 Frc consts  --      1.4102                 1.4228                 1.4178
 IR Inten    --      0.7581                 7.8833                 0.7351

                     64                     65                     66
                      A                      A                      A
 Frequencies --   1518.9846              1529.4335              1530.7318
 Red. masses --      1.0656                 1.0537                 1.0552
 Frc consts  --      1.4486                 1.4523                 1.4568
 IR Inten    --      8.2351                11.1149                 7.1512

                     67                     68                     69
                      A                      A                      A
 Frequencies --   1532.5122              1542.1597              1545.6534
 Red. masses --      1.0560                 1.0552                 1.0546
 Frc consts  --      1.4612                 1.4786                 1.4845
 IR Inten    --      2.0742                10.0047                11.0810

                     70                     71                     72
                      A                      A                      A
 Frequencies --   1550.5417              1566.2845              1702.2496
 Red. masses --      1.0767                 1.1167                 9.2304
 Frc consts  --      1.5251                 1.6140                15.7586
 IR Inten    --      6.8158                30.5218               472.2443

                     73                     74                     75
                      A                      A                      A
 Frequencies --   2977.6164              2984.0355              2988.7586
 Red. masses --      1.0497                 1.0557                 1.0574
 Frc consts  --      5.4837                 5.5387                 5.5653
 IR Inten    --     39.9752               129.5311               103.8472

                     76                     77                     78
                      A                      A                      A
 Frequencies --   3015.8435              3025.4995              3033.9321
 Red. masses --      1.0490                 1.0905                 1.0905
 Frc consts  --      5.6215                 5.8811                 5.9143
 IR Inten    --     79.6892                63.3028                36.0005

                     79                     80                     81
                      A                      A                      A
 Frequencies --   3041.6357              3047.7745              3055.0934
 Red. masses --      1.0357                 1.0376                 1.0387
 Frc consts  --      5.6457                 5.6786                 5.7120
 IR Inten    --     23.1858                29.1251                36.2158

                     82                     83                     84
                      A                      A                      A
 Frequencies --   3078.2511              3081.6878              3104.8687
 Red. masses --      1.0852                 1.0916                 1.1015
 Frc consts  --      6.0585                 6.1079                 6.2563
 IR Inten    --     27.1058                64.9718                 1.5080

                     85                     86                     87
                      A                      A                      A
 Frequencies --   3110.6887              3116.9839              3126.3729
 Red. masses --      1.1010                 1.1007                 1.1027
 Frc consts  --      6.2769                 6.3006                 6.3502
 IR Inten    --     29.0816                82.1336                15.0746

                     88                     89                     90
                      A                      A                      A
 Frequencies --   3130.3638              3154.6936              3163.3533
 Red. masses --      1.1019                 1.0964                 1.0940
 Frc consts  --      6.3617                 6.4291                 6.4499
 IR Inten    --     49.6152                29.9677                 9.0096

                     91                     92                     93
                      A                      A                      A
 Frequencies --   3167.7869              3168.3865              3170.2006
 Red. masses --      1.0968                 1.0947                 1.0924
 Frc consts  --      6.4845                 6.4747                 6.4685
 IR Inten    --     13.4328                20.0854                 8.4865

 - Thermochemistry -
 -------------------
 Temperature   298.150 Kelvin.  Pressure   1.00000 Atm.
 Atom     1 has atomic number  6 and mass  12.00000

 Molecular mass:   171.17355 amu.
 Principal axes and moments of inertia in atomic units:
                           1         2         3
     Eigenvalues --  1507.485502533.550243285.69428
           X            1.00000  -0.00073  -0.00244
           Y            0.00074   0.99999   0.00428
           Z            0.00244  -0.00429   0.99999
 This molecule is an asymmetric top.
 Rotational symmetry number  1.
 Warning -- assumption of classical behavior for rotation
           may cause significant error
 Rotational temperatures (Kelvin)      0.05746     0.03419     0.02636
 Rotational constants (GHZ):           1.19719     0.71234     0.54927
 Zero-point vibrational energy     789965.9 (Joules/Mol)
                                  188.80638 (Kcal/Mol)
 Warning -- explicit consideration of  25 degrees of freedom as
           vibrations may cause significant error
 Vibrational temperatures:     45.84    96.62   127.99   186.07   192.55
          (Kelvin)            213.22   265.98   290.32   309.60   314.43
                              325.74   358.26   382.90   390.48   420.22
                              437.82   474.50   505.08   535.25   545.96
                              588.11   654.08   725.06   766.08   847.71
                              998.88  1095.31  1127.36  1309.02  1323.34
                             1333.83  1371.71  1391.77  1503.90  1519.56
                             1533.19  1555.41  1578.19  1628.31  1633.95
                             1654.10  1700.92  1703.87  1793.41  1796.26
                             1807.32  1825.65  1847.44  1958.61  2009.60
                             2038.65  2043.01  2084.12  2102.02  2110.15
                             2134.04  2150.44  2163.29  2165.65  2171.96
                             2175.31  2179.53  2181.67  2185.48  2200.51
                             2202.38  2204.94  2218.82  2223.85  2230.88
                             2253.53  2449.16  4284.13  4293.36  4300.16
                             4339.13  4353.02  4365.15  4376.24  4385.07
                             4395.60  4428.92  4433.86  4467.21  4475.59
                             4484.64  4498.15  4503.90  4538.90  4551.36
                             4557.74  4558.60  4561.21

 Zero-point correction=                           0.300882 (Hartree/Particle)
 Thermal correction to Energy=                    0.316644
 Thermal correction to Enthalpy=                  0.317588
 Thermal correction to Gibbs Free Energy=         0.259215
 Sum of electronic and zero-point Energies=           -519.528570
 Sum of electronic and thermal Energies=              -519.512808
 Sum of electronic and thermal Enthalpies=            -519.511864
 Sum of electronic and thermal Free Energies=         -519.570238

                     E (Thermal)             CV                S
                      KCal/Mol        Cal/Mol-Kelvin    Cal/Mol-Kelvin
 Total                  198.697             57.739            122.857
 Electronic               0.000              0.000              0.000
 Translational            0.889              2.981             41.320
 Rotational               0.889              2.981             30.907
 Vibrational            196.920             51.778             50.630
 Vibration     1          0.594              1.983              5.710
 Vibration     2          0.598              1.970              4.235
 Vibration     3          0.602              1.957              3.683
 Vibration     4          0.612              1.924              2.956
 Vibration     5          0.613              1.920              2.890
 Vibration     6          0.618              1.905              2.695
 Vibration     7          0.631              1.860              2.279
 Vibration     8          0.639              1.837              2.117
 Vibration     9          0.645              1.818              1.999
 Vibration    10          0.646              1.813              1.971
 Vibration    11          0.650              1.801              1.907
 Vibration    12          0.662              1.764              1.738
 Vibration    13          0.672              1.735              1.621
 Vibration    14          0.675              1.726              1.587
 Vibration    15          0.687              1.689              1.462
 Vibration    16          0.695              1.666              1.393
 Vibration    17          0.713              1.616              1.261
 Vibration    18          0.728              1.573              1.161
 Vibration    19          0.744              1.530              1.071
 Vibration    20          0.749              1.514              1.041
 Vibration    21          0.773              1.451              0.931
 Vibration    22          0.813              1.351              0.782
 Vibration    23          0.859              1.241              0.648
 Vibration    24          0.887              1.178              0.582
 Vibration    25          0.946              1.055              0.469

 Optimization completed.
    -- Stationary point found.
 Normal termination of Gaussian 16 at Mon Aug 27 13:24:32 2018.
 Gaussian 16:  ES64L-G16RevA.03 25-Dec-2016

 ----------------------------------------------------------------------
 # TD(NStates=10, Root=1) b3lyp/6-31G* volume pop=NPA density=current G
 eom=AllCheck Guess=Read
 ----------------------------------------------------------------------

 Structure from the checkpoint file:  "science_base_23.chk"
 -------------------
 Title Card Required
 -------------------
 Charge =  0 Multiplicity = 1

                         Standard orientation:
 ---------------------------------------------------------------------
 Center     Atomic      Atomic             Coordinates (Angstroms)
 Number     Number       Type             X           Y           Z
 ---------------------------------------------------------------------
      1          6           0       -0.568705   -0.158462    0.029924
      2          7           0        0.561677   -0.724240    0.241614
      3          6           0        1.910661   -0.200658   -0.003606
      4          6           0        2.559030    0.205688    1.336986
      5          6           0        2.696314   -1.410901   -0.563083
      6          6           0        2.024264    0.949553   -1.027712
      7          7           0       -1.707710   -0.975588   -0.093661
      8          6           0       -2.889016   -0.652419    0.699651
      9          6           0       -1.483894   -2.407849   -0.226531
     10          7           0       -0.845027    1.214598   -0.137820
     11          6           0       -1.762853    1.690067   -1.155260
     12          6           0       -0.486224    2.182256    0.877843
     13          1           0        2.450051   -0.602507    2.067862
     14          1           0        2.101899    1.108035    1.755565
     15          1           0        3.628569    0.407505    1.202360
     16          1           0        2.632403   -2.254603    0.131197
     17          1           0        3.752779   -1.160855   -0.720215
     18          1           0        2.272292   -1.731011   -1.521763
     19          1           0        1.612062    1.891981   -0.661979
     20          1           0        1.508249    0.690593   -1.959159
     21          1           0        3.080818    1.121668   -1.267150
     22          1           0       -2.987039    0.427151    0.817660
     23          1           0       -2.840410   -1.104544    1.704832
     24          1           0       -3.790303   -1.029747    0.202233
     25          1           0       -0.675846   -2.587800   -0.936124
     26          1           0       -2.406163   -2.873688   -0.593602
     27          1           0       -1.203122   -2.880207    0.727105
     28          1           0       -1.992039    0.880154   -1.849054
     29          1           0       -1.305350    2.517571   -1.717496
     30          1           0       -2.711695    2.063411   -0.733350
     31          1           0        0.080171    1.693674    1.671076
     32          1           0       -1.388602    2.630724    1.327572
     33          1           0        0.121242    3.005457    0.472221
 ---------------------------------------------------------------------

 SCF Done:  E(RB3LYP) =  -519.829452350     A.U. after    1 cycles

 Excitation energies and oscillator strengths:

 Excited State   1:      Singlet-A      5.4518 eV  227.42 nm  f=0.0042  <S**2>=0.000
      46 -> 49         0.30861
      47 -> 49         0.51928
      48 -> 49        -0.35994
 This state for optimization and/or second-order correction.
 Total Energy, E(TD-HF/TD-DFT) =  -519.629103221
 Copying the excited state density for this state as the 1-particle RhoCI density.

 Excited State   2:      Singlet-A      5.9978 eV  206.72 nm  f=0.1132  <S**2>=0.000
      46 -> 49         0.57276
      48 -> 49         0.39202

 Excited State   3:      Singlet-A      6.2848 eV  197.28 nm  f=0.2788  <S**2>=0.000
      46 -> 49        -0.25530
      47 -> 49         0.45866
      48 -> 49         0.44130

 Excited State   4:      Singlet-A      6.4984 eV  190.79 nm  f=0.0069  <S**2>=0.000
      47 -> 50        -0.10229
      48 -> 50         0.68369

 Excited State   5:      Singlet-A      6.9202 eV  179.16 nm  f=0.0290  <S**2>=0.000
      46 -> 50        -0.24475
      47 -> 50         0.64047
      48 -> 50         0.12533

 Excited State   6:      Singlet-A      7.0576 eV  175.67 nm  f=0.0037  <S**2>=0.000
      46 -> 50         0.64283
      47 -> 50         0.26188

 Excited State   7:      Singlet-A      7.4160 eV  167.18 nm  f=0.0077  <S**2>=0.000
      48 -> 51         0.68249
      48 -> 53        -0.11766

 Excited State   8:      Singlet-A      7.6920 eV  161.19 nm  f=0.0148  <S**2>=0.000
      48 -> 52         0.68149

 Excited State   9:      Singlet-A      7.8210 eV  158.53 nm  f=0.0223  <S**2>=0.000
      47 -> 51         0.67156

 Excited State  10:      Singlet-A      7.9409 eV  156.13 nm  f=0.0095  <S**2>=0.000
      46 -> 51         0.58567
      46 -> 52         0.12986
      47 -> 52        -0.13590
      47 -> 53         0.10835
      48 -> 51        -0.10689
      48 -> 53        -0.27338

 The electronic state is 1-A.
 Alpha  occ. eigenvalues --  -14.33742 -14.33696 -14.27855 -10.26425 -10.21164
 Alpha  occ. eigenvalues --  -10.20867 -10.20857 -10.20810 -10.19423 -10.16069
 Alpha  occ. eigenvalues --  -10.15853 -10.15374  -0.96889  -0.89944  -0.86533
 Alpha  occ. eigenvalues --   -0.77042  -0.71590  -0.70450  -0.68210  -0.67181
 Alpha  occ. eigenvalues --   -0.66538  -0.63323  -0.56682  -0.52425  -0.50149
 Alpha  occ. eigenvalues --   -0.47227  -0.46454  -0.45261  -0.44300  -0.43262
 Alpha  occ. eigenvalues --   -0.42362  -0.41918  -0.40387  -0.39514  -0.38972
 Alpha  occ. eigenvalues --   -0.38245  -0.37733  -0.37449  -0.37225  -0.36392
 Alpha  occ. eigenvalues --   -0.35384  -0.34810  -0.32836  -0.31470  -0.29727
 Alpha  occ. eigenvalues --   -0.22026  -0.21459  -0.20159
 Alpha virt. eigenvalues --    0.04030   0.07085   0.10339   0.11254   0.12769
 Alpha virt. eigenvalues --    0.13209   0.13953   0.14386   0.15221   0.15692
 Alpha virt. eigenvalues --    0.16177   0.16816   0.17106   0.17445   0.18033

 Mulliken charges:
               1
     1  C    0.525253
     2  N   -0.425478
     3  C    0.189141
     4  C   -0.426052
     5  C   -0.432065
     6  C   -0.441542
     7  N   -0.405454
     8  C   -0.293790
     9  C   -0.296473
    10  N   -0.398704
    11  C   -0.300349
    12  C   -0.307245
    13  H    0.146013
    14  H    0.136498
    15  H    0.125513
    16  H    0.147211
    17  H    0.129680
    18  H    0.144886
    19  H    0.160008
    20  H    0.157002
    21  H    0.145316
    22  H    0.152105
    23  H    0.113166
    24  H    0.135126
    25  H    0.159791
    26  H    0.140117
    27  H    0.122870
    28  H    0.180809
    29  H    0.134895
    30  H    0.139257
    31  H    0.174923
    32  H    0.129711
    33  H    0.137863
 Sum of Mulliken charges =  -0.00000

 Dipole moment (field-independent basis, Debye):
    X=              0.0429    Y=              1.1400    Z=             -0.3626  Tot=              1.1971
 Quadrupole moment (field-independent basis, Debye-Ang):
   XX=            -74.9261   YY=            -74.9287   ZZ=            -77.9273
   XY=             -0.2928   XZ=             -0.3602   YZ=              0.3635

 Summary of Natural Population Analysis:

                                       Natural Population
                Natural  -----------------------------------------------
    Atom  No    Charge         Core      Valence    Rydberg      Total
 -----------------------------------------------------------------------
      C    1    0.37824      1.99913     3.58835    0.03427     5.62176
      N    2   -0.33329      1.99898     5.31516    0.01914     7.33329
      C    3    0.09787      1.99908     3.88405    0.01901     5.90213
      C    4   -0.67640      1.99935     4.66657    0.01047     6.67640
      C    5   -0.66530      1.99935     4.65563    0.01032     6.66530
      C    6   -0.66111      1.99931     4.65233    0.00947     6.66111
      N    7   -0.49702      1.99939     5.48377    0.01386     7.49702
      C    8   -0.46049      1.99946     4.44880    0.01223     6.46049
      C    9   -0.46741      1.99949     4.45528    0.01265     6.46741
      N   10   -0.45663      1.99935     5.44470    0.01258     7.45663
      C   11   -0.46964      1.99946     4.45743    0.01275     6.46964
      C   12   -0.46580      1.99946     4.45405    0.01230     6.46580
      H   13    0.23745      0.00000     0.76112    0.00143     0.76255
      H   14    0.22197      0.00000     0.77711    0.00092     0.77803
      H   15    0.22113      0.00000     0.77710    0.00177     0.77887
      H   16    0.23511      0.00000     0.76368    0.00121     0.76489
      H   17    0.22188      0.00000     0.77655    0.00158     0.77812
      H   18    0.23363      0.00000     0.76518    0.00120     0.76637
      H   19    0.23574      0.00000     0.76319    0.00107     0.76426
      H   20    0.24187      0.00000     0.75708    0.00105     0.75813
      H   21    0.23711      0.00000     0.76151    0.00137     0.76289
      H   22    0.22287      0.00000     0.77624    0.00090     0.77713
      H   23    0.18701      0.00000     0.80648    0.00651     0.81299
      H   24    0.21400      0.00000     0.78373    0.00226     0.78600
      H   25    0.23466      0.00000     0.76446    0.00088     0.76534
      H   26    0.22152      0.00000     0.77751    0.00097     0.77848
      H   27    0.19238      0.00000     0.80293    0.00469     0.80762
      H   28    0.25077      0.00000     0.74821    0.00102     0.74923
      H   29    0.20939      0.00000     0.78806    0.00255     0.79061
      H   30    0.21060      0.00000     0.78738    0.00203     0.78940
      H   31    0.23567      0.00000     0.76343    0.00090     0.76433
      H   32    0.20603      0.00000     0.79020    0.00378     0.79397
      H   33    0.20622      0.00000     0.79193    0.00186     0.79378
 =======================================================================
   * Total *   -0.00000     23.99182    71.78919    0.21899    96.00000

 Normal termination of Gaussian 16 at Mon Aug 27 13:30:26 2018.
