 Gaussian 16, Revision A.03,

 -------------------------
 # opt b3lyp/6-31G* scf=qc
 -------------------------

 -------------------
 Title Card Required
 -------------------
 Symbolic Z-matrix:
 Charge =  0 Multiplicity = 1

 SCF Done:  E(RB3LYP) =  -478.119750142     a.u. after    8 cycles
 SCF Done:  E(RB3LYP) =  -478.126375116     a.u. after   11 cycles
 SCF Done:  E(RB3LYP) =  -478.128879745     a.u. after   11 cycles
 SCF Done:  E(RB3LYP) =  -478.130896388     a.u. after   13 cycles
 SCF Done:  E(RB3LYP) =  -478.131346685     a.u. after    6 cycles
 SCF Done:  E(RB3LYP) =  -478.131703405     a.u. after    7 cycles
 SCF Done:  E(RB3LYP) =  -478.131914997     a.u. after    9 cycles
 SCF Done:  E(RB3LYP) =  -478.132013109     a.u. after    5 cycles
 SCF Done:  E(RB3LYP) =  -478.132027352     a.u. after    3 cycles
 SCF Done:  E(RB3LYP) =  -478.132028299     a.u. after    2 cycles
 SCF Done:  E(RB3LYP) =  -478.132029168     a.u. after    2 cycles
 SCF Done:  E(RB3LYP) =  -478.132029911     a.u. after    2 cycles
 SCF Done:  E(RB3LYP) =  -478.132030045     a.u. after    2 cycles
 SCF Done:  E(RB3LYP) =  -478.132030090     a.u. after    2 cycles
 Optimization completed.
    -- Stationary point found.
 Normal termination of Gaussian 16 at Mon Aug 27 13:01:43 2018.

 ----------------------------------------------------------------------
 # freq b3lyp/6-31G* volume NMR pop=NPA density=current Geom=AllCheck G
 uess=Read
 ----------------------------------------------------------------------

 Structure from the checkpoint file:  "science_base_32.chk"
 -------------------
 Title Card Required
 -------------------
 Charge =  0 Multiplicity = 1

 SCF Done:  E(RB3LYP) =  -478.132030090     A.U. after    1 cycles

      1  C    Isotropic =   164.8207   Anisotropy =     7.6736

      2  C    Isotropic =   140.9597   Anisotropy =    35.4135

      3  N    Isotropic =   184.8119   Anisotropy =    66.0729

      4  C    Isotropic =    49.9187   Anisotropy =    94.0126

      5  N    Isotropic =    79.5451   Anisotropy =   261.3362

      6  C    Isotropic =   144.4996   Anisotropy =    27.5665

      7  C    Isotropic =   164.9011   Anisotropy =     5.5223

      8  C    Isotropic =   140.3100   Anisotropy =    36.6452

      9  N    Isotropic =   179.8011   Anisotropy =    44.8684

     10  C    Isotropic =   139.7402   Anisotropy =    37.8363

     11  C    Isotropic =   152.3470   Anisotropy =    46.9015

     12  H    Isotropic =    30.7793   Anisotropy =     9.2681

     13  H    Isotropic =    29.9744   Anisotropy =     7.3575

     14  H    Isotropic =    29.4507   Anisotropy =     7.1112

     15  H    Isotropic =    29.1234   Anisotropy =     7.9206

     16  H    Isotropic =    28.7709   Anisotropy =     7.6493

     17  H    Isotropic =    28.7577   Anisotropy =     7.9093

     18  H    Isotropic =    30.2700   Anisotropy =     7.4262

     19  H    Isotropic =    30.7883   Anisotropy =     8.9533

     20  H    Isotropic =    29.6170   Anisotropy =     6.6291

     21  H    Isotropic =    29.1512   Anisotropy =     7.7755

     22  H    Isotropic =    29.6142   Anisotropy =     6.6068

     23  H    Isotropic =    29.1398   Anisotropy =     7.7531

     24  H    Isotropic =    30.5533   Anisotropy =     8.5386

     25  H    Isotropic =    29.8131   Anisotropy =     9.4477

     26  H    Isotropic =    28.4668   Anisotropy =     8.1587

  Exact polarizability: 124.673  -3.767 106.912  -0.355  -0.578  75.791
 Approx polarizability: 160.558 -10.763 150.569  -2.718  -0.063 116.879

                      1                      2                      3
                      A                      A                      A
 Frequencies --     81.1007               103.7418               140.7862
 Red. masses --      2.6199                 2.0554                 1.7159
 Frc consts  --      0.0102                 0.0130                 0.0200
 IR Inten    --      0.4153                 0.3105                 4.2631

                      4                      5                      6
                      A                      A                      A
 Frequencies --    151.7069               185.4730               242.8530
 Red. masses --      1.6562                 3.4408                 2.9025
 Frc consts  --      0.0225                 0.0697                 0.1009
 IR Inten    --      5.0488                 4.9329                 1.7872

                      7                      8                      9
                      A                      A                      A
 Frequencies --    308.5452               330.9798               333.4473
 Red. masses --      2.1838                 2.1385                 1.8962
 Frc consts  --      0.1225                 0.1380                 0.1242
 IR Inten    --      2.3894                 3.0672                 5.9839

                     10                     11                     12
                      A                      A                      A
 Frequencies --    419.4765               448.1176               490.4734
 Red. masses --      3.3294                 3.8551                 4.1711
 Frc consts  --      0.3452                 0.4561                 0.5912
 IR Inten    --      0.2019                 5.3520                 6.8816

                     13                     14                     15
                      A                      A                      A
 Frequencies --    497.6556               586.5979               616.6876
 Red. masses --      3.2891                 2.2989                 2.2852
 Frc consts  --      0.4799                 0.4661                 0.5120
 IR Inten    --      0.1986                 0.4880                 4.2982

                     16                     17                     18
                      A                      A                      A
 Frequencies --    707.9091               717.3224               861.8379
 Red. masses --      4.1036                 6.8187                 2.2900
 Frc consts  --      1.2116                 2.0672                 1.0022
 IR Inten    --     10.0015                18.6506                 3.1370

                     19                     20                     21
                      A                      A                      A
 Frequencies --    891.4998               904.9018               916.6526
 Red. masses --      2.2427                 1.4372                 2.3428
 Frc consts  --      1.0502                 0.6934                 1.1598
 IR Inten    --      7.7191                 1.4874                 2.0067

                     22                     23                     24
                      A                      A                      A
 Frequencies --    924.7040               944.5846              1006.0258
 Red. masses --      1.3749                 2.3465                 2.2801
 Frc consts  --      0.6927                 1.2335                 1.3596
 IR Inten    --      0.2522                 0.0885                 4.3112

                     25                     26                     27
                      A                      A                      A
 Frequencies --   1030.6650              1073.9182              1098.9749
 Red. masses --      1.9194                 2.1300                 3.2360
 Frc consts  --      1.2013                 1.4473                 2.3027
 IR Inten    --      9.7172                15.4161                14.9839

                     28                     29                     30
                      A                      A                      A
 Frequencies --   1127.7063              1135.6792              1145.7281
 Red. masses --      1.7528                 1.8841                 1.6190
 Frc consts  --      1.3134                 1.4318                 1.2521
 IR Inten    --      8.9923                 3.6845                10.6292

                     31                     32                     33
                      A                      A                      A
 Frequencies --   1169.0485              1206.5973              1216.7348
 Red. masses --      1.5045                 1.8809                 1.8868
 Frc consts  --      1.2114                 1.6134                 1.6457
 IR Inten    --     24.8427                 5.2070                28.4944

                     34                     35                     36
                      A                      A                      A
 Frequencies --   1245.8562              1249.0370              1254.1711
 Red. masses --      1.7033                 1.2432                 1.5897
 Frc consts  --      1.5577                 1.1427                 1.4732
 IR Inten    --     21.0595                 2.4172                30.7923

                     37                     38                     39
                      A                      A                      A
 Frequencies --   1273.3592              1307.7327              1319.5623
 Red. masses --      1.8828                 1.5758                 1.3679
 Frc consts  --      1.7987                 1.5878                 1.4034
 IR Inten    --     21.9721                38.2677                33.1734

                     40                     41                     42
                      A                      A                      A
 Frequencies --   1338.3535              1361.2924              1378.1784
 Red. masses --      1.6217                 1.8667                 1.4357
 Frc consts  --      1.7114                 2.0382                 1.6066
 IR Inten    --     82.0846                63.6077                11.9247

                     43                     44                     45
                      A                      A                      A
 Frequencies --   1393.2426              1404.3807              1413.9378
 Red. masses --      1.4006                 1.4768                 1.5320
 Frc consts  --      1.6018                 1.7161                 1.8045
 IR Inten    --      5.1852                29.9304                95.9042

                     46                     47                     48
                      A                      A                      A
 Frequencies --   1442.3783              1464.4024              1484.2052
 Red. masses --      1.4803                 1.3870                 1.4710
 Frc consts  --      1.8145                 1.7524                 1.9092
 IR Inten    --     31.4363                17.7294                99.4400

                     49                     50                     51
                      A                      A                      A
 Frequencies --   1506.8872              1510.8384              1513.0116
 Red. masses --      1.0990                 1.1055                 1.1016
 Frc consts  --      1.4704                 1.4867                 1.4858
 IR Inten    --      5.2650                 3.0427                 5.8757

                     52                     53                     54
                      A                      A                      A
 Frequencies --   1526.3223              1535.6768              1540.2769
 Red. masses --      1.1057                 1.0695                 1.0882
 Frc consts  --      1.5176                 1.4860                 1.5210
 IR Inten    --      6.1073                 1.6103                17.3201

                     55                     56                     57
                      A                      A                      A
 Frequencies --   1555.6490              1562.8686              1702.4624
 Red. masses --      1.1063                 1.1959                 6.8565
 Frc consts  --      1.5774                 1.7211                11.7087
 IR Inten    --     11.1993                37.6717               373.9429

                     58                     59                     60
                      A                      A                      A
 Frequencies --   2938.7568              2947.0619              2959.8388
 Red. masses --      1.0746                 1.0740                 1.0737
 Frc consts  --      5.4678                 5.4958                 5.5419
 IR Inten    --     19.3615               123.8042                79.2512

                     61                     62                     63
                      A                      A                      A
 Frequencies --   2989.7860              3005.8018              3038.3911
 Red. masses --      1.0731                 1.0551                 1.0828
 Frc consts  --      5.6517                 5.6166                 5.8895
 IR Inten    --     85.7088                83.4808                30.0169

                     64                     65                     66
                      A                      A                      A
 Frequencies --   3050.4548              3053.8669              3062.6339
 Red. masses --      1.0774                 1.0780                 1.0786
 Frc consts  --      5.9068                 5.9235                 5.9606
 IR Inten    --     43.9602                17.7538                49.0498

                     67                     68                     69
                      A                      A                      A
 Frequencies --   3065.3621              3076.9153              3091.0291
 Red. masses --      1.0744                 1.0828                 1.0860
 Frc consts  --      5.9479                 6.0397                 6.1132
 IR Inten    --     71.2085                41.7272                59.2407

                     70                     71                     72
                      A                      A                      A
 Frequencies --   3094.7523              3109.7303              3184.3778
 Red. masses --      1.1059                 1.1062                 1.0962
 Frc consts  --      6.2403                 6.3026                 6.5491
 IR Inten    --     47.6664                35.0578                 5.6583

 - Thermochemistry -
 -------------------
 Temperature   298.150 Kelvin.  Pressure   1.00000 Atm.
 Atom     1 has atomic number  6 and mass  12.00000

 Molecular mass:   153.12660 amu.
 Principal axes and moments of inertia in atomic units:
                           1         2         3
     Eigenvalues --  1034.055851709.249162613.23023
           X            0.99988   0.01532   0.00165
           Y           -0.01532   0.99988  -0.00164
           Z           -0.00168   0.00162   1.00000
 This molecule is an asymmetric top.
 Rotational symmetry number  1.
 Warning -- assumption of classical behavior for rotation
           may cause significant error
 Rotational temperatures (Kelvin)      0.08376     0.05067     0.03314
 Rotational constants (GHZ):           1.74530     1.05587     0.69062
 Zero-point vibrational energy     615903.2 (Joules/Mol)
                                  147.20440 (Kcal/Mol)
 Warning -- explicit consideration of  15 degrees of freedom as
           vibrations may cause significant error
 Vibrational temperatures:    116.69   149.26   202.56   218.27   266.85
          (Kelvin)            349.41   443.93   476.21   479.76   603.53
                              644.74   705.68   716.02   843.98   887.28
                             1018.52  1032.07  1239.99  1282.67  1301.95
                             1318.86  1330.44  1359.05  1447.45  1482.90
                             1545.13  1581.18  1622.52  1633.99  1648.45
                             1682.00  1736.02  1750.61  1792.51  1797.09
                             1804.47  1832.08  1881.54  1898.56  1925.59
                             1958.60  1982.89  2004.57  2020.59  2034.34
                             2075.26  2106.95  2135.44  2168.07  2173.76
                             2176.89  2196.04  2209.50  2216.11  2238.23
                             2248.62  2449.46  4228.22  4240.16  4258.55
                             4301.64  4324.68  4371.57  4388.92  4393.83
                             4406.45  4410.37  4426.99  4447.30  4452.66
                             4474.21  4581.61

 Zero-point correction=                           0.234585 (Hartree/Particle)
 Thermal correction to Energy=                    0.244747
 Thermal correction to Enthalpy=                  0.245692
 Thermal correction to Gibbs Free Energy=         0.199188
 Sum of electronic and zero-point Energies=           -477.897445
 Sum of electronic and thermal Energies=              -477.887283
 Sum of electronic and thermal Enthalpies=            -477.886338
 Sum of electronic and thermal Free Energies=         -477.932842

                     E (Thermal)             CV                S
                      KCal/Mol        Cal/Mol-Kelvin    Cal/Mol-Kelvin
 Total                  153.581             39.281             97.876
 Electronic               0.000              0.000              0.000
 Translational            0.889              2.981             40.988
 Rotational               0.889              2.981             29.914
 Vibrational            151.804             33.319             26.974
 Vibration     1          0.600              1.962              3.864
 Vibration     2          0.605              1.946              3.383
 Vibration     3          0.615              1.913              2.793
 Vibration     4          0.619              1.901              2.651
 Vibration     5          0.632              1.860              2.273
 Vibration     6          0.659              1.775              1.782
 Vibration     7          0.698              1.657              1.370
 Vibration     8          0.713              1.614              1.255
 Vibration     9          0.715              1.609              1.243
 Vibration    10          0.782              1.428              0.894
 Vibration    11          0.807              1.365              0.801
 Vibration    12          0.846              1.271              0.682
 Vibration    13          0.853              1.255              0.664
 Vibration    14          0.944              1.060              0.473
 Vibration    15          0.976              0.997              0.422

                           ! Non-Optimized Parameters !
 Normal termination of Gaussian 16 at Mon Aug 27 13:06:04 2018.
 Gaussian 16:  ES64L-G16RevA.03 25-Dec-2016

 ----------------------------------------------------------------------
 # TD(NStates=10, Root=1) b3lyp/6-31G* volume pop=NPA density=current G
 eom=AllCheck Guess=Read
 ----------------------------------------------------------------------

 Structure from the checkpoint file:  "science_base_33.chk"
 -------------------
 Title Card Required
 -------------------
 Charge =  0 Multiplicity = 1

                         Standard orientation:
 ---------------------------------------------------------------------
 Center     Atomic      Atomic             Coordinates (Angstroms)
 Number     Number       Type             X           Y           Z
 ---------------------------------------------------------------------
      1          6           0        2.015238   -1.504156   -0.302343
      2          6           0        2.343415   -0.102615    0.193455
      3          7           0        1.288877    0.827316   -0.190051
      4          6           0       -0.056899    0.477686   -0.020097
      5          7           0       -0.920037    1.425545    0.107249
      6          6           0       -2.337674    1.115704    0.170920
      7          6           0       -2.698817   -0.265932   -0.381873
      8          6           0       -1.725648   -1.288148    0.193105
      9          7           0       -0.351763   -0.894351   -0.108007
     10          6           0        0.645865   -1.903738    0.226952
     11          6           0        1.621879    2.235852   -0.034049
     12          1           0        2.773815   -2.217651    0.038879
     13          1           0        2.005416   -1.511374   -1.398161
     14          1           0        3.280324    0.251075   -0.251850
     15          1           0        2.497517   -0.116822    1.289467
     16          1           0       -2.886792    1.894111   -0.376110
     17          1           0       -2.675674    1.192985    1.217433
     18          1           0       -2.611792   -0.266536   -1.475429
     19          1           0       -3.730484   -0.539514   -0.129543
     20          1           0       -1.890127   -2.280398   -0.245667
     21          1           0       -1.879950   -1.388604    1.283022
     22          1           0        0.321854   -2.855133   -0.213651
     23          1           0        0.699823   -2.062554    1.320707
     24          1           0        2.615857    2.405067   -0.462127
     25          1           0        1.631607    2.555412    1.020279
     26          1           0        0.884909    2.842455   -0.558010
 ---------------------------------------------------------------------

 SCF Done:  E(RB3LYP) =  -478.132030090     A.U. after    1 cycles

 Excitation energies and oscillator strengths:

 Excited State   1:      Singlet-A      5.9081 eV  209.86 nm  f=0.0319  <S**2>=0.000
      40 -> 43        -0.23759
      41 -> 43         0.60818
      42 -> 43         0.24518
 This state for optimization and/or second-order correction.
 Total Energy, E(TD-HF/TD-DFT) =  -477.914912329
 Copying the excited state density for this state as the 1-particle RhoCI density.

 Excited State   2:      Singlet-A      6.1042 eV  203.11 nm  f=0.1757  <S**2>=0.000
      41 -> 43        -0.23965
      42 -> 43         0.63930
      42 -> 44        -0.12784

 Excited State   3:      Singlet-A      6.4893 eV  191.06 nm  f=0.0498  <S**2>=0.000
      40 -> 43         0.64017
      41 -> 43         0.25183
      41 -> 44        -0.10791

 Excited State   4:      Singlet-A      6.8752 eV  180.33 nm  f=0.0823  <S**2>=0.000
      42 -> 43         0.11868
      42 -> 44         0.68220

 Excited State   5:      Singlet-A      7.1589 eV  173.19 nm  f=0.0456  <S**2>=0.000
      40 -> 43        -0.10980
      41 -> 44        -0.46317
      42 -> 45         0.49643

 Excited State   6:      Singlet-A      7.2695 eV  170.55 nm  f=0.0178  <S**2>=0.000
      41 -> 44         0.48940
      42 -> 45         0.48553
      42 -> 46         0.10791

 Excited State   7:      Singlet-A      7.5911 eV  163.33 nm  f=0.0190  <S**2>=0.000
      40 -> 44         0.17974
      41 -> 44        -0.13004
      41 -> 45         0.36260
      42 -> 46         0.55336

 Excited State   8:      Singlet-A      7.7276 eV  160.44 nm  f=0.0200  <S**2>=0.000
      41 -> 45         0.56760
      42 -> 46        -0.38771

 Excited State   9:      Singlet-A      7.8080 eV  158.79 nm  f=0.0228  <S**2>=0.000
      40 -> 44         0.64602
      40 -> 45        -0.10228
      41 -> 45        -0.16404
      42 -> 46        -0.10558

 Excited State  10:      Singlet-A      7.8802 eV  157.34 nm  f=0.0232  <S**2>=0.000
      42 -> 47         0.68899

 The electronic state is 1-A.
 Alpha  occ. eigenvalues --  -14.34135 -14.33598 -14.27007 -10.26220 -10.22068
 Alpha  occ. eigenvalues --  -10.21721 -10.21366 -10.19226 -10.19106 -10.19102
 Alpha  occ. eigenvalues --  -10.17642  -0.97827  -0.90517  -0.86592  -0.77773
 Alpha  occ. eigenvalues --   -0.76814  -0.69972  -0.66362  -0.65225  -0.62268
 Alpha  occ. eigenvalues --   -0.57288  -0.51977  -0.50067  -0.49041  -0.46836
 Alpha  occ. eigenvalues --   -0.45546  -0.44250  -0.43228  -0.42196  -0.40949
 Alpha  occ. eigenvalues --   -0.40462  -0.38772  -0.38316  -0.36395  -0.35673
 Alpha  occ. eigenvalues --   -0.34630  -0.34139  -0.32488  -0.31277  -0.22949
 Alpha  occ. eigenvalues --   -0.20883  -0.19131
 Alpha virt. eigenvalues --    0.05048   0.08919   0.10480   0.11982   0.12865
 Alpha virt. eigenvalues --    0.13824   0.14215   0.15618   0.16367   0.16759
 Alpha virt. eigenvalues --    0.17153   0.17895   0.17974   0.18670   0.19151

 Mulliken charges:
               1
     1  C   -0.262569
     2  C   -0.104712
     3  N   -0.448356
     4  C    0.668147
     5  N   -0.482865
     6  C   -0.120766
     7  C   -0.291925
     8  C   -0.112230
     9  N   -0.419017
    10  C   -0.106864
    11  C   -0.288414
    12  H    0.129220
    13  H    0.139861
    14  H    0.129136
    15  H    0.079613
    16  H    0.154210
    17  H    0.110568
    18  H    0.153835
    19  H    0.148716
    20  H    0.150615
    21  H    0.107208
    22  H    0.136744
    23  H    0.088120
    24  H    0.142953
    25  H    0.129847
    26  H    0.168928
 Sum of Mulliken charges =  -0.00000

 Dipole moment (field-independent basis, Debye):
    X=             -0.6876    Y=             -1.2669    Z=             -0.5872  Tot=              1.5565
 Quadrupole moment (field-independent basis, Debye-Ang):
   XX=            -61.9266   YY=            -65.7386   ZZ=            -71.6191
   XY=              1.6372   XZ=              0.5450   YZ=             -0.3380

 Summary of Natural Population Analysis:

                                       Natural Population
                Natural  -----------------------------------------------
    Atom  No    Charge         Core      Valence    Rydberg      Total
 -----------------------------------------------------------------------
      C    1   -0.47873      1.99931     4.46685    0.01258     6.47873
      C    2   -0.25291      1.99932     4.23642    0.01716     6.25291
      N    3   -0.46929      1.99937     5.45514    0.01479     7.46929
      C    4    0.39844      1.99923     3.56552    0.03681     5.60156
      N    5   -0.37076      1.99903     5.35515    0.01658     7.37076
      C    6   -0.28779      1.99930     4.27100    0.01749     6.28779
      C    7   -0.47959      1.99928     4.46829    0.01202     6.47959
      C    8   -0.25483      1.99933     4.23980    0.01570     6.25483
      N    9   -0.39631      1.99936     5.38169    0.01526     7.39631
      C   10   -0.25751      1.99931     4.24108    0.01712     6.25751
      C   11   -0.45818      1.99948     4.44601    0.01269     6.45818
      H   12    0.23980      0.00000     0.75524    0.00496     0.76020
      H   13    0.23284      0.00000     0.76084    0.00632     0.76716
      H   14    0.22887      0.00000     0.76733    0.00380     0.77113
      H   15    0.17071      0.00000     0.80978    0.01951     0.82929
      H   16    0.24907      0.00000     0.74941    0.00152     0.75093
      H   17    0.18969      0.00000     0.79625    0.01406     0.81031
      H   18    0.23888      0.00000     0.75632    0.00481     0.76112
      H   19    0.25135      0.00000     0.74498    0.00367     0.74865
      H   20    0.24516      0.00000     0.75208    0.00276     0.75484
      H   21    0.18922      0.00000     0.79164    0.01915     0.81078
      H   22    0.23388      0.00000     0.76053    0.00559     0.76612
      H   23    0.17821      0.00000     0.79846    0.02333     0.82179
      H   24    0.22222      0.00000     0.77652    0.00126     0.77778
      H   25    0.19737      0.00000     0.79602    0.00660     0.80263
      H   26    0.24020      0.00000     0.75879    0.00101     0.75980
 =======================================================================
   * Total *    0.00000     21.99231    61.70113    0.30656    84.00000

 Normal termination of Gaussian 16 at Mon Aug 27 13:10:58 2018.
