 Gaussian 16, Revision A.03,

 --------------------------------------------
 # opt=CalcFc guess=mix UB3LYP/genecp scf=xqc
 --------------------------------------------

 -------------------
 Title Card Required
 -------------------
 Symbolic Z-matrix:
 Charge =  0 Multiplicity = 1

 SCF Done:  E(UB3LYP) =  -2263.85324919     A.U. after   30 cycles
 SCF Done:  E(UB3LYP) =  -2263.85324924     A.U. after    9 cycles
 Optimization completed.
    -- Stationary point found.
 Normal termination of Gaussian 16 at Thu Jan 10 09:12:25 2019.

 ----------------------------------------------------------------------
 # freq guess=mix UB3LYP/genecp volume NMR pop=NPA density=current Geom
 =AllCheck Guess=Read
 ----------------------------------------------------------------------

 Structure from the checkpoint file:  "Ni_Ar_I_ligand_272.chk"
 -------------------
 Title Card Required
 -------------------
 Charge =  0 Multiplicity = 1

 SCF Done:  E(UB3LYP) =  -2263.85324924     A.U. after   25 cycles

      1  N    Isotropic =    21.8099   Anisotropy =   376.6957

      2  C    Isotropic =    50.0688   Anisotropy =   114.7845

      3  N    Isotropic =    32.4966   Anisotropy =   106.8702

      4  N    Isotropic =     0.7711   Anisotropy =   219.2028

      5  C    Isotropic =    51.5601   Anisotropy =   141.0189

      6  C    Isotropic =    84.6356   Anisotropy =   116.8604

      7  C    Isotropic =    72.5202   Anisotropy =   114.5309

      8  C    Isotropic =    89.2508   Anisotropy =   135.0266

      9  C    Isotropic =    58.8481   Anisotropy =   185.6797

     10  C    Isotropic =    75.0615   Anisotropy =   157.7211

     11  C    Isotropic =    40.6769   Anisotropy =   177.8258

     12  H    Isotropic =    25.9859   Anisotropy =    11.7444

     13  H    Isotropic =    26.0237   Anisotropy =     2.5991

     14  H    Isotropic =    24.5967   Anisotropy =     4.2274

     15  H    Isotropic =    25.2904   Anisotropy =     7.2635

     16  H    Isotropic =    24.5400   Anisotropy =     4.6463

     17  H    Isotropic =    24.9972   Anisotropy =     5.1630

     18  H    Isotropic =    22.2324   Anisotropy =    14.0223

     19  Ni   Isotropic = -6198.0284   Anisotropy =  3941.1408

     20  C    Isotropic =    37.0549   Anisotropy =   221.3846

     21  C    Isotropic =    57.3435   Anisotropy =   161.5285

     22  C    Isotropic =    57.3369   Anisotropy =   161.5394

     23  C    Isotropic =    68.7959   Anisotropy =   144.1525

     24  H    Isotropic =    24.4787   Anisotropy =     6.2015

     25  C    Isotropic =    68.7976   Anisotropy =   144.1527

     26  H    Isotropic =    24.4786   Anisotropy =     6.2037

     27  C    Isotropic =    66.2765   Anisotropy =   168.4180

     28  H    Isotropic =    25.3699   Anisotropy =     6.9308

     29  H    Isotropic =    25.3700   Anisotropy =     6.9312

     30  I    Isotropic =    61.0180   Anisotropy =     6.9318

     31  C    Isotropic =   168.5087   Anisotropy =    34.0335

     32  H    Isotropic =    29.7789   Anisotropy =     8.2817

     33  H    Isotropic =    30.3172   Anisotropy =     7.1881

     34  H    Isotropic =    30.3174   Anisotropy =     7.1879

  Exact polarizability: 340.537  -9.375 249.717  -0.006  -0.010 132.310
 Approx polarizability: 464.824 -20.646 405.975  -0.014  -0.028 230.698

                      1                      2                      3
                      A                      A                      A
 Frequencies --     11.8354                23.2496                38.2770
 Red. masses --      5.6501                 3.7788                 5.1338
 Frc consts  --      0.0005                 0.0012                 0.0044
 IR Inten    --      0.2828                 0.1075                 1.0237

                      4                      5                      6
                      A                      A                      A
 Frequencies --     41.4529                45.9621                87.5892
 Red. masses --      1.1128                 3.9781                 4.5304
 Frc consts  --      0.0011                 0.0050                 0.0205
 IR Inten    --      0.4149                 0.0366                 1.4053

                      7                      8                      9
                      A                      A                      A
 Frequencies --     99.2731               113.4772               129.7565
 Red. masses --     11.5356                 4.4593                 9.5076
 Frc consts  --      0.0670                 0.0338                 0.0943
 IR Inten    --      0.1709                 0.0505                 6.1620

                     10                     11                     12
                      A                      A                      A
 Frequencies --    151.1960               161.6734               170.5032
 Red. masses --      4.8370                 5.5242                 6.2819
 Frc consts  --      0.0651                 0.0851                 0.1076
 IR Inten    --      0.1639                 5.8105                 0.9495

                     13                     14                     15
                      A                      A                      A
 Frequencies --    235.6084               256.8763               268.7914
 Red. masses --      8.5539                 5.1536                 5.2286
 Frc consts  --      0.2798                 0.2004                 0.2226
 IR Inten    --      1.6561                 0.1888                 0.1201

                     16                     17                     18
                      A                      A                      A
 Frequencies --    297.3493               335.6105               351.9488
 Red. masses --      5.0086                11.4479                 2.6922
 Frc consts  --      0.2609                 0.7597                 0.1965
 IR Inten    --      4.6762                 3.8422                 0.0000

                     19                     20                     21
                      A                      A                      A
 Frequencies --    374.8527               405.8554               434.8817
 Red. masses --      8.9185                 2.9094                 7.4262
 Frc consts  --      0.7384                 0.2824                 0.8275
 IR Inten    --      2.5764                 0.0044                 0.9798

                     22                     23                     24
                      A                      A                      A
 Frequencies --    438.1268               514.9842               518.0682
 Red. masses --      3.7679                 3.8903                 3.3568
 Frc consts  --      0.4261                 0.6079                 0.5308
 IR Inten    --      2.2023                 3.3162                 2.3807

                     25                     26                     27
                      A                      A                      A
 Frequencies --    534.3725               595.1485               602.9474
 Red. masses --      3.8207                 5.1879                 3.2766
 Frc consts  --      0.6428                 1.0827                 0.7018
 IR Inten    --      3.0244                 0.2667                 2.3335

                     28                     29                     30
                      A                      A                      A
 Frequencies --    642.6560               648.3242               651.5295
 Red. masses --      5.3057                 6.9795                 7.1409
 Frc consts  --      1.2911                 1.7285                 1.7860
 IR Inten    --      2.8832                 0.0073                 0.6750

                     31                     32                     33
                      A                      A                      A
 Frequencies --    724.6754               735.0561               736.7536
 Red. masses --      4.0635                 6.5033                 2.5050
 Frc consts  --      1.2573                 2.0703                 0.8011
 IR Inten    --      0.5724                 5.3552                 9.2688

                     34                     35                     36
                      A                      A                      A
 Frequencies --    739.0657               780.8712               805.0335
 Red. masses --      1.6727                 1.3032                 1.7937
 Frc consts  --      0.5383                 0.4682                 0.6849
 IR Inten    --     18.6474                65.8224                26.4826

                     37                     38                     39
                      A                      A                      A
 Frequencies --    810.4374               841.1081               849.4199
 Red. masses --      2.7337                 1.2540                 1.2590
 Frc consts  --      1.0579                 0.5227                 0.5352
 IR Inten    --     12.5474                 5.3233                 0.4744

                     40                     41                     42
                      A                      A                      A
 Frequencies --    881.0827               899.7697               929.3979
 Red. masses --      1.3042                 1.3463                 5.5964
 Frc consts  --      0.5965                 0.6422                 2.8482
 IR Inten    --      0.0323                 0.5737                 7.9419

                     43                     44                     45
                      A                      A                      A
 Frequencies --    952.6190               957.8160               980.7786
 Red. masses --      1.2464                 1.3660                 3.5878
 Frc consts  --      0.6664                 0.7383                 2.0334
 IR Inten    --      0.4149                 0.0051                23.7334

                     46                     47                     48
                      A                      A                      A
 Frequencies --    995.9241              1014.1559              1017.7705
 Red. masses --      1.3240                 1.4280                 1.3323
 Frc consts  --      0.7737                 0.8653                 0.8131
 IR Inten    --      0.2062                 0.1463                 0.0388

                     49                     50                     51
                      A                      A                      A
 Frequencies --   1028.3739              1032.7706              1064.3281
 Red. masses --      7.1770                 3.6370                 2.7077
 Frc consts  --      4.4719                 2.2856                 1.8072
 IR Inten    --      0.6912                15.8053                19.0305

                     52                     53                     54
                      A                      A                      A
 Frequencies --   1074.2750              1084.5414              1091.3063
 Red. masses --      1.5059                 1.7172                 1.6300
 Frc consts  --      1.0239                 1.1900                 1.1438
 IR Inten    --     15.9445                23.4377                12.4618

                     55                     56                     57
                      A                      A                      A
 Frequencies --   1103.6578              1137.5810              1139.3377
 Red. masses --      3.5657                 1.6858                 1.3784
 Frc consts  --      2.5589                 1.2854                 1.0542
 IR Inten    --      7.3173                 5.9174                 3.8574

                     58                     59                     60
                      A                      A                      A
 Frequencies --   1165.4487              1193.5041              1218.4512
 Red. masses --      2.2779                 1.1416                 1.1325
 Frc consts  --      1.8229                 0.9581                 0.9906
 IR Inten    --     13.7004                 9.1999                 0.3467

                     61                     62                     63
                      A                      A                      A
 Frequencies --   1239.6832              1248.1388              1304.9235
 Red. masses --      2.8926                 1.5684                 2.4186
 Frc consts  --      2.6191                 1.4395                 2.4266
 IR Inten    --     12.7763                10.0275                 0.4846

                     64                     65                     66
                      A                      A                      A
 Frequencies --   1305.2442              1324.1857              1341.9929
 Red. masses --      3.4881                 5.0751                 1.6529
 Frc consts  --      3.5013                 5.2432                 1.7538
 IR Inten    --      3.1448                 3.7791                 0.0156

                     67                     68                     69
                      A                      A                      A
 Frequencies --   1363.3510              1394.4316              1426.7729
 Red. masses --      1.8973                 3.2919                 2.4069
 Frc consts  --      2.0778                 3.7714                 2.8869
 IR Inten    --     29.2724                 8.7423                 2.2052

                     70                     71                     72
                      A                      A                      A
 Frequencies --   1441.9037              1464.2948              1486.4948
 Red. masses --      1.2481                 4.5086                 2.9496
 Frc consts  --      1.5288                 5.6957                 3.8401
 IR Inten    --      1.7648                59.8777                 0.6933

                     73                     74                     75
                      A                      A                      A
 Frequencies --   1493.1761              1517.9289              1522.3717
 Red. masses --      2.4983                 1.0482                 1.1005
 Frc consts  --      3.2818                 1.4230                 1.5027
 IR Inten    --     35.4059                 3.9839                 6.3531

                     76                     77                     78
                      A                      A                      A
 Frequencies --   1535.6245              1539.8241              1570.4879
 Red. masses --      2.3102                 3.6776                 4.2972
 Frc consts  --      3.2098                 5.1376                 6.2446
 IR Inten    --     43.1715               200.4561                16.0334

                     79                     80                     81
                      A                      A                      A
 Frequencies --   1606.6966              1628.5914              1648.2916
 Red. masses --      4.8957                 5.6350                 5.4969
 Frc consts  --      7.4462                 8.8058                 8.7990
 IR Inten    --      0.7680                11.9951                13.0060

                     82                     83                     84
                      A                      A                      A
 Frequencies --   1665.1373              3033.5550              3086.9604
 Red. masses --      5.9274                 1.0398                 1.0963
 Frc consts  --      9.6832                 5.6375                 6.1554
 IR Inten    --     48.4541                60.2631                25.0131

                     85                     86                     87
                      A                      A                      A
 Frequencies --   3111.9682              3153.4541              3154.1570
 Red. masses --      1.1023                 1.0853                 1.0855
 Frc consts  --      6.2896                 6.3587                 6.3626
 IR Inten    --     21.0276                32.2320                 2.5729

                     88                     89                     90
                      A                      A                      A
 Frequencies --   3172.1269              3174.7439              3211.1927
 Red. masses --      1.0931                 1.0939                 1.0900
 Frc consts  --      6.4808                 6.4957                 6.6225
 IR Inten    --     61.4657                 9.0320                26.8044

                     91                     92                     93
                      A                      A                      A
 Frequencies --   3216.0188              3233.4146              3238.1291
 Red. masses --      1.0920                 1.0927                 1.0975
 Frc consts  --      6.6542                 6.7310                 6.7804
 IR Inten    --      9.2562                 4.7412                 9.0040

                     94                     95                     96
                      A                      A                      A
 Frequencies --   3290.8669              3307.7997              3318.6624
 Red. masses --      1.0912                 1.1015                 1.1014
 Frc consts  --      6.9630                 7.1007                 7.1469
 IR Inten    --      0.7796                 1.0371                 3.4589

 - Thermochemistry -
 -------------------
 Temperature   298.150 Kelvin.  Pressure   1.00000 Atm.
 Atom     1 has atomic number  7 and mass  14.00307

 Molecular mass:   420.95452 amu.
 Principal axes and moments of inertia in atomic units:
                           1         2         3
     Eigenvalues --  6009.217989345.82676**********
           X            0.99956  -0.02952  -0.00000
           Y            0.02952   0.99956  -0.00000
           Z            0.00000   0.00000   1.00000
 This molecule is an asymmetric top.
 Rotational symmetry number  1.
 Warning -- assumption of classical behavior for rotation
           may cause significant error
 Rotational temperatures (Kelvin)      0.01441     0.00927     0.00588
 Rotational constants (GHZ):           0.30033     0.19311     0.12261
 Zero-point vibrational energy     687494.4 (Joules/Mol)
                                  164.31510 (Kcal/Mol)
 Warning -- explicit consideration of  27 degrees of freedom as
           vibrations may cause significant error
 Vibrational temperatures:     17.03    33.45    55.07    59.64    66.13
          (Kelvin)            126.02   142.83   163.27   186.69   217.54
                              232.61   245.32   338.99   369.59   386.73
                              427.82   482.87   506.38   539.33   583.94
                              625.70   630.37   740.95   745.38   768.84
                              856.29   867.51   924.64   932.79   937.41
                             1042.65  1057.58  1060.02  1063.35  1123.50
                             1158.26  1166.04  1210.17  1222.13  1267.68
                             1294.57  1337.20  1370.61  1378.08  1411.12
                             1432.91  1459.14  1464.34  1479.60  1485.93
                             1531.33  1545.64  1560.41  1570.15  1587.92
                             1636.73  1639.25  1676.82  1717.19  1753.08
                             1783.63  1795.79  1877.49  1877.96  1905.21
                             1930.83  1961.56  2006.28  2052.81  2074.58
                             2106.79  2138.73  2148.35  2183.96  2190.35
                             2209.42  2215.46  2259.58  2311.68  2343.18
                             2371.52  2395.76  4364.61  4441.45  4477.43
                             4537.12  4538.13  4563.98  4567.75  4620.19
                             4627.13  4652.16  4658.95  4734.82  4759.19
                             4774.82

 Zero-point correction=                           0.261853 (Hartree/Particle)
 Thermal correction to Energy=                    0.280556
 Thermal correction to Enthalpy=                  0.281500
 Thermal correction to Gibbs Free Energy=         0.210151
 Sum of electronic and zero-point Energies=          -2263.591396
 Sum of electronic and thermal Energies=             -2263.572693
 Sum of electronic and thermal Enthalpies=           -2263.571749
 Sum of electronic and thermal Free Energies=        -2263.643098

                     E (Thermal)             CV                S
                      KCal/Mol        Cal/Mol-Kelvin    Cal/Mol-Kelvin
 Total                  176.052             69.066            150.166
 Electronic               0.000              0.000              0.000
 Translational            0.889              2.981             44.002
 Rotational               0.889              2.981             35.068
 Vibrational            174.274             63.104             71.096
 Vibration     1          0.593              1.987              7.676
 Vibration     2          0.593              1.985              6.335
 Vibration     3          0.594              1.982              5.346
 Vibration     4          0.594              1.981              5.188
 Vibration     5          0.595              1.979              4.984
 Vibration     6          0.601              1.958              3.713
 Vibration     7          0.604              1.950              3.469
 Vibration     8          0.607              1.938              3.209
 Vibration     9          0.612              1.924              2.950
 Vibration    10          0.619              1.901              2.657
 Vibration    11          0.622              1.889              2.530
 Vibration    12          0.626              1.879              2.430
 Vibration    13          0.655              1.786              1.836
 Vibration    14          0.666              1.751              1.683
 Vibration    15          0.673              1.731              1.604
 Vibration    16          0.691              1.679              1.432
 Vibration    17          0.717              1.604              1.233
 Vibration    18          0.728              1.571              1.157
 Vibration    19          0.746              1.524              1.060
 Vibration    20          0.771              1.457              0.941
 Vibration    21          0.795              1.394              0.843
 Vibration    22          0.798              1.387              0.833
 Vibration    23          0.870              1.217              0.622
 Vibration    24          0.873              1.210              0.614
 Vibration    25          0.889              1.174              0.578
 Vibration    26          0.953              1.042              0.458
 Vibration    27          0.961              1.026              0.445

 Optimization completed.
    -- Stationary point found.
 Normal termination of Gaussian 16 at Thu Jan 10 09:32:32 2019.
 Gaussian 16:  ES64L-G16RevA.03 25-Dec-2016

 ----------------------------------------------------------------------
 # TD(NStates=10, Root=1) guess=mix UB3LYP/genecp volume pop=NPA densit
 y=current Geom=AllCheck Guess=Read
 ----------------------------------------------------------------------

 Structure from the checkpoint file:  "Ni_Ar_I_ligand_273.chk"
 -------------------
 Title Card Required
 -------------------
 Charge =  0 Multiplicity = 1

                         Standard orientation:
 ---------------------------------------------------------------------
 Center     Atomic      Atomic             Coordinates (Angstroms)
 Number     Number       Type             X           Y           Z
 ---------------------------------------------------------------------
      1          7           0        2.196928   -0.026555   -0.000016
      2          6           0        2.717182    1.217653    0.000006
      3          7           0        1.739721    2.219130    0.000093
      4          7           0        0.437562    1.796389    0.000094
      5          6           0       -0.303776    2.904955    0.000241
      6          6           0        0.518590    4.052481    0.000328
      7          6           0        1.812941    3.583967    0.000234
      8          6           0        4.082914    1.493352   -0.000045
      9          6           0        4.960317    0.413138   -0.000116
     10          6           0        4.443494   -0.882925   -0.000128
     11          6           0        3.064350   -1.057878   -0.000077
     12          1           0       -1.379176    2.821412    0.000256
     13          1           0        0.200862    5.084234    0.000448
     14          1           0        2.760161    4.100672    0.000260
     15          1           0        4.446881    2.514140   -0.000032
     16          1           0        6.032163    0.586154   -0.000159
     17          1           0        5.093305   -1.750951   -0.000176
     18          1           0        2.603341   -2.040312   -0.000080
     19         28           0        0.189575   -0.035756    0.000008
     20          6           0       -1.664295    0.199141   -0.000024
     21          6           0       -2.380423    0.353079   -1.196776
     22          6           0       -2.380719    0.351867    1.196706
     23          6           0       -3.747607    0.644369   -1.197550
     24          1           0       -1.875375    0.236620   -2.154163
     25          6           0       -3.747895    0.643178    1.197430
     26          1           0       -1.875919    0.234386    2.154095
     27          6           0       -4.458462    0.792903   -0.000073
     28          1           0       -4.271144    0.753969   -2.146432
     29          1           0       -4.271664    0.751833    2.146292
     30         53           0       -0.116888   -2.609479   -0.000030
     31          6           0       -5.945004    1.069626   -0.000113
     32          1           0       -6.527537    0.137947   -0.000567
     33          1           0       -6.249127    1.638246    0.886288
     34          1           0       -6.248939    1.638993   -0.886099
 ---------------------------------------------------------------------

 SCF Done:  E(UB3LYP) =  -2263.85324924     A.U. after   25 cycles

 Excitation energies and oscillator strengths:

 Excited State   1:  3.000-A      0.9205 eV 1346.94 nm  f=0.0000  <S**2>=2.000
     77A -> 83A        0.28175
     78A -> 83A       -0.65072
     80A -> 83A       -0.17616
     77B -> 83B       -0.28175
     78B -> 83B        0.65072
     80B -> 83B        0.17616
     78A <- 83A       -0.19222
     78B <- 83B        0.19222
 This state for optimization and/or second-order correction.
 Total Energy, E(TD-HF/TD-DFT) =  -2263.81942199
 Copying the excited state density for this state as the 1-particle RhoCI density.

 Excited State   2:  3.000-A      1.0139 eV 1222.86 nm  f=0.0000  <S**2>=2.000
     74A -> 83A        0.39309
     76A -> 83A       -0.24212
     79A -> 83A        0.55290
     74B -> 83B       -0.39309
     76B -> 83B        0.24212
     79B -> 83B       -0.55290
     74A <- 83A        0.10969
     79A <- 83A        0.13760
     74B <- 83B       -0.10969
     79B <- 83B       -0.13760

 Excited State   3:  3.000-A      1.3488 eV  919.20 nm  f=0.0000  <S**2>=2.000
     75A -> 83A        0.69084
     76A -> 83A        0.14645
     79A -> 83A        0.10075
     75B -> 83B       -0.69084
     76B -> 83B       -0.14645
     79B -> 83B       -0.10075
     75A <- 83A        0.14739
     75B <- 83B       -0.14739

 Excited State   4:  3.000-A      1.7620 eV  703.66 nm  f=0.0000  <S**2>=2.000
     74A -> 81A        0.21498
     75A -> 81A        0.12575
     79A -> 81A        0.64351
     74B -> 81B       -0.21498
     75B -> 81B       -0.12575
     79B -> 81B       -0.64351

 Excited State   5:  3.000-A      1.9127 eV  648.21 nm  f=0.0000  <S**2>=2.000
     77A -> 81A       -0.23309
     78A -> 81A        0.60065
     80A -> 81A        0.27664
     77B -> 81B        0.23309
     78B -> 81B       -0.60065
     80B -> 81B       -0.27664

 Excited State   6:  3.000-A      1.9521 eV  635.15 nm  f=0.0000  <S**2>=2.000
     71A -> 83A       -0.47412
     73A -> 83A        0.12558
     77A -> 83A       -0.45409
     78A -> 83A       -0.19999
     71B -> 83B        0.47412
     73B -> 83B       -0.12558
     77B -> 83B        0.45409
     78B -> 83B        0.19999

 Excited State   7:  1.000-A      2.0127 eV  616.02 nm  f=0.0005  <S**2>=0.000
     77A -> 81A       -0.20870
     78A -> 81A        0.58303
     80A -> 81A        0.30418
     77B -> 81B       -0.20870
     78B -> 81B        0.58303
     80B -> 81B        0.30418

 Excited State   8:  1.000-A      2.0827 eV  595.31 nm  f=0.0181  <S**2>=0.000
     74A -> 81A        0.13019
     75A -> 81A       -0.16247
     76A -> 81A       -0.13010
     77A -> 83A       -0.15032
     78A -> 83A        0.33815
     79A -> 81A        0.53951
     74B -> 81B        0.13019
     75B -> 81B       -0.16247
     76B -> 81B       -0.13010
     77B -> 83B       -0.15032
     78B -> 83B        0.33815
     79B -> 81B        0.53951

 Excited State   9:  1.000-A      2.1858 eV  567.24 nm  f=0.0000  <S**2>=0.000
     74A -> 83A        0.29346
     76A -> 83A       -0.18178
     79A -> 83A        0.48684
     80A -> 81A        0.35375
     74B -> 83B        0.29346
     76B -> 83B       -0.18178
     79B -> 83B        0.48684
     80B -> 81B        0.35375

 Excited State  10:  3.000-A      2.2388 eV  553.81 nm  f=0.0000  <S**2>=2.000
     77A -> 81A        0.13475
     78A -> 81A       -0.24368
     80A -> 81A        0.64643
     77B -> 81B       -0.13475
     78B -> 81B        0.24368
     80B -> 81B       -0.64643

 The electronic state is 1-A.
 Alpha  occ. eigenvalues -- -299.81812 -35.77280 -31.21343 -31.20557 -31.18227
 Alpha  occ. eigenvalues --  -14.46350 -14.42037 -14.40020 -10.31578 -10.26641
 Alpha  occ. eigenvalues --  -10.25590 -10.24613 -10.24468 -10.24271 -10.22786
 Alpha  occ. eigenvalues --  -10.22098 -10.16163 -10.15659 -10.15265 -10.15264
 Alpha  occ. eigenvalues --  -10.14937 -10.14933 -10.14374  -3.98201  -2.58941
 Alpha  occ. eigenvalues --   -2.58065  -2.53721  -1.11187  -1.00269  -0.89573
 Alpha  occ. eigenvalues --   -0.85572  -0.83636  -0.81990  -0.78849  -0.73709
 Alpha  occ. eigenvalues --   -0.70957  -0.69744  -0.68997  -0.65354  -0.63853
 Alpha  occ. eigenvalues --   -0.62401  -0.60582  -0.59194  -0.57139  -0.54642
 Alpha  occ. eigenvalues --   -0.54559  -0.52921  -0.51525  -0.50767  -0.47816
 Alpha  occ. eigenvalues --   -0.47486  -0.46668  -0.45606  -0.44572  -0.44135
 Alpha  occ. eigenvalues --   -0.42706  -0.42251  -0.41853  -0.41260  -0.39670
 Alpha  occ. eigenvalues --   -0.38476  -0.37010  -0.36227  -0.34642  -0.34327
 Alpha  occ. eigenvalues --   -0.33883  -0.32621  -0.30996  -0.30643  -0.27356
 Alpha  occ. eigenvalues --   -0.27049  -0.25882  -0.24771  -0.22455  -0.21977
 Alpha  occ. eigenvalues --   -0.21713  -0.20302  -0.19944  -0.19111  -0.18895
 Alpha virt. eigenvalues --   -0.08443  -0.06277  -0.02222  -0.00751   0.02445
 Alpha virt. eigenvalues --    0.03507   0.03510   0.04677   0.05371   0.05988
 Alpha virt. eigenvalues --    0.08318   0.10328   0.10835   0.10943   0.11566

  Beta  occ. eigenvalues -- -299.81812 -35.77280 -31.21343 -31.20557 -31.18227
  Beta  occ. eigenvalues --  -14.46350 -14.42037 -14.40020 -10.31578 -10.26641
  Beta  occ. eigenvalues --  -10.25590 -10.24613 -10.24468 -10.24271 -10.22786
  Beta  occ. eigenvalues --  -10.22098 -10.16163 -10.15659 -10.15265 -10.15264
  Beta  occ. eigenvalues --  -10.14937 -10.14933 -10.14374  -3.98201  -2.58941
  Beta  occ. eigenvalues --   -2.58065  -2.53721  -1.11187  -1.00269  -0.89573
  Beta  occ. eigenvalues --   -0.85572  -0.83636  -0.81990  -0.78849  -0.73709
  Beta  occ. eigenvalues --   -0.70957  -0.69744  -0.68997  -0.65354  -0.63853
  Beta  occ. eigenvalues --   -0.62401  -0.60582  -0.59194  -0.57139  -0.54642
  Beta  occ. eigenvalues --   -0.54559  -0.52921  -0.51525  -0.50767  -0.47816
  Beta  occ. eigenvalues --   -0.47486  -0.46668  -0.45606  -0.44572  -0.44135
  Beta  occ. eigenvalues --   -0.42706  -0.42251  -0.41853  -0.41260  -0.39670
  Beta  occ. eigenvalues --   -0.38476  -0.37010  -0.36227  -0.34642  -0.34327
  Beta  occ. eigenvalues --   -0.33883  -0.32621  -0.30996  -0.30643  -0.27356
  Beta  occ. eigenvalues --   -0.27049  -0.25882  -0.24771  -0.22455  -0.21977
  Beta  occ. eigenvalues --   -0.21713  -0.20302  -0.19944  -0.19111  -0.18895
  Beta virt. eigenvalues --   -0.08443  -0.06277  -0.02222  -0.00751   0.02445
  Beta virt. eigenvalues --    0.03507   0.03510   0.04677   0.05371   0.05988
  Beta virt. eigenvalues --    0.08318   0.10328   0.10835   0.10943   0.11566

 Mulliken charges and spin densities:
               1          2
     1  N   -0.535898   0.000000
     2  C    0.539898  -0.000000
     3  N   -0.313485  -0.000000
     4  N   -0.341557  -0.000000
     5  C    0.079353   0.000000
     6  C   -0.245938  -0.000000
     7  C    0.078572   0.000000
     8  C   -0.170504   0.000000
     9  C   -0.096957  -0.000000
    10  C   -0.146299   0.000000
    11  C    0.067505  -0.000000
    12  H    0.231821  -0.000000
    13  H    0.174453   0.000000
    14  H    0.189831  -0.000000
    15  H    0.163540  -0.000000
    16  H    0.172236   0.000000
    17  H    0.173627  -0.000000
    18  H    0.206339   0.000000
    19  Ni   0.672494   0.000000
    20  C   -0.195574  -0.000000
    21  C   -0.176830   0.000000
    22  C   -0.176792   0.000000
    23  C   -0.167834  -0.000000
    24  H    0.098530  -0.000000
    25  C   -0.167832  -0.000000
    26  H    0.098560   0.000000
    27  C    0.161188   0.000000
    28  H    0.092876   0.000000
    29  H    0.092882   0.000000
    30  I   -0.474265  -0.000000
    31  C   -0.524248  -0.000000
    32  H    0.158423   0.000000
    33  H    0.140944   0.000000
    34  H    0.140939   0.000000
 Sum of Mulliken charges =  -0.00000  -0.00000

 Dipole moment (field-independent basis, Debye):
    X=             10.9890    Y=             10.6248    Z=              0.0006  Tot=             15.2854
 Quadrupole moment (field-independent basis, Debye-Ang):
   XX=           -106.9610   YY=           -133.7435   ZZ=           -139.2733
   XY=              4.1866   XZ=             -0.0020   YZ=             -0.0003

 Summary of Natural Population Analysis:

                                       Natural Population
                Natural  -----------------------------------------------
    Atom  No    Charge         Core      Valence    Rydberg      Total
 -----------------------------------------------------------------------
      N    1   -0.28044      0.99962     2.76949    0.01133     3.78044
      C    2    0.20419      0.99944     1.78415    0.01222     2.79581
      N    3   -0.08868      0.99951     2.58145    0.00771     3.58868
      N    4   -0.19595      0.99962     2.68132    0.01501     3.69595
      C    5    0.02595      0.99954     1.96345    0.01106     2.97405
      C    6   -0.16199      0.99947     2.15596    0.00656     3.16199
      C    7   -0.00159      0.99952     1.99332    0.00875     3.00159
      C    8   -0.14116      0.99943     2.13576    0.00597     3.14116
      C    9   -0.08025      0.99948     2.07363    0.00714     3.08025
      C   10   -0.13643      0.99947     2.13026    0.00670     3.13643
      C   11    0.04576      0.99951     1.94329    0.01144     2.95424
      H   12    0.14109      0.00000     0.35841    0.00050     0.35891
      H   13    0.13240      0.00000     0.36737    0.00023     0.36760
      H   14    0.12430      0.00000     0.37538    0.00032     0.37570
      H   15    0.12559      0.00000     0.37394    0.00047     0.37441
      H   16    0.12841      0.00000     0.37116    0.00043     0.37159
      H   17    0.13077      0.00000     0.36879    0.00043     0.36923
      H   18    0.13384      0.00000     0.36432    0.00183     0.36616
     Ni   19    0.48533      8.99575     4.51537    0.00355    13.51467
      C   20   -0.23681      0.99934     2.21840    0.01907     3.23681
      C   21   -0.13078      0.99944     2.12326    0.00808     3.13078
      C   22   -0.13075      0.99944     2.12323    0.00808     3.13075
      C   23   -0.11561      0.99943     2.10952    0.00667     3.11561
      H   24    0.10612      0.00000     0.39327    0.00062     0.39388
      C   25   -0.11561      0.99943     2.10951    0.00667     3.11561
      H   26    0.10613      0.00000     0.39326    0.00061     0.39387
      C   27   -0.03332      0.99943     2.02672    0.00718     3.03332
      H   28    0.10879      0.00000     0.39037    0.00084     0.39121
      H   29    0.10880      0.00000     0.39037    0.00084     0.39120
      I   30   -0.26838     23.00000     3.76765    0.00073    26.76838
      C   31   -0.33928      0.99963     2.33600    0.00365     3.33928
      H   32    0.11877      0.00000     0.38054    0.00069     0.38123
      H   33    0.11426      0.00000     0.38513    0.00061     0.38574
      H   34    0.11426      0.00000     0.38513    0.00061     0.38574
 =======================================================================
   * Total *   -0.00226     49.98649    52.83916    0.17661   103.00226

 Normal termination of Gaussian 16 at Thu Jan 10 09:56:22 2019.
