 Gaussian 16, Revision A.03,

 ---------------------------------
 # opt=CalcAll B3LYP/6-31G* scf=qc
 ---------------------------------

 -------------------
 Title Card Required
 -------------------
 Symbolic Z-matrix:
 Charge =  0 Multiplicity = 1

 SCF Done:  E(RB3LYP) =  -324.680315876     a.u. after    7 cycles
 SCF Done:  E(RB3LYP) =  -324.680523605     a.u. after   11 cycles
 SCF Done:  E(RB3LYP) =  -324.681181631     a.u. after   11 cycles
 SCF Done:  E(RB3LYP) =  -324.681847678     a.u. after   11 cycles
 SCF Done:  E(RB3LYP) =  -324.681876338     a.u. after    9 cycles
 SCF Done:  E(RB3LYP) =  -324.681871466     a.u. after    9 cycles
 SCF Done:  E(RB3LYP) =  -324.681898192     a.u. after    6 cycles
 SCF Done:  E(RB3LYP) =  -324.681898211     a.u. after    2 cycles
 Optimization completed.
    -- Stationary point found.
 Normal termination of Gaussian 16 at Mon Dec 30 18:34:00 2019.

 ----------------------------------------------------------------------
 # freq B3LYP/6-31G* scf=qc volume NMR pop=NPA density=current Geom=All
 Check Guess=Read
 ----------------------------------------------------------------------

 Structure from the checkpoint file:  "1_2.chk"
 -------------------
 Title Card Required
 -------------------
 Charge =  0 Multiplicity = 1

 SCF Done:  E(RB3LYP) =  -324.681898211     a.u. after    1 cycles

      1  C    Isotropic =    27.7998   Anisotropy =   121.7990

      2  C    Isotropic =    92.2219   Anisotropy =    81.3867

      3  H    Isotropic =    26.7309   Anisotropy =     4.2486

      4  C    Isotropic =    37.3080   Anisotropy =   139.6900

      5  N    Isotropic =  -118.8550   Anisotropy =   236.9590

      6  O    Isotropic =   -47.5523   Anisotropy =   249.0291

      7  C    Isotropic =   177.1915   Anisotropy =    21.6901

      8  C    Isotropic =   176.8934   Anisotropy =    22.1377

      9  H    Isotropic =    30.1877   Anisotropy =     7.8184

     10  H    Isotropic =    30.1878   Anisotropy =     7.8183

     11  H    Isotropic =    29.9677   Anisotropy =     7.5541

     12  H    Isotropic =    30.1698   Anisotropy =     7.0740

     13  H    Isotropic =    29.9178   Anisotropy =     8.1412

     14  H    Isotropic =    29.9178   Anisotropy =     8.1412

  Exact polarizability:  80.644  -1.582  56.870  -0.000   0.000  35.634
 Approx polarizability: 109.746  -5.762  99.511  -0.000   0.000  51.556

                      1                      2                      3
                      A                      A                      A
 Frequencies --    100.0303               131.1624               179.4831
 Red. masses --      1.0678                 1.0617                 2.6789
 Frc consts  --      0.0063                 0.0108                 0.0508
 IR Inten    --      0.7994                 0.0593                 1.2865

                      4                      5                      6
                      A                      A                      A
 Frequencies --    260.9749               339.1665               394.9445
 Red. masses --      2.5940                 3.8598                 2.8124
 Frc consts  --      0.1041                 0.2616                 0.2585
 IR Inten    --      3.9089                 0.1401                 2.0465

                      7                      8                      9
                      A                      A                      A
 Frequencies --    588.7243               634.5684               668.7044
 Red. masses --      4.1025                 6.3695                 3.6596
 Frc consts  --      0.8378                 1.5112                 0.9642
 IR Inten    --      1.3079                 0.0898                 0.1543

                     10                     11                     12
                      A                      A                      A
 Frequencies --    740.3816               803.6145               917.2511
 Red. masses --      4.5090                 1.2351                 5.2272
 Frc consts  --      1.4563                 0.4699                 2.5912
 IR Inten    --      6.6208                21.8213                16.7005

                     13                     14                     15
                      A                      A                      A
 Frequencies --    992.1969              1017.3030              1037.7927
 Red. masses --      1.9600                 2.5930                 2.5552
 Frc consts  --      1.1368                 1.5811                 1.6214
 IR Inten    --      0.2895                 2.4165                10.2479

                     16                     17                     18
                      A                      A                      A
 Frequencies --   1052.6075              1078.3040              1080.8652
 Red. masses --      2.7827                 1.5035                 1.5026
 Frc consts  --      1.8166                 1.0300                 1.0343
 IR Inten    --      6.1876                 3.3854                 3.3418

                     19                     20                     21
                      A                      A                      A
 Frequencies --   1167.7336              1302.7848              1429.7750
 Red. masses --      1.6208                 4.3277                 1.3817
 Frc consts  --      1.3022                 4.3277                 1.6642
 IR Inten    --      1.2840                15.8713                 7.2000

                     22                     23                     24
                      A                      A                      A
 Frequencies --   1441.1297              1467.8663              1499.2074
 Red. masses --      1.2596                 2.7253                 1.5869
 Frc consts  --      1.5413                 3.4597                 2.1014
 IR Inten    --      1.5041                46.3777                 4.7977

                     25                     26                     27
                      A                      A                      A
 Frequencies --   1504.0124              1512.2477              1520.0617
 Red. masses --      1.0424                 1.0438                 1.1980
 Frc consts  --      1.3893                 1.4065                 1.6309
 IR Inten    --      7.2548                 7.0439                17.7332

                     28                     29                     30
                      A                      A                      A
 Frequencies --   1551.5918              1664.9059              3055.6940
 Red. masses --      2.4751                 6.2018                 1.0374
 Frc consts  --      3.5107                10.1285                 5.7072
 IR Inten    --      7.3052                55.9142                23.0507

                     31                     32                     33
                      A                      A                      A
 Frequencies --   3057.1575              3110.3226              3112.6611
 Red. masses --      1.0372                 1.1015                 1.1014
 Frc consts  --      5.7116                 6.2782                 6.2874
 IR Inten    --     12.2102                15.0292                10.3677

                     34                     35                     36
                      A                      A                      A
 Frequencies --   3149.8094              3151.0254              3279.6807
 Red. masses --      1.1012                 1.1009                 1.0984
 Frc consts  --      6.4372                 6.4404                 6.9610
 IR Inten    --      9.0947                 8.5037                 1.1348

 - Thermochemistry -
 -------------------
 Temperature   298.150 Kelvin.  Pressure   1.00000 Atm.
 Atom     1 has atomic number  6 and mass  12.00000

 Molecular mass:    97.05276 amu.
 Principal axes and moments of inertia in atomic units:
                           1         2         3
     Eigenvalues --   239.30065 920.831581137.63540
           X            1.00000  -0.00122  -0.00000
           Y            0.00122   1.00000   0.00000
           Z            0.00000  -0.00000   1.00000
 This molecule is an asymmetric top.
 Rotational symmetry number  1.
 Rotational temperatures (Kelvin)      0.36195     0.09406     0.07614
 Rotational constants (GHZ):           7.54173     1.95990     1.58640
 Zero-point vibrational energy     299040.9 (Joules/Mol)
                                   71.47250 (Kcal/Mol)
 Warning -- explicit consideration of   7 degrees of freedom as
           vibrations may cause significant error
 Vibrational temperatures:    143.92   188.71   258.24   375.48   487.98
          (Kelvin)            568.24   847.04   913.00   962.12  1065.24
                             1156.22  1319.72  1427.55  1463.67  1493.15
                             1514.47  1551.44  1555.12  1680.11  1874.42
                             2057.13  2073.46  2111.93  2157.03  2163.94
                             2175.79  2187.03  2232.39  2395.43  4396.46
                             4398.57  4475.06  4478.43  4531.87  4533.62
                             4718.73

 Zero-point correction=                           0.113899 (Hartree/Particle)
 Thermal correction to Energy=                    0.120817
 Thermal correction to Enthalpy=                  0.121761
 Thermal correction to Gibbs Free Energy=         0.082954
 Sum of electronic and zero-point Energies=           -324.568000
 Sum of electronic and thermal Energies=              -324.561081
 Sum of electronic and thermal Enthalpies=            -324.560137
 Sum of electronic and thermal Free Energies=         -324.598944

                     E (Thermal)             CV                S
                      KCal/Mol        Cal/Mol-Kelvin    Cal/Mol-Kelvin
 Total                   75.814             24.345             81.677
 Electronic               0.000              0.000              0.000
 Translational            0.889              2.981             39.629
 Rotational               0.889              2.981             27.019
 Vibrational             74.036             18.384             15.029
 Vibration     1          0.604              1.949              3.454
 Vibration     2          0.612              1.922              2.929
 Vibration     3          0.629              1.867              2.334
 Vibration     4          0.669              1.744              1.655
 Vibration     5          0.719              1.597              1.216
 Vibration     6          0.762              1.481              0.981
 Vibration     7          0.946              1.056              0.469

 Optimization completed.
    -- Stationary point found.
 Normal termination of Gaussian 16 at Mon Dec 30 18:34:58 2019.
 Gaussian 16:  ES64L-G16RevA.03 25-Dec-2016

 ----------------------------------------------------------------------
 # TD(NStates=10, Root=1) B3LYP/6-31G* scf=qc volume pop=NPA density=cu
 rrent Geom=AllCheck Guess=Read
 ----------------------------------------------------------------------

 Structure from the checkpoint file:  "1_3.chk"
 -------------------
 Title Card Required
 -------------------
 Charge =  0 Multiplicity = 1

                         Standard orientation:
 ---------------------------------------------------------------------
 Center     Atomic      Atomic             Coordinates (Angstroms)
 Number     Number       Type             X           Y           Z
 ---------------------------------------------------------------------
      1          6           0       -1.086320   -0.164356   -0.000000
      2          6           0        0.004403   -0.980209    0.000001
      3          1           0        0.022208   -2.060385    0.000002
      4          6           0        1.115888   -0.083157    0.000001
      5          7           0        0.721367    1.171174    0.000001
      6          8           0       -0.682042    1.124635   -0.000000
      7          6           0        2.578509   -0.406861   -0.000001
      8          6           0       -2.556647   -0.407658   -0.000001
      9          1           0        2.850817   -0.994892   -0.884077
     10          1           0        2.850803   -0.994963    0.884032
     11          1           0        3.166203    0.514512    0.000040
     12          1           0       -2.762413   -1.480958    0.000001
     13          1           0       -3.027924    0.037418   -0.883833
     14          1           0       -3.027925    0.037421    0.883830
 ---------------------------------------------------------------------

 SCF Done:  E(RB3LYP) =  -324.681898211     a.u. after    1 cycles

 Excitation energies and oscillator strengths:

 Excited State   1:      Singlet-A      6.4400 eV  192.52 nm  f=0.1603  <S**2>=0.000
      25 -> 27         0.22174
      26 -> 27         0.64937
      26 -> 28         0.12009
 This state for optimization and/or second-order correction.
 Total Energy, E(TD-HF/TD-DFT) =  -324.445231897
 Copying the excited state density for this state as the 1-particle RhoCI density.

 Excited State   2:      Singlet-A      6.5907 eV  188.12 nm  f=0.0061  <S**2>=0.000
      24 -> 27         0.70313

 Excited State   3:      Singlet-A      6.9190 eV  179.20 nm  f=0.0302  <S**2>=0.000
      25 -> 27         0.57292
      26 -> 27        -0.25480
      26 -> 28         0.31453

 Excited State   4:      Singlet-A      8.0184 eV  154.63 nm  f=0.0007  <S**2>=0.000
      26 -> 29         0.67821
      26 -> 31        -0.10451

 Excited State   5:      Singlet-A      8.3924 eV  147.73 nm  f=0.2622  <S**2>=0.000
      24 -> 29         0.18254
      25 -> 27        -0.30679
      26 -> 28         0.58538

 Excited State   6:      Singlet-A      8.4234 eV  147.19 nm  f=0.0013  <S**2>=0.000
      24 -> 28         0.69209

 Excited State   7:      Singlet-A      8.4545 eV  146.65 nm  f=0.0002  <S**2>=0.000
      22 -> 27         0.15373
      23 -> 27         0.67842

 Excited State   8:      Singlet-A      8.6354 eV  143.58 nm  f=0.1493  <S**2>=0.000
      25 -> 28         0.69424

 Excited State   9:      Singlet-A      8.8366 eV  140.31 nm  f=0.0008  <S**2>=0.000
      22 -> 27        -0.13589
      25 -> 29         0.55267
      26 -> 30         0.35673

 Excited State  10:      Singlet-A      8.9144 eV  139.08 nm  f=0.0006  <S**2>=0.000
      22 -> 27         0.65381
      23 -> 27        -0.13158
      26 -> 30         0.19169

 The electronic state is 1-A.
 Alpha  occ. eigenvalues --  -19.22141 -14.36574 -10.25531 -10.22353 -10.20426
 Alpha  occ. eigenvalues --  -10.19227 -10.18741  -1.12600  -0.86748  -0.80272
 Alpha  occ. eigenvalues --   -0.72109  -0.71908  -0.59806  -0.55001  -0.50064
 Alpha  occ. eigenvalues --   -0.47056  -0.44018  -0.42759  -0.42655  -0.40438
 Alpha  occ. eigenvalues --   -0.40423  -0.37812  -0.36780  -0.29416  -0.27843
 Alpha  occ. eigenvalues --   -0.24867
 Alpha virt. eigenvalues --   -0.00097   0.06387   0.09268   0.11253   0.12321
 Alpha virt. eigenvalues --    0.15280   0.15402   0.16834   0.17066   0.18279
 Alpha virt. eigenvalues --    0.21686   0.22493   0.26473   0.31396   0.40737

 Mulliken charges:
               1
     1  C    0.425774
     2  C   -0.236838
     3  H    0.173245
     4  C    0.282284
     5  N   -0.260196
     6  O   -0.364887
     7  C   -0.513563
     8  C   -0.526209
     9  H    0.150363
    10  H    0.150363
    11  H    0.177868
    12  H    0.168251
    13  H    0.186772
    14  H    0.186772
 Sum of Mulliken charges =  -0.00000

 Dipole moment (field-independent basis, Debye):
    X=             -1.7149    Y=             -3.7962    Z=              0.0000  Tot=              4.1656
 Quadrupole moment (field-independent basis, Debye-Ang):
   XX=            -36.4587   YY=            -43.3614   ZZ=            -41.7718
   XY=             -0.3024   XZ=              0.0000   YZ=             -0.0000

 Summary of Natural Population Analysis:

                                       Natural Population
                Natural  -----------------------------------------------
    Atom  No    Charge         Core      Valence    Rydberg      Total
 -----------------------------------------------------------------------
      C    1    0.35193      1.99910     3.62119    0.02779     5.64807
      C    2   -0.14095      1.99887     4.12911    0.01297     6.14095
      H    3    0.24238      0.00000     0.75706    0.00056     0.75762
      C    4    0.01859      1.99933     3.95332    0.02876     5.98141
      N    5   -0.18016      1.99940     5.15274    0.02801     7.18016
      O    6   -0.34279      1.99975     6.32676    0.01629     8.34279
      C    7   -0.69778      1.99937     4.69103    0.00739     6.69778
      C    8   -0.73227      1.99935     4.72463    0.00829     6.73227
      H    9    0.23189      0.00000     0.76655    0.00156     0.76811
      H   10    0.23189      0.00000     0.76655    0.00156     0.76811
      H   11    0.25572      0.00000     0.74290    0.00138     0.74428
      H   12    0.24929      0.00000     0.74995    0.00076     0.75071
      H   13    0.25613      0.00000     0.73883    0.00504     0.74387
      H   14    0.25613      0.00000     0.73883    0.00504     0.74387
 =======================================================================
   * Total *   -0.00000     13.99517    37.85944    0.14539    52.00000

 Normal termination of Gaussian 16 at Mon Dec 30 18:36:40 2019.
