 Gaussian 16, Revision A.03,

 -------------------------
 # opt b3lyp/6-31G* scf=qc
 -------------------------

 -------------------
 Title Card Required
 -------------------
 Symbolic Z-matrix:
 Charge =  0 Multiplicity = 1

 SCF Done:  E(RB3LYP) =  -516.418953665     a.u. after    7 cycles
 SCF Done:  E(RB3LYP) =  -516.420127453     a.u. after    7 cycles
 SCF Done:  E(RB3LYP) =  -516.420238801     a.u. after    4 cycles
 SCF Done:  E(RB3LYP) =  -516.420265282     a.u. after    4 cycles
 SCF Done:  E(RB3LYP) =  -516.420277753     a.u. after    3 cycles
 SCF Done:  E(RB3LYP) =  -516.420280282     a.u. after    3 cycles
 SCF Done:  E(RB3LYP) =  -516.420281757     a.u. after    2 cycles
 SCF Done:  E(RB3LYP) =  -516.420285266     a.u. after    3 cycles
 SCF Done:  E(RB3LYP) =  -516.420297496     a.u. after    5 cycles
 SCF Done:  E(RB3LYP) =  -516.420334511     a.u. after   11 cycles
 SCF Done:  E(RB3LYP) =  -516.421717178     a.u. after    7 cycles
 SCF Done:  E(RB3LYP) =  -516.421730972     a.u. after    5 cycles
 SCF Done:  E(RB3LYP) =  -516.421740785     a.u. after    3 cycles
 SCF Done:  E(RB3LYP) =  -516.421755712     a.u. after    7 cycles
 SCF Done:  E(RB3LYP) =  -516.421764174     a.u. after    7 cycles
 SCF Done:  E(RB3LYP) =  -516.421766269     a.u. after    5 cycles
 SCF Done:  E(RB3LYP) =  -516.421766477     a.u. after    2 cycles
 SCF Done:  E(RB3LYP) =  -516.421766495     a.u. after    2 cycles
 Optimization completed.
    -- Stationary point found.
 Normal termination of Gaussian 16 at Mon Aug 27 12:00:50 2018.

 ----------------------------------------------------------------------
 # freq b3lyp/6-31G* volume NMR pop=NPA density=current Geom=AllCheck G
 uess=Read
 ----------------------------------------------------------------------

 Structure from the checkpoint file:  "science_add_172.chk"
 -------------------
 Title Card Required
 -------------------
 Charge =  0 Multiplicity = 1

 SCF Done:  E(RB3LYP) =  -516.421766495     A.U. after    1 cycles

      1  C    Isotropic =    26.6239   Anisotropy =   113.2197

      2  C    Isotropic =    95.5546   Anisotropy =    89.1602

      3  H    Isotropic =    26.1821   Anisotropy =     5.8145

      4  C    Isotropic =    36.1243   Anisotropy =   137.6295

      5  N    Isotropic =  -114.8065   Anisotropy =   239.6321

      6  O    Isotropic =   -32.8640   Anisotropy =   238.2386

      7  C    Isotropic =   177.0471   Anisotropy =    22.1781

      8  C    Isotropic =    68.0321   Anisotropy =   162.1156

      9  C    Isotropic =    70.5624   Anisotropy =   154.9018

     10  C    Isotropic =    68.0550   Anisotropy =   165.3208

     11  C    Isotropic =    67.3425   Anisotropy =   168.3900

     12  C    Isotropic =    67.3559   Anisotropy =   167.4523

     13  C    Isotropic =    69.9851   Anisotropy =   166.9589

     14  H    Isotropic =    30.0859   Anisotropy =     7.8107

     15  H    Isotropic =    30.0860   Anisotropy =     7.8110

     16  H    Isotropic =    29.8894   Anisotropy =     7.7018

     17  H    Isotropic =    24.7514   Anisotropy =     7.9772

     18  H    Isotropic =    24.9253   Anisotropy =     4.8318

     19  H    Isotropic =    24.9941   Anisotropy =     4.3339

     20  H    Isotropic =    24.8620   Anisotropy =     4.8539

     21  H    Isotropic =    24.2033   Anisotropy =     8.0373

  Exact polarizability: 184.483  -3.641 110.063  -0.000   0.001  44.337
 Approx polarizability: 264.348  -3.617 203.823  -0.001   0.001  68.002

                      1                      2                      3
                      A                      A                      A
 Frequencies --     29.0060                89.4459               127.3547
 Red. masses --      4.1284                 3.9667                 1.0779
 Frc consts  --      0.0020                 0.0187                 0.0103
 IR Inten    --      3.1187                 0.0023                 0.0072

                      4                      5                      6
                      A                      A                      A
 Frequencies --    128.0840               212.7990               300.5195
 Red. masses --      4.0912                 3.6660                 3.7924
 Frc consts  --      0.0395                 0.0978                 0.2018
 IR Inten    --      1.2949                 0.1006                 1.7171

                      7                      8                      9
                      A                      A                      A
 Frequencies --    340.1769               344.8574               410.5129
 Red. masses --      5.0722                 4.7050                 2.9698
 Frc consts  --      0.3458                 0.3297                 0.2949
 IR Inten    --      1.7652                 0.6160                 0.0053

                     10                     11                     12
                      A                      A                      A
 Frequencies --    469.9331               502.7609               632.7638
 Red. masses --      4.5033                 3.8579                 6.4172
 Frc consts  --      0.5859                 0.5745                 1.5138
 IR Inten    --      1.7384                 2.5664                 0.0150

                     13                     14                     15
                      A                      A                      A
 Frequencies --    648.0871               652.3981               694.2726
 Red. masses --      5.4951                 5.3047                 3.2786
 Frc consts  --      1.3599                 1.3303                 0.9311
 IR Inten    --      0.0189                 0.1759                 8.4821

                     16                     17                     18
                      A                      A                      A
 Frequencies --    703.0725               726.5929               780.2651
 Red. masses --      1.9382                 5.3434                 1.5030
 Frc consts  --      0.5645                 1.6621                 0.5391
 IR Inten    --     18.5372                14.7121                52.8203

                     19                     20                     21
                      A                      A                      A
 Frequencies --    803.7375               856.8139               931.9483
 Red. masses --      1.7292                 1.2542                 1.4015
 Frc consts  --      0.6582                 0.5425                 0.7172
 IR Inten    --      5.2898                 0.0288                 2.3943

                     22                     23                     24
                      A                      A                      A
 Frequencies --    946.2913               967.6768               970.3248
 Red. masses --     11.2190                 8.5566                 1.3471
 Frc consts  --      5.9191                 4.7208                 0.7473
 IR Inten    --     12.0010                 6.5086                 0.1403

                     25                     26                     27
                      A                      A                      A
 Frequencies --    999.6568              1000.0059              1018.4252
 Red. masses --      1.8546                 1.2604                 5.9176
 Frc consts  --      1.0920                 0.7426                 3.6162
 IR Inten    --      0.9067                 0.1500                 0.0932

                     28                     29                     30
                      A                      A                      A
 Frequencies --   1053.7941              1056.6239              1078.5560
 Red. masses --      3.1461                 2.4720                 1.4995
 Frc consts  --      2.0584                 1.6261                 1.0277
 IR Inten    --      8.4593                 1.3589                 2.9193

                     31                     32                     33
                      A                      A                      A
 Frequencies --   1088.0224              1113.3909              1195.2405
 Red. masses --      2.0850                 1.6268                 1.1004
 Frc consts  --      1.4542                 1.1882                 0.9262
 IR Inten    --      5.2226                 4.9977                 0.0308

                     34                     35                     36
                      A                      A                      A
 Frequencies --   1216.6878              1220.3322              1298.2269
 Red. masses --      1.2907                 1.6134                 4.5573
 Frc consts  --      1.1257                 1.4157                 4.5254
 IR Inten    --      1.2889                 0.0892                 3.8127

                     37                     38                     39
                      A                      A                      A
 Frequencies --   1351.8086              1373.6769              1430.1867
 Red. masses --      4.2298                 1.6698                 1.3897
 Frc consts  --      4.5541                 1.8565                 1.6747
 IR Inten    --      1.9787                 1.8050                 9.5143

                     40                     41                     42
                      A                      A                      A
 Frequencies --   1467.2376              1489.6576              1505.8420
 Red. masses --      2.8087                 2.2708                 2.4543
 Frc consts  --      3.5626                 2.9690                 3.2790
 IR Inten    --     47.4056                23.3366                 7.5356

                     43                     44                     45
                      A                      A                      A
 Frequencies --   1512.1793              1528.1372              1557.3471
 Red. masses --      1.0437                 1.6535                 2.6158
 Frc consts  --      1.4061                 2.2750                 3.7379
 IR Inten    --      7.4994                33.3064                 4.6586

                     46                     47                     48
                      A                      A                      A
 Frequencies --   1630.6536              1651.0096              1667.4623
 Red. masses --      5.2583                 6.4245                 5.6295
 Frc consts  --      8.2379                10.3178                 9.2222
 IR Inten    --     30.6361                30.4156                 2.4432

                     49                     50                     51
                      A                      A                      A
 Frequencies --   3056.9639              3112.2403              3151.9142
 Red. masses --      1.0374                 1.1015                 1.1010
 Frc consts  --      5.7117                 6.2863                 6.4447
 IR Inten    --     21.7925                14.4433                 7.3509

                     52                     53                     54
                      A                      A                      A
 Frequencies --   3185.6780              3194.2023              3203.6464
 Red. masses --      1.0851                 1.0884                 1.0925
 Frc consts  --      6.4885                 6.5425                 6.6065
 IR Inten    --      1.3324                 5.4528                27.6378

                     55                     56                     57
                      A                      A                      A
 Frequencies --   3212.5083              3227.0613              3284.9706
 Red. masses --      1.0967                 1.0935                 1.0977
 Frc consts  --      6.6683                 6.7094                 6.9790
 IR Inten    --     21.6639                 3.3968                 1.3248

 - Thermochemistry -
 -------------------
 Temperature   298.150 Kelvin.  Pressure   1.00000 Atm.
 Atom     1 has atomic number  6 and mass  12.00000

 Molecular mass:   159.06841 amu.
 Principal axes and moments of inertia in atomic units:
                           1         2         3
     Eigenvalues --   561.881823616.506274167.13247
           X            0.99990  -0.01383   0.00000
           Y            0.01383   0.99990   0.00000
           Z           -0.00000  -0.00000   1.00000
 This molecule is an asymmetric top.
 Rotational symmetry number  1.
 Warning -- assumption of classical behavior for rotation
           may cause significant error
 Rotational temperatures (Kelvin)      0.15415     0.02395     0.02079
 Rotational constants (GHZ):           3.21196     0.49903     0.43309
 Zero-point vibrational energy     439047.7 (Joules/Mol)
                                  104.93492 (Kcal/Mol)
 Warning -- explicit consideration of  11 degrees of freedom as
           vibrations may cause significant error
 Vibrational temperatures:     41.73   128.69   183.24   184.28   306.17
          (Kelvin)            432.38   489.44   496.17   590.64   676.13
                              723.36   910.41   932.45   938.66   998.90
                             1011.56  1045.41  1122.63  1156.40  1232.76
                             1340.87  1361.50  1392.27  1396.08  1438.28
                             1438.79  1465.29  1516.17  1520.25  1551.80
                             1565.42  1601.92  1719.68  1750.54  1755.79
                             1867.86  1944.95  1976.41  2057.72  2111.03
                             2143.29  2166.57  2175.69  2198.65  2240.68
                             2346.15  2375.43  2399.11  4398.29  4477.82
                             4534.90  4583.48  4595.74  4609.33  4622.08
                             4643.02  4726.34

 Zero-point correction=                           0.167224 (Hartree/Particle)
 Thermal correction to Energy=                    0.177032
 Thermal correction to Enthalpy=                  0.177976
 Thermal correction to Gibbs Free Energy=         0.130806
 Sum of electronic and zero-point Energies=           -516.254542
 Sum of electronic and thermal Energies=              -516.244735
 Sum of electronic and thermal Enthalpies=            -516.243791
 Sum of electronic and thermal Free Energies=         -516.290960

                     E (Thermal)             CV                S
                      KCal/Mol        Cal/Mol-Kelvin    Cal/Mol-Kelvin
 Total                  111.089             37.569             99.277
 Electronic               0.000              0.000              0.000
 Translational            0.889              2.981             41.102
 Rotational               0.889              2.981             30.516
 Vibrational            109.312             31.607             27.659
 Vibration     1          0.593              1.984              5.896
 Vibration     2          0.602              1.957              3.672
 Vibration     3          0.611              1.926              2.986
 Vibration     4          0.611              1.925              2.975
 Vibration     5          0.644              1.821              2.020
 Vibration     6          0.693              1.673              1.414
 Vibration     7          0.720              1.595              1.211
 Vibration     8          0.723              1.586              1.190
 Vibration     9          0.775              1.447              0.925
 Vibration    10          0.827              1.317              0.738
 Vibration    11          0.858              1.244              0.651

 Optimization completed.
    -- Stationary point found.
 Normal termination of Gaussian 16 at Mon Aug 27 12:03:51 2018.
 Gaussian 16:  ES64L-G16RevA.03 25-Dec-2016

 ----------------------------------------------------------------------
 # TD(NStates=10, Root=1) b3lyp/6-31G* volume pop=NPA density=current G
 eom=AllCheck Guess=Read
 ----------------------------------------------------------------------

 Structure from the checkpoint file:  "science_add_173.chk"
 -------------------
 Title Card Required
 -------------------
 Charge =  0 Multiplicity = 1

                         Standard orientation:
 ---------------------------------------------------------------------
 Center     Atomic      Atomic             Coordinates (Angstroms)
 Number     Number       Type             X           Y           Z
 ---------------------------------------------------------------------
      1          6           0       -0.572708   -0.042119    0.000000
      2          6           0       -1.561563    0.904288   -0.000094
      3          1           0       -1.456326    1.978866   -0.000220
      4          6           0       -2.772070    0.154122   -0.000010
      5          7           0       -2.536596   -1.141224    0.000128
      6          8           0       -1.142893   -1.270640    0.000128
      7          6           0       -4.183104    0.656887   -0.000072
      8          6           0        0.887876    0.022315   -0.000003
      9          6           0        1.543883    1.264990    0.000083
     10          6           0        2.934381    1.328944    0.000073
     11          6           0        3.692175    0.155145   -0.000015
     12          6           0        3.047884   -1.083646   -0.000095
     13          6           0        1.656702   -1.153871   -0.000090
     14          1           0       -4.380012    1.273703   -0.884384
     15          1           0       -4.380088    1.273921    0.884067
     16          1           0       -4.880367   -0.184549   -0.000017
     17          1           0        0.963078    2.182849    0.000171
     18          1           0        3.427828    2.296975    0.000139
     19          1           0        4.777446    0.206639   -0.000020
     20          1           0        3.630575   -2.000721   -0.000160
     21          1           0        1.156453   -2.116322   -0.000157
 ---------------------------------------------------------------------

 SCF Done:  E(RB3LYP) =  -516.421766495     A.U. after    1 cycles

 Excitation energies and oscillator strengths:

 Excited State   1:      Singlet-A      4.7931 eV  258.67 nm  f=0.5446  <S**2>=0.000
      42 -> 43         0.70031
 This state for optimization and/or second-order correction.
 Total Energy, E(TD-HF/TD-DFT) =  -516.245624388
 Copying the excited state density for this state as the 1-particle RhoCI density.

 Excited State   2:      Singlet-A      4.8834 eV  253.89 nm  f=0.0031  <S**2>=0.000
      41 -> 43         0.52647
      42 -> 44        -0.46068

 Excited State   3:      Singlet-A      5.7824 eV  214.42 nm  f=0.0464  <S**2>=0.000
      39 -> 44         0.13537
      40 -> 43        -0.27630
      41 -> 43         0.40857
      42 -> 44         0.46664

 Excited State   4:      Singlet-A      5.8226 eV  212.94 nm  f=0.0397  <S**2>=0.000
      39 -> 43        -0.14428
      40 -> 43         0.56630
      41 -> 43         0.15004
      42 -> 44         0.21063
      42 -> 45        -0.25614

 Excited State   5:      Singlet-A      5.8684 eV  211.27 nm  f=0.0024  <S**2>=0.000
      38 -> 43         0.69624
      38 -> 45        -0.11285

 Excited State   6:      Singlet-A      6.1309 eV  202.23 nm  f=0.0106  <S**2>=0.000
      39 -> 43         0.56853
      40 -> 43         0.20852
      41 -> 44        -0.16568
      42 -> 45         0.28893
      42 -> 46         0.10368

 Excited State   7:      Singlet-A      6.5249 eV  190.02 nm  f=0.1847  <S**2>=0.000
      39 -> 43        -0.14984
      40 -> 43         0.15596
      41 -> 44         0.49787
      42 -> 45         0.42561

 Excited State   8:      Singlet-A      6.7749 eV  183.01 nm  f=0.0221  <S**2>=0.000
      39 -> 44         0.12200
      40 -> 44         0.65721
      41 -> 45         0.15748
      42 -> 45         0.10261

 Excited State   9:      Singlet-A      6.9560 eV  178.24 nm  f=0.0049  <S**2>=0.000
      39 -> 44         0.50406
      40 -> 44        -0.22130
      41 -> 45         0.41811

 Excited State  10:      Singlet-A      7.1085 eV  174.42 nm  f=0.0000  <S**2>=0.000
      37 -> 43         0.69506

 The electronic state is 1-A.
 Alpha  occ. eigenvalues --  -19.22587 -14.37049 -10.25769 -10.22690 -10.21386
 Alpha  occ. eigenvalues --  -10.20260 -10.19980 -10.19926 -10.19841 -10.19782
 Alpha  occ. eigenvalues --  -10.19425 -10.19215  -1.13107  -0.87706  -0.85992
 Alpha  occ. eigenvalues --   -0.80277  -0.75416  -0.74627  -0.72312  -0.63714
 Alpha  occ. eigenvalues --   -0.61861  -0.58954  -0.55647  -0.53279  -0.49274
 Alpha  occ. eigenvalues --   -0.47038  -0.46684  -0.45491  -0.43501  -0.42947
 Alpha  occ. eigenvalues --   -0.42003  -0.41486  -0.39045  -0.37580  -0.37520
 Alpha  occ. eigenvalues --   -0.35878  -0.34968  -0.29798  -0.29346  -0.28189
 Alpha  occ. eigenvalues --   -0.25910  -0.22813
 Alpha virt. eigenvalues --   -0.04468  -0.00833   0.02991   0.07422   0.08287
 Alpha virt. eigenvalues --    0.10405   0.11350   0.13940   0.14499   0.15237
 Alpha virt. eigenvalues --    0.16370   0.16731   0.17138   0.18424   0.18778

 Mulliken charges:
               1
     1  C    0.378752
     2  C   -0.282004
     3  H    0.156871
     4  C    0.322746
     5  N   -0.191054
     6  O   -0.407229
     7  C   -0.527023
     8  C    0.074909
     9  C   -0.175243
    10  C   -0.132697
    11  C   -0.134525
    12  C   -0.135375
    13  C   -0.161068
    14  H    0.173371
    15  H    0.173374
    16  H    0.185573
    17  H    0.124616
    18  H    0.133095
    19  H    0.130411
    20  H    0.134564
    21  H    0.157938
 Sum of Mulliken charges =  -0.00000

 Dipole moment (field-independent basis, Debye):
    X=              0.0804    Y=              2.7476    Z=             -0.0004  Tot=              2.7488
 Quadrupole moment (field-independent basis, Debye-Ang):
   XX=            -59.5630   YY=            -66.7361   ZZ=            -72.1001
   XY=             -7.0505   XZ=              0.0008   YZ=              0.0007

 Summary of Natural Population Analysis:

                                       Natural Population
                Natural  -----------------------------------------------
    Atom  No    Charge         Core      Valence    Rydberg      Total
 -----------------------------------------------------------------------
      C    1    0.35799      1.99898     3.61649    0.02655     5.64201
      C    2   -0.30867      1.99887     4.29633    0.01348     6.30867
      H    3    0.25041      0.00000     0.74866    0.00093     0.74959
      C    4    0.14229      1.99928     3.83436    0.02408     5.85771
      N    5   -0.10257      1.99938     5.07491    0.02828     7.10257
      O    6   -0.34252      1.99973     6.32991    0.01288     8.34252
      C    7   -0.70749      1.99935     4.70086    0.00728     6.70749
      C    8   -0.12037      1.99898     4.10503    0.01637     6.12037
      C    9   -0.22226      1.99907     4.20832    0.01487     6.22226
      C   10   -0.22779      1.99912     4.21383    0.01484     6.22779
      C   11   -0.23308      1.99909     4.21705    0.01694     6.23308
      C   12   -0.24198      1.99912     4.22777    0.01508     6.24198
      C   13   -0.19340      1.99908     4.17907    0.01526     6.19340
      H   14    0.25090      0.00000     0.74822    0.00088     0.74910
      H   15    0.25090      0.00000     0.74821    0.00088     0.74910
      H   16    0.25897      0.00000     0.73968    0.00135     0.74103
      H   17    0.22860      0.00000     0.76999    0.00141     0.77140
      H   18    0.23784      0.00000     0.76128    0.00087     0.76216
      H   19    0.23346      0.00000     0.76538    0.00115     0.76654
      H   20    0.23881      0.00000     0.76035    0.00084     0.76119
      H   21    0.24997      0.00000     0.74850    0.00154     0.75003
 =======================================================================
   * Total *   -0.00000     23.99004    59.79420    0.21576    84.00000

 Normal termination of Gaussian 16 at Mon Aug 27 12:07:41 2018.
