 Gaussian 16, Revision A.03,

 ---------------------------------
 # opt=CalcAll B3LYP/6-31G* scf=qc
 ---------------------------------

 -------------------
 Title Card Required
 -------------------
 Symbolic Z-matrix:
 Charge =  0 Multiplicity = 1

 SCF Done:  E(RB3LYP) =  -285.355814817     a.u. after    9 cycles
 SCF Done:  E(RB3LYP) =  -285.356011436     a.u. after   11 cycles
 SCF Done:  E(RB3LYP) =  -285.357169608     a.u. after   13 cycles
 SCF Done:  E(RB3LYP) =  -285.357324588     a.u. after    6 cycles
 SCF Done:  E(RB3LYP) =  -285.357325405     a.u. after    3 cycles
 Optimization completed.
    -- Stationary point found.
 Normal termination of Gaussian 16 at Mon Dec 30 18:29:04 2019.

 ----------------------------------------------------------------------
 # freq B3LYP/6-31G* scf=qc volume NMR pop=NPA density=current Geom=All
 Check Guess=Read
 ----------------------------------------------------------------------

 Structure from the checkpoint file:  "2_2.chk"
 -------------------
 Title Card Required
 -------------------
 Charge =  0 Multiplicity = 1

 SCF Done:  E(RB3LYP) =  -285.357325405     a.u. after    1 cycles

      1  C    Isotropic =    38.9567   Anisotropy =   120.6826

      2  H    Isotropic =    24.1701   Anisotropy =     2.2384

      3  C    Isotropic =    91.2002   Anisotropy =    94.3853

      4  H    Isotropic =    26.3830   Anisotropy =     2.8351

      5  C    Isotropic =    38.0531   Anisotropy =   142.6416

      6  N    Isotropic =  -119.2806   Anisotropy =   255.8878

      7  O    Isotropic =   -48.1636   Anisotropy =   274.2348

      8  C    Isotropic =   177.3283   Anisotropy =    21.1604

      9  H    Isotropic =    30.1024   Anisotropy =     7.8628

     10  H    Isotropic =    29.8402   Anisotropy =     7.5919

     11  H    Isotropic =    30.1026   Anisotropy =     7.8622

  Exact polarizability:  61.534  -0.748  48.320  -0.000  -0.000  26.068
 Approx polarizability:  93.271   4.352  84.384  -0.000  -0.000  37.978

                      1                      2                      3
                      A                      A                      A
 Frequencies --    128.3030               272.5401               336.3481
 Red. masses --      1.0674                 3.0916                 2.7146
 Frc consts  --      0.0104                 0.1353                 0.1809
 IR Inten    --      0.0228                 4.2893                 6.4353

                      4                      5                      6
                      A                      A                      A
 Frequencies --    609.0027               660.1926               664.0611
 Red. masses --      4.6497                 4.4167                 4.2319
 Frc consts  --      1.0160                 1.1342                 1.0995
 IR Inten    --      4.1458                 5.6371                 0.7467

                      7                      8                      9
                      A                      A                      A
 Frequencies --    787.7988               864.9202               899.8346
 Red. masses --      1.2331                 1.3361                 5.4727
 Frc consts  --      0.4509                 0.5889                 2.6108
 IR Inten    --     36.9790                 0.3940                27.5157

                     10                     11                     12
                      A                      A                      A
 Frequencies --    937.5971               985.4866              1042.6354
 Red. masses --      9.2965                 2.1739                 2.1414
 Frc consts  --      4.8151                 1.2439                 1.3715
 IR Inten    --      2.6623                 1.8032                 1.8713

                     13                     14                     15
                      A                      A                      A
 Frequencies --   1078.3023              1095.3810              1163.1369
 Red. masses --      1.4984                 1.6454                 2.0293
 Frc consts  --      1.0265                 1.1632                 1.6175
 IR Inten    --      3.1180                 9.1709                16.6403

                     16                     17                     18
                      A                      A                      A
 Frequencies --   1303.8948              1433.6549              1459.8227
 Red. masses --      2.1259                 1.4070                 2.8914
 Frc consts  --      2.1295                 1.7039                 3.6305
 IR Inten    --      2.1223                 4.7109                40.2404

                     19                     20                     21
                      A                      A                      A
 Frequencies --   1494.0544              1512.3055              1521.1124
 Red. masses --      3.8214                 1.0437                 1.2966
 Frc consts  --      5.0258                 1.4063                 1.7676
 IR Inten    --      3.9392                 7.5008                10.4233

                     22                     23                     24
                      A                      A                      A
 Frequencies --   1630.4801              3057.3840              3112.5704
 Red. masses --      4.9910                 1.0374                 1.1016
 Frc consts  --      7.8175                 5.7135                 6.2878
 IR Inten    --     24.7171                15.9540                14.4529

                     25                     26                     27
                      A                      A                      A
 Frequencies --   3153.0178              3275.1843              3296.2286
 Red. masses --      1.1010                 1.0900                 1.1083
 Frc consts  --      6.4492                 6.8892                 7.0947
 IR Inten    --      7.0027                 0.3677                 1.0830

 - Thermochemistry -
 -------------------
 Temperature   298.150 Kelvin.  Pressure   1.00000 Atm.
 Atom     1 has atomic number  6 and mass  12.00000

 Molecular mass:    83.03711 amu.
 Principal axes and moments of inertia in atomic units:
                           1         2         3
     Eigenvalues --   197.30521 514.53070 700.58106
           X            0.99975  -0.02238  -0.00000
           Y            0.02238   0.99975  -0.00000
           Z            0.00000   0.00000   1.00000
 This molecule is an asymmetric top.
 Rotational symmetry number  1.
 Rotational temperatures (Kelvin)      0.43898     0.16834     0.12363
 Rotational constants (GHZ):           9.14695     3.50755     2.57606
 Zero-point vibrational energy     225946.2 (Joules/Mol)
                                   54.00243 (Kcal/Mol)
 Warning -- explicit consideration of   4 degrees of freedom as
           vibrations may cause significant error
 Vibrational temperatures:    184.60   392.12   483.93   876.22   949.87
          (Kelvin)            955.44  1133.47  1244.43  1294.66  1348.99
                             1417.90  1500.12  1551.44  1576.01  1673.49
                             1876.01  2062.71  2100.36  2149.61  2175.87
                             2188.54  2345.90  4398.89  4478.29  4536.49
                             4712.26  4742.54

 Zero-point correction=                           0.086058 (Hartree/Particle)
 Thermal correction to Energy=                    0.091245
 Thermal correction to Enthalpy=                  0.092189
 Thermal correction to Gibbs Free Energy=         0.057529
 Sum of electronic and zero-point Energies=           -285.271267
 Sum of electronic and thermal Energies=              -285.266081
 Sum of electronic and thermal Enthalpies=            -285.265136
 Sum of electronic and thermal Free Energies=         -285.299796

                     E (Thermal)             CV                S
                      KCal/Mol        Cal/Mol-Kelvin    Cal/Mol-Kelvin
 Total                   57.257             18.336             72.948
 Electronic               0.000              0.000              0.000
 Translational            0.889              2.981             39.164
 Rotational               0.889              2.981             25.767
 Vibrational             55.479             12.375              8.017
 Vibration     1          0.611              1.925              2.971
 Vibration     2          0.676              1.724              1.580
 Vibration     3          0.717              1.603              1.229
 Vibration     4          0.968              1.013              0.434

 Optimization completed.
    -- Stationary point found.
 Normal termination of Gaussian 16 at Mon Dec 30 18:29:49 2019.
 Gaussian 16:  ES64L-G16RevA.03 25-Dec-2016

 ----------------------------------------------------------------------
 # TD(NStates=10, Root=1) B3LYP/6-31G* scf=qc volume pop=NPA density=cu
 rrent Geom=AllCheck Guess=Read
 ----------------------------------------------------------------------

 Structure from the checkpoint file:  "2_3.chk"
 -------------------
 Title Card Required
 -------------------
 Charge =  0 Multiplicity = 1

                         Standard orientation:
 ---------------------------------------------------------------------
 Center     Atomic      Atomic             Coordinates (Angstroms)
 Number     Number       Type             X           Y           Z
 ---------------------------------------------------------------------
      1          6           0       -1.486361    0.574889   -0.000001
      2          1           0       -2.493078    0.968932   -0.000002
      3          6           0       -0.255171    1.147122    0.000004
      4          1           0       -0.005718    2.197868   -0.000008
      5          6           0        0.635291    0.027687    0.000005
      6          7           0       -0.023896   -1.110884    0.000001
      7          8           0       -1.381968   -0.765639   -0.000003
      8          6           0        2.133340    0.025954   -0.000002
      9          1           0        2.526255    0.540536   -0.884341
     10          1           0        2.506721   -1.000974    0.000286
     11          1           0        2.526243    0.541029    0.884050
 ---------------------------------------------------------------------

 SCF Done:  E(RB3LYP) =  -285.357325405     a.u. after    1 cycles

 Excitation energies and oscillator strengths:

 Excited State   1:      Singlet-A      6.6087 eV  187.61 nm  f=0.0057  <S**2>=0.000
      20 -> 23         0.70397
 This state for optimization and/or second-order correction.
 Total Energy, E(TD-HF/TD-DFT) =  -285.114459842
 Copying the excited state density for this state as the 1-particle RhoCI density.

 Excited State   2:      Singlet-A      6.6401 eV  186.72 nm  f=0.0797  <S**2>=0.000
      21 -> 23         0.31397
      22 -> 23         0.59273
      22 -> 24         0.17838

 Excited State   3:      Singlet-A      7.0212 eV  176.58 nm  f=0.0363  <S**2>=0.000
      21 -> 23         0.53428
      22 -> 23        -0.36175
      22 -> 24         0.27238

 Excited State   4:      Singlet-A      8.3745 eV  148.05 nm  f=0.0004  <S**2>=0.000
      20 -> 24         0.58709
      22 -> 25         0.35778
      22 -> 27        -0.12042

 Excited State   5:      Singlet-A      8.4993 eV  145.88 nm  f=0.0004  <S**2>=0.000
      18 -> 23         0.12106
      19 -> 23         0.65725
      20 -> 24        -0.11062
      22 -> 25         0.16725

 Excited State   6:      Singlet-A      8.5250 eV  145.44 nm  f=0.0015  <S**2>=0.000
      19 -> 23        -0.18867
      20 -> 24        -0.36732
      22 -> 25         0.52622
      22 -> 27        -0.15468

 Excited State   7:      Singlet-A      8.5808 eV  144.49 nm  f=0.1995  <S**2>=0.000
      20 -> 25         0.17124
      21 -> 23        -0.27794
      21 -> 24         0.13494
      22 -> 24         0.58697

 Excited State   8:      Singlet-A      8.6370 eV  143.55 nm  f=0.1832  <S**2>=0.000
      21 -> 23         0.10537
      21 -> 24         0.68024

 Excited State   9:      Singlet-A      9.0348 eV  137.23 nm  f=0.0000  <S**2>=0.000
      17 -> 23        -0.11182
      18 -> 23         0.66678
      19 -> 23        -0.12475
      21 -> 25         0.11760

 Excited State  10:      Singlet-A      9.0617 eV  136.82 nm  f=0.0008  <S**2>=0.000
      21 -> 25        -0.46353
      22 -> 25        -0.11775
      22 -> 26         0.48567

 The electronic state is 1-A.
 Alpha  occ. eigenvalues --  -19.23197 -14.37334 -10.25547 -10.23027 -10.19698
 Alpha  occ. eigenvalues --  -10.19662  -1.13531  -0.87179  -0.79115  -0.72568
 Alpha  occ. eigenvalues --   -0.61697  -0.56953  -0.52367  -0.46659  -0.45640
 Alpha  occ. eigenvalues --   -0.42055  -0.41942  -0.38841  -0.37682  -0.30173
 Alpha  occ. eigenvalues --   -0.28488  -0.26258
 Alpha virt. eigenvalues --   -0.00665   0.05699   0.09844   0.12022   0.12560
 Alpha virt. eigenvalues --    0.14927   0.16546   0.17820   0.19643   0.24684
 Alpha virt. eigenvalues --    0.30076   0.38591   0.42094   0.49856   0.52463

 Mulliken charges:
               1
     1  C    0.067471
     2  H    0.160684
     3  C   -0.238211
     4  H    0.150702
     5  C    0.335808
     6  N   -0.129412
     7  O   -0.348658
     8  C   -0.521582
     9  H    0.175022
    10  H    0.173154
    11  H    0.175022
 Sum of Mulliken charges =  -0.00000

 Dipole moment (field-independent basis, Debye):
    X=              1.4799    Y=              1.0492    Z=              0.0000  Tot=              1.8141
 Quadrupole moment (field-independent basis, Debye-Ang):
   XX=            -31.4754   YY=            -32.6137   ZZ=            -36.8366
   XY=             -2.0454   XZ=              0.0001   YZ=             -0.0001

 Summary of Natural Population Analysis:

                                       Natural Population
                Natural  -----------------------------------------------
    Atom  No    Charge         Core      Valence    Rydberg      Total
 -----------------------------------------------------------------------
      C    1   -0.00004      1.99906     3.97098    0.03000     6.00004
      H    2    0.23171      0.00000     0.76802    0.00027     0.76829
      C    3   -0.36608      1.99892     4.35456    0.01260     6.36608
      H    4    0.25763      0.00000     0.74207    0.00030     0.74237
      C    5    0.08362      1.99914     3.89511    0.02213     5.91638
      N    6    0.09695      1.99874     4.88426    0.02005     6.90305
      O    7   -0.35385      1.99971     6.33979    0.01435     8.35385
      C    8   -0.70037      1.99936     4.69387    0.00714     6.70037
      H    9    0.24951      0.00000     0.74949    0.00100     0.75049
      H   10    0.25140      0.00000     0.74782    0.00077     0.74860
      H   11    0.24951      0.00000     0.74949    0.00100     0.75049
 =======================================================================
   * Total *   -0.00000     11.99493    31.89545    0.10962    44.00000

 Normal termination of Gaussian 16 at Mon Dec 30 18:31:10 2019.
