 Gaussian 16, Revision A.03,

 ---------------------------------
 # opt=CalcAll B3LYP/6-31G* scf=qc
 ---------------------------------

 -------------------
 Title Card Required
 -------------------
 Symbolic Z-matrix:
 Charge =  0 Multiplicity = 1

 SCF Done:  E(RB3LYP) =  -477.095596054     a.u. after    9 cycles
 SCF Done:  E(RB3LYP) =  -477.095596241     a.u. after    3 cycles
 Optimization completed.
    -- Stationary point found.
 Normal termination of Gaussian 16 at Mon Dec 30 17:57:03 2019.

 ----------------------------------------------------------------------
 # freq B3LYP/6-31G* scf=qc volume NMR pop=NPA density=current Geom=All
 Check Guess=Read
 ----------------------------------------------------------------------

 Structure from the checkpoint file:  "3_2.chk"
 -------------------
 Title Card Required
 -------------------
 Charge =  0 Multiplicity = 1

 SCF Done:  E(RB3LYP) =  -477.095596241     a.u. after    1 cycles

      1  C    Isotropic =    38.6644   Anisotropy =   118.2471

      2  H    Isotropic =    24.0975   Anisotropy =     2.5134

      3  C    Isotropic =    93.8314   Anisotropy =    99.0574

      4  H    Isotropic =    25.9286   Anisotropy =     4.7462

      5  C    Isotropic =    35.2772   Anisotropy =   131.6615

      6  N    Isotropic =  -117.8363   Anisotropy =   268.6030

      7  O    Isotropic =   -44.4566   Anisotropy =   280.7062

      8  C    Isotropic =    66.3808   Anisotropy =   166.3009

      9  C    Isotropic =    69.7199   Anisotropy =   156.2262

     10  C    Isotropic =    68.2128   Anisotropy =   164.4534

     11  C    Isotropic =    67.1131   Anisotropy =   168.6323

     12  C    Isotropic =    67.4030   Anisotropy =   166.5751

     13  C    Isotropic =    69.1896   Anisotropy =   166.7244

     14  H    Isotropic =    24.8364   Anisotropy =     7.7290

     15  H    Isotropic =    24.9193   Anisotropy =     4.8166

     16  H    Isotropic =    24.9662   Anisotropy =     4.4170

     17  H    Isotropic =    24.8705   Anisotropy =     4.7874

     18  H    Isotropic =    23.8162   Anisotropy =     7.2583

  Exact polarizability: 152.025   1.877 100.765   0.000  -0.000  34.712
 Approx polarizability: 230.979  -8.130 187.070  -0.000   0.000  54.304

                      1                      2                      3
                      A                      A                      A
 Frequencies --      8.3494               114.0014               163.9512
 Red. masses --      4.4253                 4.9908                 4.8014
 Frc consts  --      0.0002                 0.0382                 0.0760
 IR Inten    --      4.8665                 0.7515                 4.2860

                      4                      5                      6
                      A                      A                      A
 Frequencies --    292.2792               350.6004               411.4689
 Red. masses --      4.6768                 7.2562                 2.9639
 Frc consts  --      0.2354                 0.5255                 0.2957
 IR Inten    --      0.7265                 0.2038                 0.0143

                      7                      8                      9
                      A                      A                      A
 Frequencies --    440.9641               507.5583               604.3844
 Red. masses --      5.1772                 3.5801                 5.0202
 Frc consts  --      0.5931                 0.5434                 1.0804
 IR Inten    --      7.0252                 0.5549                 3.8912

                     10                     11                     12
                      A                      A                      A
 Frequencies --    633.7528               694.7901               703.3800
 Red. masses --      6.4252                 6.4625                 3.9195
 Frc consts  --      1.5205                 1.8380                 1.1425
 IR Inten    --      0.0341                10.4026                10.1712

                     13                     14                     15
                      A                      A                      A
 Frequencies --    705.7959               776.6455               798.0380
 Red. masses --      1.7221                 1.2498                 2.2220
 Frc consts  --      0.5054                 0.4442                 0.8338
 IR Inten    --     23.3596                69.7575                 0.4114

                     16                     17                     18
                      A                      A                      A
 Frequencies --    856.7659               864.1777               913.1427
 Red. masses --      1.2935                 1.3194                 5.3549
 Frc consts  --      0.5594                 0.5805                 2.6308
 IR Inten    --      0.2077                 0.3538                34.5094

                     19                     20                     21
                      A                      A                      A
 Frequencies --    933.0828               946.9248               966.4722
 Red. masses --      1.4145                 7.6258                 9.1235
 Frc consts  --      0.7256                 4.0287                 5.0210
 IR Inten    --      2.1873                20.6364                 7.1676

                     22                     23                     24
                      A                      A                      A
 Frequencies --    972.8427              1001.6231              1019.4276
 Red. masses --      1.3456                 1.2664                 6.1707
 Frc consts  --      0.7503                 0.7485                 3.7783
 IR Inten    --      0.2219                 0.2134                 0.1370

                     25                     26                     27
                      A                      A                      A
 Frequencies --   1056.8822              1071.7671              1118.4413
 Red. masses --      2.5231                 1.5552                 1.6514
 Frc consts  --      1.6605                 1.0525                 1.2171
 IR Inten    --      2.0907                 4.0323                 2.9422

                     28                     29                     30
                      A                      A                      A
 Frequencies --   1137.6480              1162.8601              1194.8705
 Red. masses --      3.4231                 1.7820                 1.0988
 Frc consts  --      2.6103                 1.4197                 0.9243
 IR Inten    --      4.0365                16.3773                 0.0689

                     31                     32                     33
                      A                      A                      A
 Frequencies --   1218.0763              1325.3001              1342.8463
 Red. masses --      1.1405                 2.3612                 2.6051
 Frc consts  --      0.9970                 2.4435                 2.7678
 IR Inten    --      1.2590                 5.8917                 0.3345

                     34                     35                     36
                      A                      A                      A
 Frequencies --   1370.4001              1439.4258              1478.8458
 Red. masses --      2.0812                 3.8069                 3.5539
 Frc consts  --      2.3028                 4.6474                 4.5793
 IR Inten    --      0.6570                40.4652                22.2762

                     37                     38                     39
                      A                      A                      A
 Frequencies --   1505.9210              1558.2469              1608.7375
 Red. masses --      2.6894                 2.6483                 5.4418
 Frc consts  --      3.5934                 3.7887                 8.2978
 IR Inten    --     26.5494                 3.7802                32.2467

                     40                     41                     42
                      A                      A                      A
 Frequencies --   1646.7470              1666.9955              3184.0353
 Red. masses --      5.8507                 5.4767                 1.0850
 Frc consts  --      9.3479                 8.9668                 6.4810
 IR Inten    --      1.9311                 0.0121                 1.0183

                     43                     44                     45
                      A                      A                      A
 Frequencies --   3192.8710              3202.5230              3211.4583
 Red. masses --      1.0884                 1.0923                 1.0965
 Frc consts  --      6.5371                 6.6004                 6.6631
 IR Inten    --      6.9230                32.9830                19.9252

                     46                     47                     48
                      A                      A                      A
 Frequencies --   3225.3833              3281.4354              3303.8501
 Red. masses --      1.0936                 1.0910                 1.1070
 Frc consts  --      6.7032                 6.9215                 7.1191
 IR Inten    --      3.1979                 0.6715                 0.7706

 - Thermochemistry -
 -------------------
 Temperature   298.150 Kelvin.  Pressure   1.00000 Atm.
 Atom     1 has atomic number  6 and mass  12.00000

 Molecular mass:   145.05276 amu.
 Principal axes and moments of inertia in atomic units:
                           1         2         3
     Eigenvalues --   502.752312652.820613155.57292
           X            0.99992   0.01239   0.00000
           Y           -0.01239   0.99992  -0.00000
           Z           -0.00000   0.00000   1.00000
 This molecule is an asymmetric top.
 Rotational symmetry number  1.
 Warning -- assumption of classical behavior for rotation
           may cause significant error
 Rotational temperatures (Kelvin)      0.17228     0.03265     0.02745
 Rotational constants (GHZ):           3.58972     0.68031     0.57192
 Zero-point vibrational energy     365973.5 (Joules/Mol)
                                   87.46976 (Kcal/Mol)
 Warning -- explicit consideration of   9 degrees of freedom as
           vibrations may cause significant error
 Vibrational temperatures:     12.01   164.02   235.89   420.52   504.44
          (Kelvin)            592.01   634.45   730.26   869.57   911.83
                              999.65  1012.01  1015.48  1117.42  1148.20
                             1232.70  1243.36  1313.81  1342.50  1362.41
                             1390.54  1399.70  1441.11  1466.73  1520.62
                             1542.03  1609.19  1636.82  1673.10  1719.15
                             1752.54  1906.81  1932.06  1971.70  2071.01
                             2127.73  2166.68  2241.97  2314.61  2369.30
                             2398.43  4581.12  4593.83  4607.72  4620.57
                             4640.61  4721.25  4753.50

 Zero-point correction=                           0.139392 (Hartree/Particle)
 Thermal correction to Energy=                    0.147491
 Thermal correction to Enthalpy=                  0.148435
 Thermal correction to Gibbs Free Energy=         0.103998
 Sum of electronic and zero-point Energies=           -476.956204
 Sum of electronic and thermal Energies=              -476.948105
 Sum of electronic and thermal Enthalpies=            -476.947161
 Sum of electronic and thermal Free Energies=         -476.991598

                     E (Thermal)             CV                S
                      KCal/Mol        Cal/Mol-Kelvin    Cal/Mol-Kelvin
 Total                   92.552             31.544             93.525
 Electronic               0.000              0.000              0.000
 Translational            0.889              2.981             40.827
 Rotational               0.889              2.981             29.822
 Vibrational             90.774             25.582             22.877
 Vibration     1          0.593              1.987              8.369
 Vibration     2          0.607              1.938              3.200
 Vibration     3          0.623              1.887              2.504
 Vibration     4          0.688              1.688              1.461
 Vibration     5          0.728              1.574              1.163
 Vibration     6          0.775              1.445              0.921
 Vibration     7          0.801              1.381              0.824
 Vibration     8          0.863              1.233              0.639
 Vibration     9          0.963              1.023              0.442

 Optimization completed.
    -- Stationary point found.
 Normal termination of Gaussian 16 at Mon Dec 30 17:59:01 2019.
 Gaussian 16:  ES64L-G16RevA.03 25-Dec-2016

 ----------------------------------------------------------------------
 # TD(NStates=10, Root=1) B3LYP/6-31G* scf=qc volume pop=NPA density=cu
 rrent Geom=AllCheck Guess=Read
 ----------------------------------------------------------------------

 Structure from the checkpoint file:  "3_3.chk"
 -------------------
 Title Card Required
 -------------------
 Charge =  0 Multiplicity = 1

                         Standard orientation:
 ---------------------------------------------------------------------
 Center     Atomic      Atomic             Coordinates (Angstroms)
 Number     Number       Type             X           Y           Z
 ---------------------------------------------------------------------
      1          6           0        3.146760    0.583887    0.000021
      2          1           0        4.150840    0.983815    0.000036
      3          6           0        1.913491    1.148256    0.000041
      4          1           0        1.670539    2.199438    0.000083
      5          6           0        1.025341    0.023390    0.000001
      6          7           0        1.701758   -1.111672   -0.000042
      7          8           0        3.049682   -0.758137   -0.000028
      8          6           0       -0.449045    0.015498    0.000002
      9          6           0       -1.172816    1.216658   -0.000022
     10          6           0       -2.567229    1.205100   -0.000024
     11          6           0       -3.258012   -0.007055   -0.000001
     12          6           0       -2.544635   -1.208986    0.000024
     13          6           0       -1.152902   -1.200755    0.000026
     14          1           0       -0.648364    2.167758   -0.000043
     15          1           0       -3.112587    2.144952   -0.000044
     16          1           0       -4.344581   -0.016353   -0.000003
     17          1           0       -3.075587   -2.157094    0.000042
     18          1           0       -0.595748   -2.131675    0.000046
 ---------------------------------------------------------------------

 SCF Done:  E(RB3LYP) =  -477.095596241     a.u. after    1 cycles

 Excitation energies and oscillator strengths:

 Excited State   1:      Singlet-A      4.9969 eV  248.12 nm  f=0.0071  <S**2>=0.000
      37 -> 39         0.56882
      38 -> 40         0.40071
 This state for optimization and/or second-order correction.
 Total Energy, E(TD-HF/TD-DFT) =  -476.911963435
 Copying the excited state density for this state as the 1-particle RhoCI density.

 Excited State   2:      Singlet-A      5.1780 eV  239.44 nm  f=0.2939  <S**2>=0.000
      36 -> 39        -0.15794
      37 -> 40        -0.12771
      38 -> 39         0.66766

 Excited State   3:      Singlet-A      5.6419 eV  219.76 nm  f=0.0058  <S**2>=0.000
      36 -> 39         0.62509
      38 -> 39         0.15223
      38 -> 41        -0.24550

 Excited State   4:      Singlet-A      5.9668 eV  207.79 nm  f=0.1501  <S**2>=0.000
      37 -> 39        -0.33974
      37 -> 41        -0.22917
      38 -> 40         0.50256
      38 -> 41        -0.24471

 Excited State   5:      Singlet-A      5.9820 eV  207.26 nm  f=0.0042  <S**2>=0.000
      35 -> 39         0.69590

 Excited State   6:      Singlet-A      6.1891 eV  200.33 nm  f=0.0354  <S**2>=0.000
      34 -> 39         0.10561
      36 -> 39         0.22630
      37 -> 39        -0.12872
      37 -> 40         0.29571
      37 -> 41        -0.26937
      38 -> 41         0.49645

 Excited State   7:      Singlet-A      6.4698 eV  191.63 nm  f=0.0192  <S**2>=0.000
      36 -> 40         0.66632
      37 -> 41         0.17050

 Excited State   8:      Singlet-A      6.6745 eV  185.76 nm  f=0.3287  <S**2>=0.000
      34 -> 39        -0.35851
      37 -> 40         0.52657
      38 -> 40        -0.11330
      38 -> 41        -0.21740

 Excited State   9:      Singlet-A      6.8578 eV  180.79 nm  f=0.1451  <S**2>=0.000
      34 -> 39        -0.24760
      34 -> 40        -0.18666
      36 -> 40        -0.13860
      37 -> 39        -0.11649
      37 -> 41         0.51790
      38 -> 40         0.21577
      38 -> 41         0.19491

 Excited State  10:      Singlet-A      7.1062 eV  174.47 nm  f=0.3107  <S**2>=0.000
      34 -> 39        -0.38807
      36 -> 41         0.40684
      37 -> 40        -0.25597
      37 -> 41        -0.15983
      38 -> 41         0.11038
      38 -> 42         0.22949

 The electronic state is 1-A.
 Alpha  occ. eigenvalues --  -19.23811 -14.37705 -10.25863 -10.23347 -10.20861
 Alpha  occ. eigenvalues --  -10.20146 -10.19866 -10.19624 -10.19570 -10.19414
 Alpha  occ. eigenvalues --  -10.19258  -1.14219  -0.88379  -0.84875  -0.79639
 Alpha  occ. eigenvalues --   -0.75300  -0.74936  -0.63896  -0.62676  -0.59604
 Alpha  occ. eigenvalues --   -0.57022  -0.54462  -0.50138  -0.47198  -0.46780
 Alpha  occ. eigenvalues --   -0.45717  -0.43558  -0.42538  -0.41500  -0.39027
 Alpha  occ. eigenvalues --   -0.37787  -0.35352  -0.34918  -0.31515  -0.30311
 Alpha  occ. eigenvalues --   -0.26827  -0.25495  -0.23820
 Alpha virt. eigenvalues --   -0.03850  -0.00640   0.01033   0.08087   0.08579
 Alpha virt. eigenvalues --    0.10471   0.11190   0.13729   0.14805   0.16971
 Alpha virt. eigenvalues --    0.17718   0.18572   0.19344   0.20398   0.26968

 Mulliken charges:
               1
     1  C    0.138214
     2  H    0.164339
     3  C   -0.264921
     4  H    0.141935
     5  C    0.248736
     6  N   -0.276567
     7  O   -0.328337
     8  C    0.127984
     9  C   -0.166428
    10  C   -0.133413
    11  C   -0.130292
    12  C   -0.122564
    13  C   -0.171187
    14  H    0.148609
    15  H    0.147742
    16  H    0.140182
    17  H    0.153588
    18  H    0.182379
 Sum of Mulliken charges =   0.00000

 Dipole moment (field-independent basis, Debye):
    X=             -2.5650    Y=              2.7580    Z=              0.0001  Tot=              3.7664
 Quadrupole moment (field-independent basis, Debye-Ang):
   XX=            -54.0556   YY=            -58.1093   ZZ=            -65.8732
   XY=              7.3220   XZ=              0.0003   YZ=             -0.0002

 Summary of Natural Population Analysis:

                                       Natural Population
                Natural  -----------------------------------------------
    Atom  No    Charge         Core      Valence    Rydberg      Total
 -----------------------------------------------------------------------
      C    1    0.12069      1.99909     3.85655    0.02367     5.87931
      H    2    0.22848      0.00000     0.77105    0.00048     0.77152
      C    3   -0.35953      1.99900     4.34947    0.01106     6.35953
      H    4    0.24481      0.00000     0.75473    0.00046     0.75519
      C    5    0.08629      1.99921     3.88825    0.02624     5.91371
      N    6   -0.17443      1.99937     5.15167    0.02339     7.17443
      O    7   -0.31236      1.99977     6.29814    0.01444     8.31236
      C    8   -0.06539      1.99903     4.05015    0.01621     6.06539
      C    9   -0.15495      1.99909     4.14083    0.01504     6.15495
      C   10   -0.20131      1.99914     4.18513    0.01703     6.20131
      C   11   -0.26571      1.99915     4.25006    0.01651     6.26571
      C   12   -0.16380      1.99914     4.14811    0.01655     6.16380
      C   13   -0.18638      1.99910     4.17048    0.01681     6.18638
      H   14    0.23195      0.00000     0.76712    0.00093     0.76805
      H   15    0.23762      0.00000     0.76156    0.00082     0.76238
      H   16    0.23789      0.00000     0.76132    0.00079     0.76211
      H   17    0.23761      0.00000     0.76157    0.00082     0.76239
      H   18    0.25851      0.00000     0.74017    0.00132     0.74149
 =======================================================================
   * Total *    0.00000     21.99109    53.80635    0.20256    76.00000

 Normal termination of Gaussian 16 at Mon Dec 30 18:01:31 2019.
