 Gaussian 16, Revision A.03,

 -------------------------
 # opt b3lyp/6-31G* scf=qc
 -------------------------

 -------------------
 Title Card Required
 -------------------
 Symbolic Z-matrix:
 Charge =  0 Multiplicity = 1

 SCF Done:  E(RB3LYP) =  -477.091054771     a.u. after    9 cycles
 SCF Done:  E(RB3LYP) =  -477.092803443     a.u. after    7 cycles
 SCF Done:  E(RB3LYP) =  -477.093026920     a.u. after    5 cycles
 SCF Done:  E(RB3LYP) =  -477.093047197     a.u. after    5 cycles
 SCF Done:  E(RB3LYP) =  -477.093061785     a.u. after    3 cycles
 SCF Done:  E(RB3LYP) =  -477.093065826     a.u. after    3 cycles
 SCF Done:  E(RB3LYP) =  -477.093067274     a.u. after    3 cycles
 SCF Done:  E(RB3LYP) =  -477.093067983     a.u. after    3 cycles
 SCF Done:  E(RB3LYP) =  -477.093068506     a.u. after    3 cycles
 SCF Done:  E(RB3LYP) =  -477.093068614     a.u. after    2 cycles
 Optimization completed.
    -- Stationary point found.
 Normal termination of Gaussian 16 at Mon Aug 27 11:45:48 2018.

 ----------------------------------------------------------------------
 # freq b3lyp/6-31G* volume NMR pop=NPA density=current Geom=AllCheck G
 uess=Read
 ----------------------------------------------------------------------

 Structure from the checkpoint file:  "science_add_12.chk"
 -------------------
 Title Card Required
 -------------------
 Charge =  0 Multiplicity = 1

 SCF Done:  E(RB3LYP) =  -477.093068614     A.U. after    1 cycles

      1  C    Isotropic =    43.0125   Anisotropy =   116.7329

      2  H    Isotropic =    23.8705   Anisotropy =     5.1152

      3  C    Isotropic =    72.1015   Anisotropy =    96.5553

      4  C    Isotropic =    48.9079   Anisotropy =   126.9531

      5  H    Isotropic =    24.1578   Anisotropy =     5.5660

      6  N    Isotropic =  -129.7501   Anisotropy =   283.9628

      7  O    Isotropic =   -55.6974   Anisotropy =   292.4140

      8  C    Isotropic =    66.1219   Anisotropy =   169.2390

      9  C    Isotropic =    69.4546   Anisotropy =   150.9313

     10  C    Isotropic =    67.3535   Anisotropy =   166.3245

     11  C    Isotropic =    68.9797   Anisotropy =   166.7125

     12  C    Isotropic =    67.3062   Anisotropy =   166.7173

     13  C    Isotropic =    69.8812   Anisotropy =   153.3733

     14  H    Isotropic =    24.8694   Anisotropy =     7.5715

     15  H    Isotropic =    24.9036   Anisotropy =     4.7594

     16  H    Isotropic =    25.0206   Anisotropy =     4.2254

     17  H    Isotropic =    24.8803   Anisotropy =     4.7841

     18  H    Isotropic =    24.9181   Anisotropy =     7.5276

  Exact polarizability: 144.484  -1.464 102.719  -0.492  -0.365  38.659
 Approx polarizability: 226.273  -8.004 186.186  -2.236   0.563  61.263

                      1                      2                      3
                      A                      A                      A
 Frequencies --     49.3063               109.8088               138.4758
 Red. masses --      3.9083                 5.6682                 5.0899
 Frc consts  --      0.0056                 0.0403                 0.0575
 IR Inten    --      0.2443                 0.4143                 1.3646

                      4                      5                      6
                      A                      A                      A
 Frequencies --    303.0611               343.5149               415.0717
 Red. masses --      5.0547                 7.3021                 2.9983
 Frc consts  --      0.2735                 0.5077                 0.3044
 IR Inten    --      2.5323                 0.1973                 0.0224

                      7                      8                      9
                      A                      A                      A
 Frequencies --    427.7944               521.2632               614.1555
 Red. masses --      4.6964                 3.4331                 4.2578
 Frc consts  --      0.5064                 0.5496                 0.9462
 IR Inten    --      2.1803                10.2757                 1.7385

                     10                     11                     12
                      A                      A                      A
 Frequencies --    634.2177               666.8799               692.1067
 Red. masses --      6.4594                 3.4775                 6.4602
 Frc consts  --      1.5308                 0.9112                 1.8232
 IR Inten    --      0.0678                 3.3600                 9.9293

                     13                     14                     15
                      A                      A                      A
 Frequencies --    710.5062               777.9875               831.2556
 Red. masses --      1.9166                 1.7449                 1.5139
 Frc consts  --      0.5701                 0.6223                 0.6164
 IR Inten    --     21.2897                48.3468                 7.7214

                     16                     17                     18
                      A                      A                      A
 Frequencies --    856.0988               890.2402               895.9263
 Red. masses --      1.2603                 5.9940                 1.3348
 Frc consts  --      0.5442                 2.7989                 0.6313
 IR Inten    --      0.3220                21.1292                10.1055

                     19                     20                     21
                      A                      A                      A
 Frequencies --    925.4961               932.9285               965.5167
 Red. masses --      1.4344                 8.3839                 1.3524
 Frc consts  --      0.7239                 4.2993                 0.7428
 IR Inten    --      1.8012                 2.8748                 0.2877

                     22                     23                     24
                      A                      A                      A
 Frequencies --    969.4423               996.1617              1017.9508
 Red. masses --      6.5629                 1.2531                 6.0820
 Frc consts  --      3.6341                 0.7327                 3.7132
 IR Inten    --     27.2348                 0.0980                 0.0003

                     25                     26                     27
                      A                      A                      A
 Frequencies --   1057.6908              1097.8302              1115.0049
 Red. masses --      2.4788                 2.1416                 1.6663
 Frc consts  --      1.6339                 1.5207                 1.2206
 IR Inten    --      0.5252                 2.4788                 4.9894

                     28                     29                     30
                      A                      A                      A
 Frequencies --   1163.3986              1194.5374              1218.2220
 Red. masses --      2.4535                 1.0985                 1.1468
 Frc consts  --      1.9565                 0.9235                 1.0028
 IR Inten    --     51.9429                 0.1488                 0.0791

                     31                     32                     33
                      A                      A                      A
 Frequencies --   1235.9678              1311.3696              1338.9186
 Red. masses --      1.5648                 2.4767                 2.6098
 Frc consts  --      1.4084                 2.5094                 2.7566
 IR Inten    --     13.6857                 2.6243                10.2224

                     34                     35                     36
                      A                      A                      A
 Frequencies --   1366.7124              1395.8264              1487.6114
 Red. masses --      2.5775                 2.7777                 4.1916
 Frc consts  --      2.8367                 3.1886                 5.4652
 IR Inten    --      3.0868                 8.4619                14.0052

                     37                     38                     39
                      A                      A                      A
 Frequencies --   1501.5588              1550.5389              1635.0692
 Red. masses --      2.6201                 2.4617                 5.2945
 Frc consts  --      3.4806                 3.4870                 8.3396
 IR Inten    --      1.0392                 6.3124                 2.8162

                     40                     41                     42
                      A                      A                      A
 Frequencies --   1654.8925              1670.1240              3182.2246
 Red. masses --      5.8255                 5.7699                 1.0850
 Frc consts  --      9.3998                 9.4824                 6.4733
 IR Inten    --      6.5018                17.3004                 5.3028

                     43                     44                     45
                      A                      A                      A
 Frequencies --   3186.9080              3196.0685              3202.8570
 Red. masses --      1.0872                 1.0908                 1.0945
 Frc consts  --      6.5061                 6.5650                 6.6151
 IR Inten    --      0.1027                12.7488                35.7634

                     46                     47                     48
                      A                      A                      A
 Frequencies --   3212.8071              3258.6594              3287.8000
 Red. masses --      1.0981                 1.0954                 1.0982
 Frc consts  --      6.6781                 6.8536                 6.9942
 IR Inten    --     15.9069                 1.2609                 0.1915

 - Thermochemistry -
 -------------------
 Temperature   298.150 Kelvin.  Pressure   1.00000 Atm.
 Atom     1 has atomic number  6 and mass  12.00000

 Molecular mass:   145.05276 amu.
 Principal axes and moments of inertia in atomic units:
                           1         2         3
     Eigenvalues --   502.886452758.945863214.78514
           X            1.00000  -0.00020  -0.00008
           Y            0.00020   0.99999  -0.00325
           Z            0.00008   0.00325   0.99999
 This molecule is an asymmetric top.
 Rotational symmetry number  1.
 Warning -- assumption of classical behavior for rotation
           may cause significant error
 Rotational temperatures (Kelvin)      0.17223     0.03139     0.02694
 Rotational constants (GHZ):           3.58876     0.65414     0.56139
 Zero-point vibrational energy     366103.7 (Joules/Mol)
                                   87.50089 (Kcal/Mol)
 Warning -- explicit consideration of   9 degrees of freedom as
           vibrations may cause significant error
 Vibrational temperatures:     70.94   157.99   199.24   436.04   494.24
          (Kelvin)            597.20   615.50   749.98   883.63   912.50
                              959.49   995.79  1022.26  1119.35  1195.99
                             1231.74  1280.86  1289.04  1331.58  1342.28
                             1389.16  1394.81  1433.25  1464.60  1521.78
                             1579.53  1604.24  1673.87  1718.67  1752.75
                             1778.28  1886.77  1926.41  1966.39  2008.28
                             2140.34  2160.41  2230.88  2352.50  2381.02
                             2402.94  4578.51  4585.25  4598.43  4608.20
                             4622.51  4688.48  4730.41

 Zero-point correction=                           0.139442 (Hartree/Particle)
 Thermal correction to Energy=                    0.147492
 Thermal correction to Enthalpy=                  0.148436
 Thermal correction to Gibbs Free Energy=         0.105479
 Sum of electronic and zero-point Energies=           -476.953627
 Sum of electronic and thermal Energies=              -476.945577
 Sum of electronic and thermal Enthalpies=            -476.944633
 Sum of electronic and thermal Free Energies=         -476.987589

                     E (Thermal)             CV                S
                      KCal/Mol        Cal/Mol-Kelvin    Cal/Mol-Kelvin
 Total                   92.552             31.499             90.410
 Electronic               0.000              0.000              0.000
 Translational            0.889              2.981             40.827
 Rotational               0.889              2.981             29.879
 Vibrational             90.775             25.537             19.704
 Vibration     1          0.595              1.978              4.845
 Vibration     2          0.606              1.941              3.272
 Vibration     3          0.614              1.915              2.825
 Vibration     4          0.695              1.668              1.400
 Vibration     5          0.722              1.588              1.196
 Vibration     6          0.778              1.438              0.909
 Vibration     7          0.789              1.410              0.866
 Vibration     8          0.876              1.203              0.607
 Vibration     9          0.974              1.002              0.426

 Optimization completed.
    -- Stationary point found.
 Normal termination of Gaussian 16 at Mon Aug 27 11:49:06 2018.
 Gaussian 16:  ES64L-G16RevA.03 25-Dec-2016

 ----------------------------------------------------------------------
 # TD(NStates=10, Root=1) b3lyp/6-31G* volume pop=NPA density=current G
 eom=AllCheck Guess=Read
 ----------------------------------------------------------------------

 Structure from the checkpoint file:  "science_add_13.chk"
 -------------------
 Title Card Required
 -------------------
 Charge =  0 Multiplicity = 1

                         Standard orientation:
 ---------------------------------------------------------------------
 Center     Atomic      Atomic             Coordinates (Angstroms)
 Number     Number       Type             X           Y           Z
 ---------------------------------------------------------------------
      1          6           0        1.869472   -1.031514   -0.307933
      2          1           0        1.726174   -2.052074   -0.633223
      3          6           0        1.006329   -0.015242   -0.003144
      4          6           0        1.907559    1.052221    0.312576
      5          1           0        1.667735    2.059900    0.628772
      6          7           0        3.167433    0.708167    0.212557
      7          8           0        3.146943   -0.631968   -0.189505
      8          6           0       -0.463085   -0.008251    0.001478
      9          6           0       -1.190899   -1.194439    0.196489
     10          6           0       -2.583898   -1.185792    0.188323
     11          6           0       -3.279319    0.010084   -0.003241
     12          6           0       -2.568110    1.196507   -0.190065
     13          6           0       -1.174249    1.187598   -0.190846
     14          1           0       -0.660087   -2.125862    0.375136
     15          1           0       -3.127483   -2.114057    0.342433
     16          1           0       -4.365712    0.017165   -0.004148
     17          1           0       -3.098838    2.132412   -0.342558
     18          1           0       -0.632173    2.114061   -0.360091
 ---------------------------------------------------------------------

 SCF Done:  E(RB3LYP) =  -477.093068614     A.U. after    1 cycles

 Excitation energies and oscillator strengths:

 Excited State   1:      Singlet-A      5.0386 eV  246.07 nm  f=0.0151  <S**2>=0.000
      37 -> 39         0.39219
      37 -> 40         0.11330
      38 -> 39        -0.26306
      38 -> 40         0.47108
      38 -> 41        -0.17997
 This state for optimization and/or second-order correction.
 Total Energy, E(TD-HF/TD-DFT) =  -476.907901912
 Copying the excited state density for this state as the 1-particle RhoCI density.

 Excited State   2:      Singlet-A      5.2184 eV  237.59 nm  f=0.2434  <S**2>=0.000
      37 -> 39         0.21563
      38 -> 39         0.63523
      38 -> 40         0.13649
      38 -> 41        -0.12368

 Excited State   3:      Singlet-A      5.5432 eV  223.67 nm  f=0.0913  <S**2>=0.000
      36 -> 39        -0.20499
      37 -> 39        -0.10794
      37 -> 40        -0.10158
      38 -> 40         0.34928
      38 -> 41         0.55034

 Excited State   4:      Singlet-A      5.9142 eV  209.64 nm  f=0.0703  <S**2>=0.000
      37 -> 39         0.47538
      37 -> 40        -0.21454
      37 -> 41        -0.30277
      38 -> 40        -0.25725
      38 -> 41         0.22325

 Excited State   5:      Singlet-A      6.2821 eV  197.36 nm  f=0.0141  <S**2>=0.000
      35 -> 39         0.13363
      36 -> 39         0.42208
      36 -> 40        -0.14505
      36 -> 41         0.13698
      37 -> 40        -0.40079
      37 -> 41        -0.19242
      38 -> 40         0.19224

 Excited State   6:      Singlet-A      6.4111 eV  193.39 nm  f=0.0229  <S**2>=0.000
      34 -> 39        -0.24132
      34 -> 40         0.13328
      35 -> 39         0.49664
      35 -> 41        -0.19053
      36 -> 39         0.12752
      36 -> 41        -0.12500
      37 -> 40         0.11839
      37 -> 41         0.19710
      38 -> 41         0.14140

 Excited State   7:      Singlet-A      6.4428 eV  192.44 nm  f=0.0419  <S**2>=0.000
      35 -> 39        -0.25117
      35 -> 40         0.11412
      35 -> 41         0.10349
      36 -> 39         0.38823
      36 -> 40         0.30743
      37 -> 41         0.33806
      38 -> 41         0.18175

 Excited State   8:      Singlet-A      6.7586 eV  183.45 nm  f=0.2732  <S**2>=0.000
      34 -> 39         0.44994
      35 -> 39         0.24264
      36 -> 39        -0.14798
      37 -> 40        -0.29595
      37 -> 41         0.29190

 Excited State   9:      Singlet-A      6.9421 eV  178.60 nm  f=0.3556  <S**2>=0.000
      34 -> 39         0.33119
      34 -> 41        -0.12402
      36 -> 39         0.25859
      36 -> 40        -0.23267
      36 -> 41        -0.15670
      37 -> 40         0.33885
      37 -> 41        -0.16652
      38 -> 41         0.12909
      38 -> 42        -0.22130

 Excited State  10:      Singlet-A      6.9953 eV  177.24 nm  f=0.0310  <S**2>=0.000
      34 -> 40        -0.20458
      34 -> 41        -0.14512
      35 -> 39         0.29182
      35 -> 40         0.32023
      35 -> 41         0.32933
      36 -> 40         0.23238
      36 -> 41         0.13953
      37 -> 41        -0.14059
      38 -> 42        -0.10825

 The electronic state is 1-A.
 Alpha  occ. eigenvalues --  -19.24052 -14.38502 -10.25932 -10.22935 -10.21497
 Alpha  occ. eigenvalues --  -10.21151 -10.20040 -10.20019 -10.19950 -10.19931
 Alpha  occ. eigenvalues --  -10.19812  -1.14449  -0.87542  -0.86410  -0.81078
 Alpha  occ. eigenvalues --   -0.75411  -0.74565  -0.64093  -0.62507  -0.59904
 Alpha  occ. eigenvalues --   -0.58690  -0.54740  -0.50834  -0.47559  -0.47097
 Alpha  occ. eigenvalues --   -0.45856  -0.43339  -0.42949  -0.41883  -0.39658
 Alpha  occ. eigenvalues --   -0.37827  -0.35912  -0.35183  -0.31314  -0.30779
 Alpha  occ. eigenvalues --   -0.28661  -0.25978  -0.23324
 Alpha virt. eigenvalues --   -0.03219  -0.01209  -0.00413   0.07525   0.08422
 Alpha virt. eigenvalues --    0.09046   0.11376   0.13787   0.14780   0.15172
 Alpha virt. eigenvalues --    0.16851   0.17204   0.19938   0.20470   0.25956

 Mulliken charges:
               1
     1  C    0.103434
     2  H    0.185064
     3  C   -0.034999
     4  C    0.028579
     5  H    0.173418
     6  N   -0.158919
     7  O   -0.320638
     8  C    0.130203
     9  C   -0.196152
    10  C   -0.141375
    11  C   -0.113460
    12  C   -0.156647
    13  C   -0.169888
    14  H    0.124469
    15  H    0.136565
    16  H    0.138995
    17  H    0.133023
    18  H    0.138327
 Sum of Mulliken charges =   0.00000

 Dipole moment (field-independent basis, Debye):
    X=             -2.8158    Y=             -0.4517    Z=             -0.2148  Tot=              2.8598
 Quadrupole moment (field-independent basis, Debye-Ang):
   XX=            -71.0191   YY=            -54.7781   ZZ=            -65.3051
   XY=             -2.1067   XZ=             -0.7436   YZ=              0.4541

 Summary of Natural Population Analysis:

                                       Natural Population
                Natural  -----------------------------------------------
    Atom  No    Charge         Core      Valence    Rydberg      Total
 -----------------------------------------------------------------------
      C    1    0.15545      1.99900     3.82032    0.02523     5.84455
      H    2    0.23629      0.00000     0.76299    0.00072     0.76371
      C    3   -0.16255      1.99903     4.14747    0.01605     6.16255
      C    4   -0.03251      1.99926     4.00968    0.02357     6.03251
      H    5    0.24726      0.00000     0.75213    0.00061     0.75274
      N    6   -0.12296      1.99947     5.09921    0.02428     7.12296
      O    7   -0.30636      1.99977     6.29170    0.01489     8.30636
      C    8   -0.03845      1.99903     4.02348    0.01594     6.03845
      C    9   -0.26216      1.99909     4.24544    0.01763     6.26216
      C   10   -0.22276      1.99913     4.20588    0.01774     6.22276
      C   11   -0.19453      1.99913     4.17957    0.01584     6.19453
      C   12   -0.27918      1.99914     4.26156    0.01848     6.27918
      C   13   -0.17793      1.99908     4.16286    0.01599     6.17793
      H   14    0.22761      0.00000     0.77116    0.00123     0.77239
      H   15    0.23389      0.00000     0.76525    0.00086     0.76611
      H   16    0.23479      0.00000     0.76436    0.00085     0.76521
      H   17    0.23476      0.00000     0.76442    0.00082     0.76524
      H   18    0.22933      0.00000     0.76959    0.00108     0.77067
 =======================================================================
   * Total *   -0.00000     21.99113    53.79707    0.21180    76.00000

 Normal termination of Gaussian 16 at Mon Aug 27 11:53:28 2018.
