 Gaussian 16, Revision A.03,

 ---------------------------------
 # opt=CalcAll B3LYP/6-31G* scf=qc
 ---------------------------------

 -------------------
 Title Card Required
 -------------------
 Symbolic Z-matrix:
 Charge =  0 Multiplicity = 1

 SCF Done:  E(RB3LYP) =  -675.559531655     a.u. after    8 cycles
 SCF Done:  E(RB3LYP) =  -675.559531665     a.u. after    2 cycles
 Optimization completed.
    -- Stationary point found.
 Normal termination of Gaussian 16 at Mon Dec 30 17:58:14 2019.

 ----------------------------------------------------------------------
 # freq B3LYP/6-31G* scf=qc volume NMR pop=NPA density=current Geom=All
 Check Guess=Read
 ----------------------------------------------------------------------

 Structure from the checkpoint file:  "4_2.chk"
 -------------------
 Title Card Required
 -------------------
 Charge =  0 Multiplicity = 1

 SCF Done:  E(RB3LYP) =  -675.559531665     a.u. after    1 cycles

      1  C    Isotropic =    33.7314   Anisotropy =   118.4790

      2  C    Isotropic =    89.6698   Anisotropy =    96.1070

      3  H    Isotropic =    25.7639   Anisotropy =     6.3893

      4  C    Isotropic =    47.0806   Anisotropy =   132.2412

      5  H    Isotropic =    24.3390   Anisotropy =     3.0323

      6  N    Isotropic =  -124.9832   Anisotropy =   288.9585

      7  O    Isotropic =   -50.9819   Anisotropy =   276.5694

      8  C    Isotropic =    85.8517   Anisotropy =   118.7368

      9  C    Isotropic =    34.3069   Anisotropy =    92.5558

     10  C    Isotropic =    82.2407   Anisotropy =   133.0776

     11  C    Isotropic =    66.4114   Anisotropy =   170.5114

     12  C    Isotropic =    83.9892   Anisotropy =   131.3718

     13  C    Isotropic =    35.1098   Anisotropy =    88.4295

     14  F    Isotropic =   294.3993   Anisotropy =   127.0142

     15  F    Isotropic =   287.1267   Anisotropy =   150.1388

     16  H    Isotropic =    25.4566   Anisotropy =     4.7897

     17  H    Isotropic =    24.9822   Anisotropy =     3.8851

     18  H    Isotropic =    25.5016   Anisotropy =     4.7961

  Exact polarizability: 163.457  -5.613 103.419  -0.726   1.175  36.966
 Approx polarizability: 252.000  -5.701 197.638  -0.920   3.147  58.187

                      1                      2                      3
                      A                      A                      A
 Frequencies --     14.3950                81.5167               164.7317
 Red. masses --      6.0801                 6.7042                 8.0780
 Frc consts  --      0.0007                 0.0262                 0.1292
 IR Inten    --      4.3554                 1.4521                 1.5978

                      4                      5                      6
                      A                      A                      A
 Frequencies --    195.6150               245.6308               290.3812
 Red. masses --      8.8073                 4.8556                13.9288
 Frc consts  --      0.1986                 0.1726                 0.6920
 IR Inten    --      0.2263                 0.0006                 0.8388

                      7                      8                      9
                      A                      A                      A
 Frequencies --    324.5054               342.8129               398.9659
 Red. masses --      7.7128                 6.2614                11.4606
 Frc consts  --      0.4785                 0.4335                 1.0748
 IR Inten    --      3.6178                 0.4727                 0.1047

                     10                     11                     12
                      A                      A                      A
 Frequencies --    520.5235               523.5237               574.8575
 Red. masses --      6.1934                 4.8539                 6.1175
 Frc consts  --      0.9887                 0.7838                 1.1911
 IR Inten    --      1.8530                 1.2104                 4.6277

                     13                     14                     15
                      A                      A                      A
 Frequencies --    587.5514               594.8913               638.1207
 Red. masses --      7.9605                 5.3141                 5.9534
 Frc consts  --      1.6191                 1.1080                 1.4283
 IR Inten    --     10.2797                 0.1715                 2.3024

                     16                     17                     18
                      A                      A                      A
 Frequencies --    671.2179               713.5718               771.9197
 Red. masses --      5.4029                 5.7468                 7.7575
 Frc consts  --      1.4342                 1.7241                 2.7234
 IR Inten    --      1.3854                 0.0474                 0.7304

                     19                     20                     21
                      A                      A                      A
 Frequencies --    782.5603               807.1709               884.0092
 Red. masses --      1.3145                 1.2486                 1.3772
 Frc consts  --      0.4743                 0.4793                 0.6341
 IR Inten    --     59.6185                31.1193                 0.0518

                     22                     23                     24
                      A                      A                      A
 Frequencies --    906.6445               926.4617               946.7470
 Red. masses --      1.3070                 5.8515                 7.8905
 Frc consts  --      0.6330                 2.9592                 4.1670
 IR Inten    --      3.3122                18.4937                 4.7426

                     25                     26                     27
                      A                      A                      A
 Frequencies --    963.0764               966.5230              1038.8034
 Red. masses --      1.2523                 9.1557                 5.2350
 Frc consts  --      0.6844                 5.0393                 3.3284
 IR Inten    --      0.6440                13.1535                78.4145

                     28                     29                     30
                      A                      A                      A
 Frequencies --   1070.2583              1085.7388              1115.1843
 Red. masses --      2.0790                 1.9438                 1.8507
 Frc consts  --      1.4031                 1.3501                 1.3561
 IR Inten    --      1.0253                 3.8897                 2.3294

                     31                     32                     33
                      A                      A                      A
 Frequencies --   1186.4499              1232.9390              1268.2449
 Red. masses --      1.1547                 1.6097                 2.4104
 Frc consts  --      0.9576                 1.4417                 2.2843
 IR Inten    --      0.1139                 3.2078                34.4634

                     34                     35                     36
                      A                      A                      A
 Frequencies --   1299.2554              1330.6937              1343.9153
 Red. masses --      3.5866                 6.0478                 7.3387
 Frc consts  --      3.5671                 6.3096                 7.8094
 IR Inten    --     22.9505                 9.0861                 5.3818

                     37                     38                     39
                      A                      A                      A
 Frequencies --   1382.6752              1491.7560              1519.4159
 Red. masses --      3.9630                 4.4838                 3.1039
 Frc consts  --      4.4640                 5.8788                 4.2219
 IR Inten    --      9.9673                40.4950               103.9319

                     40                     41                     42
                      A                      A                      A
 Frequencies --   1533.2505              1614.6248              1643.9174
 Red. masses --      5.2385                 5.9720                 7.2656
 Frc consts  --      7.2558                 9.1731                11.5687
 IR Inten    --     10.6633                 7.7806                77.7033

                     43                     44                     45
                      A                      A                      A
 Frequencies --   1673.8852              3211.8961              3231.9578
 Red. masses --      7.8554                 1.0882                 1.0920
 Frc consts  --     12.9679                 6.6143                 6.7207
 IR Inten    --     50.9525                 3.5591                 2.5020

                     46                     47                     48
                      A                      A                      A
 Frequencies --   3236.5846              3260.6204              3334.2716
 Red. masses --      1.0964                 1.0956                 1.0989
 Frc consts  --      6.7670                 6.8628                 7.1982
 IR Inten    --      2.2685                 6.0127                 1.1478

 - Thermochemistry -
 -------------------
 Temperature   298.150 Kelvin.  Pressure   1.00000 Atm.
 Atom     1 has atomic number  6 and mass  12.00000

 Molecular mass:   181.03392 amu.
 Principal axes and moments of inertia in atomic units:
                           1         2         3
     Eigenvalues --  1224.813322690.647753910.71082
           X            0.99976  -0.02182  -0.00116
           Y            0.02182   0.99976   0.00185
           Z            0.00112  -0.00187   1.00000
 This molecule is an asymmetric top.
 Rotational symmetry number  1.
 Warning -- assumption of classical behavior for rotation
           may cause significant error
 Rotational temperatures (Kelvin)      0.07072     0.03219     0.02215
 Rotational constants (GHZ):           1.47348     0.67075     0.46149
 Zero-point vibrational energy     322658.3 (Joules/Mol)
                                   77.11720 (Kcal/Mol)
 Warning -- explicit consideration of  14 degrees of freedom as
           vibrations may cause significant error
 Vibrational temperatures:     20.71   117.28   237.01   281.45   353.41
          (Kelvin)            417.79   466.89   493.23   574.02   748.92
                              753.23   827.09   845.36   855.92   918.11
                              965.73  1026.67  1110.62  1125.93  1161.34
                             1271.89  1304.46  1332.97  1362.16  1385.65
                             1390.61  1494.61  1539.86  1562.14  1604.50
                             1707.04  1773.92  1824.72  1869.34  1914.57
                             1933.59  1989.36  2146.30  2186.10  2206.01
                             2323.08  2365.23  2408.35  4621.20  4650.07
                             4656.72  4691.31  4797.27

 Zero-point correction=                           0.122894 (Hartree/Particle)
 Thermal correction to Energy=                    0.132633
 Thermal correction to Enthalpy=                  0.133577
 Thermal correction to Gibbs Free Energy=         0.085825
 Sum of electronic and zero-point Energies=           -675.436638
 Sum of electronic and thermal Energies=              -675.426899
 Sum of electronic and thermal Enthalpies=            -675.425954
 Sum of electronic and thermal Free Energies=         -675.473706

                     E (Thermal)             CV                S
                      KCal/Mol        Cal/Mol-Kelvin    Cal/Mol-Kelvin
 Total                   83.229             37.428            100.502
 Electronic               0.000              0.000              0.000
 Translational            0.889              2.981             41.487
 Rotational               0.889              2.981             30.934
 Vibrational             81.451             31.466             28.082
 Vibration     1          0.593              1.986              7.287
 Vibration     2          0.600              1.962              3.854
 Vibration     3          0.623              1.886              2.495
 Vibration     4          0.636              1.846              2.174
 Vibration     5          0.660              1.770              1.762
 Vibration     6          0.686              1.692              1.472
 Vibration     7          0.709              1.626              1.287
 Vibration     8          0.722              1.590              1.199
 Vibration     9          0.765              1.472              0.966
 Vibration    10          0.876              1.205              0.609
 Vibration    11          0.878              1.198              0.602
 Vibration    12          0.931              1.086              0.495
 Vibration    13          0.945              1.058              0.472
 Vibration    14          0.953              1.043              0.459

 Optimization completed.
    -- Stationary point found.
 Normal termination of Gaussian 16 at Mon Dec 30 18:01:04 2019.
 Gaussian 16:  ES64L-G16RevA.03 25-Dec-2016

 ----------------------------------------------------------------------
 # TD(NStates=10, Root=1) B3LYP/6-31G* scf=qc volume pop=NPA density=cu
 rrent Geom=AllCheck Guess=Read
 ----------------------------------------------------------------------

 Structure from the checkpoint file:  "4_3.chk"
 -------------------
 Title Card Required
 -------------------
 Charge =  0 Multiplicity = 1

                         Standard orientation:
 ---------------------------------------------------------------------
 Center     Atomic      Atomic             Coordinates (Angstroms)
 Number     Number       Type             X           Y           Z
 ---------------------------------------------------------------------
      1          6           0       -1.133164    0.111904    0.010512
      2          6           0       -2.009368    1.164381    0.114419
      3          1           0       -1.781819    2.210378    0.224113
      4          6           0       -3.282806    0.547991    0.048775
      5          1           0       -4.259849    1.012723    0.094367
      6          7           0       -3.205398   -0.756061   -0.085315
      7          8           0       -1.840904   -1.039085   -0.110055
      8          6           0        0.325768    0.026845    0.005001
      9          6           0        1.041591   -1.186647    0.025761
     10          6           0        2.429476   -1.247976    0.018696
     11          6           0        3.165262   -0.065254   -0.008298
     12          6           0        2.510716    1.166159   -0.027065
     13          6           0        1.125104    1.184938   -0.019596
     14          9           0        0.515376    2.389075   -0.039225
     15          9           0        0.369895   -2.346325    0.058767
     16          1           0        2.905151   -2.222137    0.036385
     17          1           0        4.250024   -0.101884   -0.013868
     18          1           0        3.048591    2.107236   -0.048466
 ---------------------------------------------------------------------

 SCF Done:  E(RB3LYP) =  -675.559531665     a.u. after    1 cycles

 Excitation energies and oscillator strengths:

 Excited State   1:      Singlet-A      4.7502 eV  261.01 nm  f=0.1812  <S**2>=0.000
      45 -> 47         0.47663
      46 -> 47         0.42538
      46 -> 48        -0.28981
 This state for optimization and/or second-order correction.
 Total Energy, E(TD-HF/TD-DFT) =  -675.384966323
 Copying the excited state density for this state as the 1-particle RhoCI density.

 Excited State   2:      Singlet-A      4.7920 eV  258.73 nm  f=0.3333  <S**2>=0.000
      45 -> 47        -0.37487
      46 -> 47         0.55864
      46 -> 48         0.19934

 Excited State   3:      Singlet-A      5.7654 eV  215.05 nm  f=0.0076  <S**2>=0.000
      43 -> 47         0.65699
      43 -> 49        -0.11957
      46 -> 48         0.16368

 Excited State   4:      Singlet-A      5.7789 eV  214.54 nm  f=0.0803  <S**2>=0.000
      43 -> 47        -0.18355
      45 -> 47         0.31526
      45 -> 49        -0.14160
      46 -> 48         0.56569

 Excited State   5:      Singlet-A      5.9409 eV  208.69 nm  f=0.0044  <S**2>=0.000
      42 -> 47        -0.17425
      43 -> 47         0.10536
      44 -> 47         0.60176
      46 -> 49        -0.25992
      46 -> 51         0.11868

 Excited State   6:      Singlet-A      6.1435 eV  201.81 nm  f=0.0147  <S**2>=0.000
      42 -> 47         0.46953
      44 -> 47         0.28539
      45 -> 48        -0.11414
      46 -> 49         0.41134

 Excited State   7:      Singlet-A      6.4753 eV  191.47 nm  f=0.2217  <S**2>=0.000
      42 -> 47        -0.23307
      44 -> 47         0.11974
      45 -> 48         0.55619
      46 -> 49         0.31342

 Excited State   8:      Singlet-A      6.8026 eV  182.26 nm  f=0.0058  <S**2>=0.000
      42 -> 48         0.26342
      44 -> 48         0.32156
      45 -> 49         0.55549

 Excited State   9:      Singlet-A      7.1203 eV  174.13 nm  f=0.0244  <S**2>=0.000
      42 -> 48        -0.23867
      44 -> 48         0.61258
      45 -> 49        -0.21715

 Excited State  10:      Singlet-A      7.1853 eV  172.55 nm  f=0.2067  <S**2>=0.000
      42 -> 47         0.39453
      44 -> 49        -0.10451
      45 -> 48         0.35568
      46 -> 49        -0.36263
      46 -> 51         0.13990

 The electronic state is 1-A.
 Alpha  occ. eigenvalues --  -24.73046 -24.71990 -19.23442 -14.38126 -10.29980
 Alpha  occ. eigenvalues --  -10.29822 -10.27127 -10.23671 -10.22545 -10.22315
 Alpha  occ. eigenvalues --  -10.21375 -10.21209 -10.20009  -1.24191  -1.23447
 Alpha  occ. eigenvalues --   -1.14087  -0.89114  -0.86698  -0.81664  -0.76877
 Alpha  occ. eigenvalues --   -0.76604  -0.66097  -0.64605  -0.61763  -0.59444
 Alpha  occ. eigenvalues --   -0.56807  -0.54432  -0.52743  -0.50213  -0.49238
 Alpha  occ. eigenvalues --   -0.49073  -0.47139  -0.46287  -0.46197  -0.44719
 Alpha  occ. eigenvalues --   -0.42734  -0.40881  -0.39696  -0.38160  -0.37098
 Alpha  occ. eigenvalues --   -0.36598  -0.31134  -0.30548  -0.29778  -0.26087
 Alpha  occ. eigenvalues --   -0.23888
 Alpha virt. eigenvalues --   -0.05693  -0.01395   0.01677   0.06625   0.06763
 Alpha virt. eigenvalues --    0.09984   0.12597   0.13401   0.14412   0.15964
 Alpha virt. eigenvalues --    0.16285   0.16508   0.18376   0.20488   0.24860

 Mulliken charges:
               1
     1  C    0.389093
     2  C   -0.260168
     3  H    0.164985
     4  C    0.043138
     5  H    0.163391
     6  N   -0.149349
     7  O   -0.403390
     8  C   -0.046689
     9  C    0.355892
    10  C   -0.198549
    11  C   -0.149588
    12  C   -0.169887
    13  C    0.296692
    14  F   -0.284946
    15  F   -0.229106
    16  H    0.161225
    17  H    0.149819
    18  H    0.167436
 Sum of Mulliken charges =   0.00000

 Dipole moment (field-independent basis, Debye):
    X=              3.4611    Y=              2.0179    Z=              0.2848  Tot=              4.0164
 Quadrupole moment (field-independent basis, Debye-Ang):
   XX=            -64.4353   YY=            -70.8088   ZZ=            -72.7667
   XY=             -8.0936   XZ=             -0.8954   YZ=              0.0170

 Summary of Natural Population Analysis:

                                       Natural Population
                Natural  -----------------------------------------------
    Atom  No    Charge         Core      Valence    Rydberg      Total
 -----------------------------------------------------------------------
      C    1    0.30116      1.99899     3.67168    0.02817     5.69884
      C    2   -0.33022      1.99898     4.31765    0.01359     6.33022
      H    3    0.26135      0.00000     0.73737    0.00127     0.73865
      C    4   -0.06051      1.99933     4.03741    0.02377     6.06051
      H    5    0.24367      0.00000     0.75584    0.00049     0.75633
      N    6   -0.12016      1.99947     5.09596    0.02473     7.12016
      O    7   -0.32783      1.99973     6.31389    0.01421     8.32783
      C    8   -0.23353      1.99883     4.21807    0.01664     6.23353
      C    9    0.52283      1.99848     3.45081    0.02789     5.47717
      C   10   -0.31616      1.99904     4.29956    0.01756     6.31616
      C   11   -0.26738      1.99914     4.25152    0.01672     6.26738
      C   12   -0.21659      1.99902     4.20170    0.01587     6.21659
      C   13    0.38311      1.99848     3.59112    0.02729     5.61689
      F   14   -0.32688      1.99994     7.32122    0.00572     9.32688
      F   15   -0.27107      1.99994     7.26492    0.00621     9.27107
      H   16    0.25654      0.00000     0.74232    0.00113     0.74346
      H   17    0.24629      0.00000     0.75294    0.00077     0.75371
      H   18    0.25538      0.00000     0.74348    0.00114     0.74462
 =======================================================================
   * Total *   -0.00000     25.98937    65.76746    0.24317    92.00000

 Normal termination of Gaussian 16 at Mon Dec 30 18:04:47 2019.
