 Gaussian 16, Revision A.03,

 ---------------------------------
 # opt=CalcAll B3LYP/6-31G* scf=qc
 ---------------------------------

 -------------------
 Title Card Required
 -------------------
 Symbolic Z-matrix:
 Charge =  0 Multiplicity = 1

 SCF Done:  E(RB3LYP) =  -285.359308322     a.u. after    7 cycles
 SCF Done:  E(RB3LYP) =  -285.359308970     a.u. after    2 cycles
 Optimization completed.
    -- Stationary point found.
 Normal termination of Gaussian 16 at Mon Dec 30 18:33:29 2019.

 ----------------------------------------------------------------------
 # freq B3LYP/6-31G* scf=qc volume NMR pop=NPA density=current Geom=All
 Check Guess=Read
 ----------------------------------------------------------------------

 Structure from the checkpoint file:  "6_2.chk"
 -------------------
 Title Card Required
 -------------------
 Charge =  0 Multiplicity = 1

 SCF Done:  E(RB3LYP) =  -285.359308970     a.u. after    1 cycles

      1  C    Isotropic =    28.5458   Anisotropy =   129.0227

      2  C    Isotropic =    93.2794   Anisotropy =    87.3239

      3  H    Isotropic =    26.6255   Anisotropy =     3.5410

      4  C    Isotropic =    47.3865   Anisotropy =   132.4940

      5  H    Isotropic =    24.5543   Anisotropy =     2.5598

      6  N    Isotropic =  -127.5798   Anisotropy =   272.4176

      7  O    Isotropic =   -56.6275   Anisotropy =   277.6482

      8  C    Isotropic =   177.0293   Anisotropy =    21.4871

      9  H    Isotropic =    30.0900   Anisotropy =     7.1421

     10  H    Isotropic =    29.8549   Anisotropy =     8.1214

     11  H    Isotropic =    29.8549   Anisotropy =     8.1214

  Exact polarizability:  62.933  -2.743  48.571   0.000  -0.000  26.010
 Approx polarizability:  93.014  -4.323  86.387   0.000  -0.000  37.813

                      1                      2                      3
                      A                      A                      A
 Frequencies --    102.7444               250.3592               333.4555
 Red. masses --      1.0704                 3.2758                 2.7620
 Frc consts  --      0.0067                 0.1210                 0.1809
 IR Inten    --      0.8021                 1.7835                 2.0595

                      4                      5                      6
                      A                      A                      A
 Frequencies --    638.8641               649.1254               661.1076
 Red. masses --      7.4430                 3.4898                 4.3237
 Frc consts  --      1.7898                 0.8664                 1.1134
 IR Inten    --      1.0493                 2.8035                 0.4135

                      7                      8                      9
                      A                      A                      A
 Frequencies --    801.7155               901.0678               904.5272
 Red. masses --      1.1869                 4.8931                 1.3050
 Frc consts  --      0.4495                 2.3407                 0.6291
 IR Inten    --     30.2274                16.6222                 3.8766

                     10                     11                     12
                      A                      A                      A
 Frequencies --    940.9639              1007.6567              1032.2772
 Red. masses --      6.8006                 3.0817                 2.0509
 Frc consts  --      3.5477                 1.8436                 1.2876
 IR Inten    --      9.0169                 1.9926                 7.9347

                     13                     14                     15
                      A                      A                      A
 Frequencies --   1063.0530              1081.2988              1224.1999
 Red. masses --      1.5150                 1.5040                 1.5860
 Frc consts  --      1.0088                 1.0361                 1.4004
 IR Inten    --      3.3689                 4.1060                 8.2220

                     16                     17                     18
                      A                      A                      A
 Frequencies --   1270.6102              1384.8983              1441.7192
 Red. masses --      3.7465                 3.2813                 1.2552
 Frc consts  --      3.5637                 3.7079                 1.5372
 IR Inten    --     22.4418                 6.6262                 1.2361

                     19                     20                     21
                      A                      A                      A
 Frequencies --   1504.1674              1516.4426              1531.6556
 Red. masses --      1.0423                 1.1143                 5.4625
 Frc consts  --      1.3894                 1.5098                 7.5502
 IR Inten    --      7.3519                10.9935                41.2309

                     22                     23                     24
                      A                      A                      A
 Frequencies --   1654.1675              3058.2297              3114.1746
 Red. masses --      5.7974                 1.0372                 1.1015
 Frc consts  --      9.3464                 5.7152                 6.2940
 IR Inten    --     32.2419                14.2447                 9.3589

                     25                     26                     27
                      A                      A                      A
 Frequencies --   3151.0077              3255.7593              3290.9706
 Red. masses --      1.1013                 1.0944                 1.1005
 Frc consts  --      6.4425                 6.8347                 7.0223
 IR Inten    --      9.3001                 4.9918                 0.3538

 - Thermochemistry -
 -------------------
 Temperature   298.150 Kelvin.  Pressure   1.00000 Atm.
 Atom     1 has atomic number  6 and mass  12.00000

 Molecular mass:    83.03711 amu.
 Principal axes and moments of inertia in atomic units:
                           1         2         3
     Eigenvalues --   195.38145 509.22460 693.35600
           X            0.99965  -0.02650   0.00000
           Y            0.02650   0.99965  -0.00000
           Z           -0.00000   0.00000   1.00000
 This molecule is an asymmetric top.
 Rotational symmetry number  1.
 Rotational temperatures (Kelvin)      0.44331     0.17009     0.12492
 Rotational constants (GHZ):           9.23701     3.54410     2.60291
 Zero-point vibrational energy     225892.2 (Joules/Mol)
                                   53.98952 (Kcal/Mol)
 Warning -- explicit consideration of   3 degrees of freedom as
           vibrations may cause significant error
 Vibrational temperatures:    147.83   360.21   479.77   919.18   933.95
          (Kelvin)            951.19  1153.49  1296.44  1301.41  1353.84
                             1449.79  1485.22  1529.50  1555.75  1761.35
                             1828.12  1992.56  2074.31  2164.16  2181.82
                             2203.71  2379.98  4400.11  4480.60  4533.60
                             4684.31  4734.97

 Zero-point correction=                           0.086038 (Hartree/Particle)
 Thermal correction to Energy=                    0.091283
 Thermal correction to Enthalpy=                  0.092227
 Thermal correction to Gibbs Free Energy=         0.057331
 Sum of electronic and zero-point Energies=           -285.273271
 Sum of electronic and thermal Energies=              -285.268026
 Sum of electronic and thermal Enthalpies=            -285.267082
 Sum of electronic and thermal Free Energies=         -285.301977

                     E (Thermal)             CV                S
                      KCal/Mol        Cal/Mol-Kelvin    Cal/Mol-Kelvin
 Total                   57.281             18.285             73.444
 Electronic               0.000              0.000              0.000
 Translational            0.889              2.981             39.164
 Rotational               0.889              2.981             25.737
 Vibrational             55.503             12.323              8.543
 Vibration     1          0.605              1.947              3.402
 Vibration     2          0.663              1.762              1.728
 Vibration     3          0.715              1.609              1.243

 Optimization completed.
    -- Stationary point found.
 Normal termination of Gaussian 16 at Mon Dec 30 18:34:14 2019.
 Gaussian 16:  ES64L-G16RevA.03 25-Dec-2016

 ----------------------------------------------------------------------
 # TD(NStates=10, Root=1) B3LYP/6-31G* scf=qc volume pop=NPA density=cu
 rrent Geom=AllCheck Guess=Read
 ----------------------------------------------------------------------

 Structure from the checkpoint file:  "6_3.chk"
 -------------------
 Title Card Required
 -------------------
 Charge =  0 Multiplicity = 1

                         Standard orientation:
 ---------------------------------------------------------------------
 Center     Atomic      Atomic             Coordinates (Angstroms)
 Number     Number       Type             X           Y           Z
 ---------------------------------------------------------------------
      1          6           0        0.621841    0.110661   -0.000000
      2          6           0       -0.257619    1.153920   -0.000000
      3          1           0       -0.033996    2.210172   -0.000001
      4          6           0       -1.530390    0.520351    0.000000
      5          1           0       -2.513301    0.975540    0.000000
      6          7           0       -1.440829   -0.788468    0.000000
      7          8           0       -0.063739   -1.053726   -0.000000
      8          6           0        2.109009    0.014909    0.000000
      9          1           0        2.551497    1.014088   -0.000021
     10          1           0        2.467237   -0.524896   -0.883996
     11          1           0        2.467240   -0.524859    0.884018
 ---------------------------------------------------------------------

 SCF Done:  E(RB3LYP) =  -285.359308970     a.u. after    1 cycles

 Excitation energies and oscillator strengths:

 Excited State   1:      Singlet-A      6.3818 eV  194.28 nm  f=0.1573  <S**2>=0.000
      21 -> 23         0.15339
      22 -> 23         0.67306
 This state for optimization and/or second-order correction.
 Total Energy, E(TD-HF/TD-DFT) =  -285.124781653
 Copying the excited state density for this state as the 1-particle RhoCI density.

 Excited State   2:      Singlet-A      6.5498 eV  189.29 nm  f=0.0078  <S**2>=0.000
      20 -> 23         0.70369

 Excited State   3:      Singlet-A      7.1592 eV  173.18 nm  f=0.0279  <S**2>=0.000
      21 -> 23         0.58498
      22 -> 23        -0.18201
      22 -> 24         0.34058

 Excited State   4:      Singlet-A      8.0315 eV  154.37 nm  f=0.0001  <S**2>=0.000
      22 -> 25         0.68305
      22 -> 26        -0.12168

 Excited State   5:      Singlet-A      8.5000 eV  145.86 nm  f=0.0002  <S**2>=0.000
      19 -> 23         0.69164
      20 -> 24        -0.12093

 Excited State   6:      Singlet-A      8.5995 eV  144.18 nm  f=0.0025  <S**2>=0.000
      19 -> 23         0.11969
      20 -> 24         0.68522

 Excited State   7:      Singlet-A      8.6419 eV  143.47 nm  f=0.2071  <S**2>=0.000
      20 -> 25         0.21823
      21 -> 23        -0.31442
      22 -> 24         0.56290

 Excited State   8:      Singlet-A      8.9744 eV  138.15 nm  f=0.0063  <S**2>=0.000
      22 -> 25         0.11517
      22 -> 26         0.68652

 Excited State   9:      Singlet-A      9.1321 eV  135.77 nm  f=0.0004  <S**2>=0.000
      18 -> 23         0.14219
      21 -> 25         0.59905
      21 -> 26        -0.13602
      21 -> 27         0.10157
      22 -> 27        -0.26968

 Excited State  10:      Singlet-A      9.1933 eV  134.86 nm  f=0.0964  <S**2>=0.000
      21 -> 24         0.68685

 The electronic state is 1-A.
 Alpha  occ. eigenvalues --  -19.22874 -14.37522 -10.26051 -10.22247 -10.20764
 Alpha  occ. eigenvalues --  -10.19465  -1.13343  -0.86532  -0.80566  -0.72342
 Alpha  occ. eigenvalues --   -0.61560  -0.57613  -0.51157  -0.47294  -0.45329
 Alpha  occ. eigenvalues --   -0.42392  -0.41752  -0.39802  -0.38069  -0.30097
 Alpha  occ. eigenvalues --   -0.29582  -0.25381
 Alpha virt. eigenvalues --   -0.00877   0.06488   0.08926   0.11325   0.13717
 Alpha virt. eigenvalues --    0.14785   0.16719   0.16858   0.21612   0.23267
 Alpha virt. eigenvalues --    0.28328   0.38527   0.42982   0.49725   0.51438

 Mulliken charges:
               1
     1  C    0.415317
     2  C   -0.208982
     3  H    0.176743
     4  C    0.004681
     5  H    0.149565
     6  N   -0.199545
     7  O   -0.362246
     8  C   -0.523022
     9  H    0.169697
    10  H    0.188896
    11  H    0.188896
 Sum of Mulliken charges =  -0.00000

 Dipole moment (field-independent basis, Debye):
    X=              2.7550    Y=              3.2553    Z=              0.0000  Tot=              4.2646
 Quadrupole moment (field-independent basis, Debye-Ang):
   XX=            -33.1071   YY=            -34.8520   ZZ=            -35.5775
   XY=             -3.0486   XZ=              0.0000   YZ=             -0.0000

 Summary of Natural Population Analysis:

                                       Natural Population
                Natural  -----------------------------------------------
    Atom  No    Charge         Core      Valence    Rydberg      Total
 -----------------------------------------------------------------------
      C    1    0.34547      1.99910     3.62748    0.02796     5.65453
      C    2   -0.15868      1.99894     4.14611    0.01363     6.15868
      H    3    0.24477      0.00000     0.75468    0.00055     0.75523
      C    4   -0.19522      1.99941     4.16486    0.03096     6.19522
      H    5    0.23757      0.00000     0.76193    0.00051     0.76243
      N    6   -0.16066      1.99948     5.13149    0.02968     7.16066
      O    7   -0.34781      1.99974     6.33158    0.01649     8.34781
      C    8   -0.73120      1.99935     4.72356    0.00829     6.73120
      H    9    0.25018      0.00000     0.74908    0.00074     0.74982
      H   10    0.25780      0.00000     0.73735    0.00485     0.74220
      H   11    0.25780      0.00000     0.73735    0.00485     0.74220
 =======================================================================
   * Total *    0.00000     11.99603    31.86546    0.13851    44.00000

 Normal termination of Gaussian 16 at Mon Dec 30 18:35:50 2019.
