 Gaussian 16, Revision A.03,

 ---------------------------------
 # opt=CalcAll B3LYP/6-31G* scf=qc
 ---------------------------------

 -------------------
 Title Card Required
 -------------------
 Symbolic Z-matrix:
 Charge =  0 Multiplicity = 1

 SCF Done:  E(RB3LYP) =  -494.330521905     a.u. after    7 cycles
 SCF Done:  E(RB3LYP) =  -494.330522146     a.u. after    5 cycles
 Optimization completed.
    -- Stationary point found.
 Normal termination of Gaussian 16 at Mon Dec 30 18:10:55 2019.

 ----------------------------------------------------------------------
 # freq B3LYP/6-31G* scf=qc volume NMR pop=NPA density=current Geom=All
 Check Guess=Read
 ----------------------------------------------------------------------

 Structure from the checkpoint file:  "5_2.chk"
 -------------------
 Title Card Required
 -------------------
 Charge =  0 Multiplicity = 1

 SCF Done:  E(RB3LYP) =  -494.330522146     a.u. after    1 cycles

      1  C    Isotropic =    26.5476   Anisotropy =   119.3417

      2  C    Isotropic =   100.5400   Anisotropy =    75.9443

      3  H    Isotropic =    26.6483   Anisotropy =     5.6055

      4  C    Isotropic =    37.7688   Anisotropy =   105.6614

      5  N    Isotropic =   -89.0966   Anisotropy =   217.9583

      6  O    Isotropic =   -18.3726   Anisotropy =   231.0385

      7  N    Isotropic =    94.0452   Anisotropy =   129.2854

      8  C    Isotropic =    79.3220   Anisotropy =    90.1492

      9  C    Isotropic =    84.3938   Anisotropy =   122.9839

     10  C    Isotropic =    84.2832   Anisotropy =   121.3051

     11  C    Isotropic =    78.1286   Anisotropy =   101.4166

     12  C    Isotropic =   176.6595   Anisotropy =    23.3901

     13  H    Isotropic =    25.6971   Anisotropy =     4.7579

     14  H    Isotropic =    26.1869   Anisotropy =     2.7398

     15  H    Isotropic =    26.1830   Anisotropy =     2.7034

     16  H    Isotropic =    24.8317   Anisotropy =     4.3643

     17  H    Isotropic =    30.1332   Anisotropy =     7.1446

     18  H    Isotropic =    29.8930   Anisotropy =     8.2314

     19  H    Isotropic =    29.8929   Anisotropy =     8.2314

  Exact polarizability: 149.010   0.868  91.150  -0.000   0.000  41.429
 Approx polarizability: 206.996  10.722 163.475  -0.000   0.000  63.117

                      1                      2                      3
                      A                      A                      A
 Frequencies --     25.7196                86.7420               105.0942
 Red. masses --      3.7757                 1.5886                 1.8689
 Frc consts  --      0.0015                 0.0070                 0.0122
 IR Inten    --      2.8713                 0.3470                 0.2354

                      4                      5                      6
                      A                      A                      A
 Frequencies --    146.9095               214.5164               316.8658
 Red. masses --      3.9238                 3.6452                 3.2990
 Frc consts  --      0.0499                 0.0988                 0.1952
 IR Inten    --      2.6847                 0.0925                 1.3940

                      7                      8                      9
                      A                      A                      A
 Frequencies --    368.1229               389.9777               496.8951
 Red. masses --      6.8166                 5.5928                 4.7346
 Frc consts  --      0.5443                 0.5011                 0.6888
 IR Inten    --      0.0524                 0.2371                 6.3650

                     10                     11                     12
                      A                      A                      A
 Frequencies --    611.4853               619.5421               624.8684
 Red. masses --      4.2481                 3.7840                 4.8725
 Frc consts  --      0.9359                 0.8557                 1.1209
 IR Inten    --      1.4439                 2.7289                 3.0625

                     13                     14                     15
                      A                      A                      A
 Frequencies --    668.4603               687.5352               705.0829
 Red. masses --      1.2957                 4.5210                 3.8198
 Frc consts  --      0.3411                 1.2591                 1.1188
 IR Inten    --      6.6285                 0.3101                 2.2294

                     16                     17                     18
                      A                      A                      A
 Frequencies --    742.4546               778.4419               828.1558
 Red. masses --      1.2277                 1.3732                 1.2603
 Frc consts  --      0.3987                 0.4903                 0.5093
 IR Inten    --     61.7431                45.8677                 0.0297

                     19                     20                     21
                      A                      A                      A
 Frequencies --    876.5373               881.9252               910.7510
 Red. masses --      1.2675                 5.8929                 5.5941
 Frc consts  --      0.5738                 2.7005                 2.7339
 IR Inten    --      0.0414                 0.3001                33.9036

                     22                     23                     24
                      A                      A                      A
 Frequencies --    942.5174              1000.0707              1024.2248
 Red. masses --      4.2895                 2.8499                 3.1469
 Frc consts  --      2.2451                 1.6793                 1.9450
 IR Inten    --     27.6631                10.3500                 1.7407

                     25                     26                     27
                      A                      A                      A
 Frequencies --   1039.9114              1071.2937              1080.3308
 Red. masses --      2.0249                 2.3991                 1.5026
 Frc consts  --      1.2902                 1.6222                 1.0332
 IR Inten    --     15.1783                 0.6766                 4.1437

                     28                     29                     30
                      A                      A                      A
 Frequencies --   1097.9321              1108.0587              1155.3004
 Red. masses --      1.5102                 1.2595                 1.5727
 Frc consts  --      1.0726                 0.9111                 1.2368
 IR Inten    --     20.7320                34.8338                13.5220

                     31                     32                     33
                      A                      A                      A
 Frequencies --   1238.7304              1293.7768              1328.9977
 Red. masses --      4.1177                 1.5079                 3.4502
 Frc consts  --      3.7227                 1.4871                 3.5904
 IR Inten    --      3.0009                 1.1107                29.5672

                     34                     35                     36
                      A                      A                      A
 Frequencies --   1353.8413              1438.9851              1441.6782
 Red. masses --      3.9953                 3.2730                 1.2711
 Frc consts  --      4.3146                 3.9931                 1.5565
 IR Inten    --      2.6895                58.3672                 4.8852

                     37                     38                     39
                      A                      A                      A
 Frequencies --   1500.2331              1502.8361              1516.4774
 Red. masses --      2.8837                 1.0421                 1.9848
 Frc consts  --      3.8240                 1.3866                 2.6894
 IR Inten    --     42.4897                 7.6200                47.5129

                     40                     41                     42
                      A                      A                      A
 Frequencies --   1520.4758              1582.2749              1601.4886
 Red. masses --      2.3759                 6.5984                 4.5170
 Frc consts  --      3.2362                 9.7331                 6.8257
 IR Inten    --     18.8497               293.3787                 5.8643

                     43                     44                     45
                      A                      A                      A
 Frequencies --   1670.4391              3060.0098              3116.9425
 Red. masses --      6.9447                 1.0371                 1.1015
 Frc consts  --     11.4174                 5.7217                 6.3053
 IR Inten    --    185.8869                14.9867                 7.7531

                     46                     47                     48
                      A                      A                      A
 Frequencies --   3153.3839              3256.2201              3268.8636
 Red. masses --      1.1014                 1.0896                 1.0957
 Frc consts  --      6.4531                 6.8069                 6.8985
 IR Inten    --      7.8267                 5.2575                 4.6663

                     49                     50                     51
                      A                      A                      A
 Frequencies --   3292.3152              3300.2163              3308.3473
 Red. masses --      1.1006                 1.0982                 1.1009
 Frc consts  --      7.0291                 7.0472                 7.0992
 IR Inten    --      1.0498                 0.1963                 2.4743

 - Thermochemistry -
 -------------------
 Temperature   298.150 Kelvin.  Pressure   1.00000 Atm.
 Atom     1 has atomic number  6 and mass  12.00000

 Molecular mass:   148.06366 amu.
 Principal axes and moments of inertia in atomic units:
                           1         2         3
     Eigenvalues --   447.440732876.269283312.45595
           X            0.99990  -0.01447   0.00000
           Y            0.01447   0.99990   0.00000
           Z           -0.00000  -0.00000   1.00000
 This molecule is an asymmetric top.
 Rotational symmetry number  1.
 Warning -- assumption of classical behavior for rotation
           may cause significant error
 Rotational temperatures (Kelvin)      0.19358     0.03011     0.02615
 Rotational constants (GHZ):           4.03348     0.62746     0.54483
 Zero-point vibrational energy     390893.3 (Joules/Mol)
                                   93.42574 (Kcal/Mol)
 Warning -- explicit consideration of  11 degrees of freedom as
           vibrations may cause significant error
 Vibrational temperatures:     37.00   124.80   151.21   211.37   308.64
          (Kelvin)            455.90   529.65   561.09   714.92   879.79
                              891.38   899.05   961.77   989.21  1014.46
                             1068.23  1120.00  1191.53  1261.14  1268.89
                             1310.37  1356.07  1438.88  1473.63  1496.20
                             1541.35  1554.36  1579.68  1594.25  1662.22
                             1782.26  1861.46  1912.13  1947.88  2070.38
                             2074.25  2158.50  2162.25  2181.87  2187.63
                             2276.54  2304.18  2403.39  4402.67  4484.59
                             4537.02  4684.97  4703.17  4736.91  4748.28
                             4759.97

 Zero-point correction=                           0.148883 (Hartree/Particle)
 Thermal correction to Energy=                    0.158145
 Thermal correction to Enthalpy=                  0.159089
 Thermal correction to Gibbs Free Energy=         0.113016
 Sum of electronic and zero-point Energies=           -494.181639
 Sum of electronic and thermal Energies=              -494.172378
 Sum of electronic and thermal Enthalpies=            -494.171433
 Sum of electronic and thermal Free Energies=         -494.217506

                     E (Thermal)             CV                S
                      KCal/Mol        Cal/Mol-Kelvin    Cal/Mol-Kelvin
 Total                   99.237             34.746             96.968
 Electronic               0.000              0.000              0.000
 Translational            0.889              2.981             40.888
 Rotational               0.889              2.981             29.834
 Vibrational             97.460             28.784             26.245
 Vibration     1          0.593              1.985              6.135
 Vibration     2          0.601              1.958              3.732
 Vibration     3          0.605              1.945              3.358
 Vibration     4          0.617              1.906              2.712
 Vibration     5          0.644              1.819              2.005
 Vibration     6          0.704              1.641              1.326
 Vibration     7          0.741              1.538              1.088
 Vibration     8          0.758              1.492              1.000
 Vibration     9          0.852              1.257              0.666
 Vibration    10          0.971              1.008              0.430
 Vibration    11          0.980              0.991              0.417

 Optimization completed.
    -- Stationary point found.
 Normal termination of Gaussian 16 at Mon Dec 30 18:12:57 2019.
 Gaussian 16:  ES64L-G16RevA.03 25-Dec-2016

 ----------------------------------------------------------------------
 # TD(NStates=10, Root=1) B3LYP/6-31G* scf=qc volume pop=NPA density=cu
 rrent Geom=AllCheck Guess=Read
 ----------------------------------------------------------------------

 Structure from the checkpoint file:  "5_3.chk"
 -------------------
 Title Card Required
 -------------------
 Charge =  0 Multiplicity = 1

                         Standard orientation:
 ---------------------------------------------------------------------
 Center     Atomic      Atomic             Coordinates (Angstroms)
 Number     Number       Type             X           Y           Z
 ---------------------------------------------------------------------
      1          6           0       -2.388621    0.223236   -0.000005
      2          6           0       -1.205965    0.898607   -0.000019
      3          1           0       -1.056428    1.966849   -0.000046
      4          6           0       -0.228181   -0.140679    0.000004
      5          7           0       -0.772272   -1.340406    0.000030
      6          8           0       -2.153643   -1.105940    0.000023
      7          7           0        1.157317    0.001693   -0.000002
      8          6           0        1.851481    1.204737    0.000024
      9          6           0        3.192416    0.921252    0.000014
     10          6           0        3.330723   -0.502767   -0.000019
     11          6           0        2.071130   -1.043406   -0.000028
     12          6           0       -3.814473    0.654073   -0.000016
     13          1           0        1.326420    2.147551    0.000050
     14          1           0        3.990549    1.651092    0.000030
     15          1           0        4.255757   -1.063140   -0.000035
     16          1           0        1.721537   -2.063832   -0.000051
     17          1           0       -3.880166    1.744732   -0.000042
     18          1           0       -4.337448    0.272491    0.884158
     19          1           0       -4.337449    0.272448   -0.884171
 ---------------------------------------------------------------------

 SCF Done:  E(RB3LYP) =  -494.330522146     a.u. after    1 cycles

 Excitation energies and oscillator strengths:

 Excited State   1:      Singlet-A      4.6858 eV  264.60 nm  f=0.0058  <S**2>=0.000
      39 -> 40         0.70019
 This state for optimization and/or second-order correction.
 Total Energy, E(TD-HF/TD-DFT) =  -494.158323888
 Copying the excited state density for this state as the 1-particle RhoCI density.

 Excited State   2:      Singlet-A      5.3198 eV  233.06 nm  f=0.2042  <S**2>=0.000
      37 -> 40        -0.15253
      38 -> 40         0.67207

 Excited State   3:      Singlet-A      5.9899 eV  206.99 nm  f=0.0356  <S**2>=0.000
      37 -> 40         0.13516
      39 -> 41         0.67660

 Excited State   4:      Singlet-A      6.0526 eV  204.85 nm  f=0.0808  <S**2>=0.000
      37 -> 40         0.25010
      38 -> 41         0.62232
      39 -> 43        -0.16634

 Excited State   5:      Singlet-A      6.2661 eV  197.87 nm  f=0.2670  <S**2>=0.000
      37 -> 40         0.60307
      38 -> 40         0.11513
      38 -> 41        -0.27234
      39 -> 41        -0.14083

 Excited State   6:      Singlet-A      6.5522 eV  189.22 nm  f=0.0057  <S**2>=0.000
      36 -> 40         0.69827

 Excited State   7:      Singlet-A      7.1598 eV  173.17 nm  f=0.0482  <S**2>=0.000
      35 -> 40        -0.44940
      37 -> 40        -0.13415
      37 -> 41         0.51951

 Excited State   8:      Singlet-A      7.2260 eV  171.58 nm  f=0.0000  <S**2>=0.000
      38 -> 42         0.12729
      39 -> 42         0.66594
      39 -> 44         0.13249

 Excited State   9:      Singlet-A      7.4040 eV  167.46 nm  f=0.0001  <S**2>=0.000
      37 -> 42         0.11265
      38 -> 42         0.64738
      38 -> 44         0.11286
      39 -> 42        -0.13130

 Excited State  10:      Singlet-A      7.4094 eV  167.33 nm  f=0.2859  <S**2>=0.000
      35 -> 40         0.39454
      35 -> 41         0.15311
      37 -> 41         0.37090
      37 -> 45         0.11083
      39 -> 43         0.36304

 The electronic state is 1-A.
 Alpha  occ. eigenvalues --  -19.23502 -14.39693 -14.37444 -10.26892 -10.26885
 Alpha  occ. eigenvalues --  -10.21241 -10.21028 -10.20450 -10.20331 -10.17545
 Alpha  occ. eigenvalues --  -10.17374  -1.14132  -0.99809  -0.87587  -0.81909
 Alpha  occ. eigenvalues --   -0.77425  -0.73846  -0.71869  -0.63642  -0.60890
 Alpha  occ. eigenvalues --   -0.56666  -0.54891  -0.53023  -0.49592  -0.48415
 Alpha  occ. eigenvalues --   -0.44876  -0.43651  -0.43509  -0.42028  -0.41114
 Alpha  occ. eigenvalues --   -0.41042  -0.39710  -0.38174  -0.37733  -0.31221
 Alpha  occ. eigenvalues --   -0.30817  -0.26363  -0.22984  -0.21467
 Alpha virt. eigenvalues --   -0.01909   0.02048   0.07902   0.08601   0.09689
 Alpha virt. eigenvalues --    0.10207   0.10928   0.13843   0.14485   0.16410
 Alpha virt. eigenvalues --    0.16822   0.17284   0.18843   0.19169   0.21178

 Mulliken charges:
               1
     1  C    0.370529
     2  C   -0.322347
     3  H    0.087478
     4  C    0.449485
     5  N   -0.367870
     6  O   -0.415058
     7  N   -0.519211
     8  C    0.157821
     9  C   -0.175908
    10  C   -0.188450
    11  C    0.152774
    12  C   -0.515759
    13  H    0.234069
    14  H    0.188694
    15  H    0.184822
    16  H    0.261271
    17  H    0.136685
    18  H    0.140487
    19  H    0.140487
 Sum of Mulliken charges =  -0.00000

 Dipole moment (field-independent basis, Debye):
    X=              8.8789    Y=              3.5705    Z=             -0.0001  Tot=              9.5699
 Quadrupole moment (field-independent basis, Debye-Ang):
   XX=            -51.2556   YY=            -59.0980   ZZ=            -66.0806
   XY=             -3.5145   XZ=              0.0001   YZ=              0.0004

 Summary of Natural Population Analysis:

                                       Natural Population
                Natural  -----------------------------------------------
    Atom  No    Charge         Core      Valence    Rydberg      Total
 -----------------------------------------------------------------------
      C    1    0.22143      1.99903     3.75357    0.02596     5.77857
      C    2   -0.41761      1.99888     4.40890    0.00982     6.41761
      H    3    0.21659      0.00000     0.78317    0.00024     0.78341
      C    4    0.18493      1.99918     3.78380    0.03208     5.81507
      N    5   -0.32029      1.99933     5.29682    0.02414     7.32029
      O    6   -0.35813      1.99974     6.34355    0.01484     8.35813
      N    7   -0.38289      1.99931     5.37317    0.01041     7.38289
      C    8    0.17148      1.99915     3.81412    0.01525     5.82852
      C    9   -0.24718      1.99915     4.23388    0.01415     6.24718
      C   10   -0.29381      1.99916     4.28005    0.01460     6.29381
      C   11    0.17969      1.99915     3.80220    0.01895     5.82031
      C   12   -0.70445      1.99937     4.69804    0.00704     6.70445
      H   13    0.26273      0.00000     0.73727    0.00000     0.73727
      H   14    0.26303      0.00000     0.73688    0.00009     0.73697
      H   15    0.26398      0.00000     0.73588    0.00014     0.73602
      H   16    0.28434      0.00000     0.71487    0.00079     0.71566
      H   17    0.23175      0.00000     0.76771    0.00055     0.76825
      H   18    0.22210      0.00000     0.77400    0.00390     0.77790
      H   19    0.22210      0.00000     0.77400    0.00390     0.77790
 =======================================================================
   * Total *   -0.00018     21.99145    55.81188    0.19684    78.00018

 Normal termination of Gaussian 16 at Mon Dec 30 18:15:37 2019.
