 Gaussian 16, Revision A.03,

 -------------------------
 # opt b3lyp/6-31G* scf=qc
 -------------------------

 -------------------
 Title Card Required
 -------------------
 Symbolic Z-matrix:
 Charge =  0 Multiplicity = 1

 SCF Done:  E(RB3LYP) =  -477.098080502     a.u. after    9 cycles
 SCF Done:  E(RB3LYP) =  -477.098950173     a.u. after    5 cycles
 SCF Done:  E(RB3LYP) =  -477.099051646     a.u. after    4 cycles
 SCF Done:  E(RB3LYP) =  -477.099075093     a.u. after    3 cycles
 SCF Done:  E(RB3LYP) =  -477.099078792     a.u. after    3 cycles
 SCF Done:  E(RB3LYP) =  -477.099079971     a.u. after    2 cycles
 SCF Done:  E(RB3LYP) =  -477.099080213     a.u. after    2 cycles
 SCF Done:  E(RB3LYP) =  -477.099080353     a.u. after    2 cycles
 SCF Done:  E(RB3LYP) =  -477.099080521     a.u. after    2 cycles
 SCF Done:  E(RB3LYP) =  -477.099080728     a.u. after    3 cycles
 SCF Done:  E(RB3LYP) =  -477.099080827     a.u. after    3 cycles
 SCF Done:  E(RB3LYP) =  -477.099080874     a.u. after    2 cycles
 Optimization completed.
    -- Stationary point found.
 Normal termination of Gaussian 16 at Mon Aug 27 11:45:40 2018.

 ----------------------------------------------------------------------
 # freq b3lyp/6-31G* volume NMR pop=NPA density=current Geom=AllCheck G
 uess=Read
 ----------------------------------------------------------------------

 Structure from the checkpoint file:  "science_add_22.chk"
 -------------------
 Title Card Required
 -------------------
 Charge =  0 Multiplicity = 1

 SCF Done:  E(RB3LYP) =  -477.099080874     A.U. after    1 cycles

      1  C    Isotropic =    27.2599   Anisotropy =   119.8825

      2  C    Isotropic =    96.5581   Anisotropy =    95.0440

      3  H    Isotropic =    26.0914   Anisotropy =     4.4621

      4  C    Isotropic =    46.5041   Anisotropy =   130.5061

      5  H    Isotropic =    24.4150   Anisotropy =     2.9345

      6  N    Isotropic =  -122.8118   Anisotropy =   273.2631

      7  O    Isotropic =   -41.5057   Anisotropy =   264.5703

      8  C    Isotropic =    68.2699   Anisotropy =   162.2484

      9  C    Isotropic =    70.4855   Anisotropy =   155.0830

     10  C    Isotropic =    67.9318   Anisotropy =   165.6798

     11  C    Isotropic =    67.0761   Anisotropy =   168.9315

     12  C    Isotropic =    67.2503   Anisotropy =   167.6867

     13  C    Isotropic =    69.8527   Anisotropy =   166.6469

     14  H    Isotropic =    24.7227   Anisotropy =     7.6687

     15  H    Isotropic =    24.9029   Anisotropy =     4.7567

     16  H    Isotropic =    24.9689   Anisotropy =     4.3961

     17  H    Isotropic =    24.8375   Anisotropy =     4.8517

     18  H    Isotropic =    24.1329   Anisotropy =     7.7686

  Exact polarizability: 162.772   5.153 101.419  -0.001   0.001  34.779
 Approx polarizability: 249.753   5.457 188.823  -0.001  -0.001  54.283

                      1                      2                      3
                      A                      A                      A
 Frequencies --     32.2088               111.1769               156.9238
 Red. masses --      4.4161                 5.0086                 4.8456
 Frc consts  --      0.0027                 0.0365                 0.0703
 IR Inten    --      3.8316                 0.1161                 2.1456

                      4                      5                      6
                      A                      A                      A
 Frequencies --    277.8973               349.7762               410.3495
 Red. masses --      4.9011                 7.3225                 2.9666
 Frc consts  --      0.2230                 0.5278                 0.2943
 IR Inten    --      0.0759                 0.0541                 0.0045

                      7                      8                      9
                      A                      A                      A
 Frequencies --    440.5378               497.7990               632.8464
 Red. masses --      5.2384                 3.6689                 6.4307
 Frc consts  --      0.5990                 0.5357                 1.5174
 IR Inten    --      1.5000                 1.0645                 0.0216

                     10                     11                     12
                      A                      A                      A
 Frequencies --    634.3837               694.9001               695.7104
 Red. masses --      5.7162                 4.0829                 6.4012
 Frc consts  --      1.3554                 1.1616                 1.8254
 IR Inten    --      2.5016                 9.4748                 5.5820

                     13                     14                     15
                      A                      A                      A
 Frequencies --    702.6608               779.9125               800.3561
 Red. masses --      1.8083                 1.4281                 1.7072
 Frc consts  --      0.5260                 0.5118                 0.6443
 IR Inten    --     20.3817                61.2747                 6.4902

                     16                     17                     18
                      A                      A                      A
 Frequencies --    856.6008               906.1718               922.3248
 Red. masses --      1.2544                 1.3046                 6.1229
 Frc consts  --      0.5423                 0.6312                 3.0688
 IR Inten    --      0.0793                 3.6721                15.6714

                     19                     20                     21
                      A                      A                      A
 Frequencies --    932.4299               943.3055               965.6375
 Red. masses --      1.4010                 7.8081                 8.7622
 Frc consts  --      0.7177                 4.0935                 4.8138
 IR Inten    --      2.5086                 6.4794                 8.3851

                     22                     23                     24
                      A                      A                      A
 Frequencies --    970.7743              1000.6533              1018.0034
 Red. masses --      1.3479                 1.2619                 6.1090
 Frc consts  --      0.7484                 0.7445                 3.7301
 IR Inten    --      0.1433                 0.1351                 0.1021

                     25                     26                     27
                      A                      A                      A
 Frequencies --   1055.7885              1065.6560              1104.2383
 Red. masses --      2.5885                 1.4636                 2.5195
 Frc consts  --      1.7000                 0.9793                 1.8100
 IR Inten    --      2.5217                 5.6520                 3.5799

                     28                     29                     30
                      A                      A                      A
 Frequencies --   1117.3590              1195.5882              1217.4065
 Red. masses --      1.7023                 1.0993                 1.1513
 Frc consts  --      1.2522                 0.9258                 1.0053
 IR Inten    --      4.4083                 0.0305                 1.6875

                     31                     32                     33
                      A                      A                      A
 Frequencies --   1238.0095              1295.0896              1339.3968
 Red. masses --      1.5548                 4.7446                 3.3957
 Frc consts  --      1.4040                 4.6886                 3.5892
 IR Inten    --      8.8605                 4.6521                 4.6027

                     34                     35                     36
                      A                      A                      A
 Frequencies --   1373.2082              1385.5035              1498.1277
 Red. masses --      1.9683                 2.8777                 2.3300
 Frc consts  --      2.1868                 3.2547                 3.0810
 IR Inten    --      2.0809                 5.5522                12.9848

                     37                     38                     39
                      A                      A                      A
 Frequencies --   1511.9562              1550.8814              1624.1710
 Red. masses --      3.8771                 2.6957                 5.3707
 Frc consts  --      5.2220                 3.8201                 8.3473
 IR Inten    --     77.3799                 1.4301                23.0322

                     40                     41                     42
                      A                      A                      A
 Frequencies --   1646.7223              1666.4527              3186.5160
 Red. masses --      6.1629                 5.5303                 1.0852
 Frc consts  --      9.8463                 9.0486                 6.4922
 IR Inten    --      8.0525                 0.4824                 1.2241

                     43                     44                     45
                      A                      A                      A
 Frequencies --   3194.9026              3204.2241              3213.1535
 Red. masses --      1.0884                 1.0926                 1.0967
 Frc consts  --      6.5454                 6.6090                 6.6710
 IR Inten    --      4.9528                26.7052                20.6078

                     46                     47                     48
                      A                      A                      A
 Frequencies --   3227.2740              3257.7256              3295.8726
 Red. masses --      1.0936                 1.0946                 1.0997
 Frc consts  --      6.7109                 6.8444                 7.0385
 IR Inten    --      3.2515                 7.4957                 0.4390

 - Thermochemistry -
 -------------------
 Temperature   298.150 Kelvin.  Pressure   1.00000 Atm.
 Atom     1 has atomic number  6 and mass  12.00000

 Molecular mass:   145.05276 amu.
 Principal axes and moments of inertia in atomic units:
                           1         2         3
     Eigenvalues --   501.633312614.028753115.66203
           X            0.99992   0.01270  -0.00000
           Y           -0.01270   0.99992   0.00001
           Z            0.00000  -0.00001   1.00000
 This molecule is an asymmetric top.
 Rotational symmetry number  1.
 Warning -- assumption of classical behavior for rotation
           may cause significant error
 Rotational temperatures (Kelvin)      0.17266     0.03313     0.02780
 Rotational constants (GHZ):           3.59773     0.69041     0.57925
 Zero-point vibrational energy     366048.7 (Joules/Mol)
                                   87.48774 (Kcal/Mol)
 Warning -- explicit consideration of   8 degrees of freedom as
           vibrations may cause significant error
 Vibrational temperatures:     46.34   159.96   225.78   399.83   503.25
          (Kelvin)            590.40   633.84   716.22   910.52   912.74
                              999.81  1000.97  1010.97  1122.12  1151.53
                             1232.46  1303.78  1327.02  1341.56  1357.21
                             1389.34  1396.73  1439.72  1464.68  1519.04
                             1533.24  1588.75  1607.63  1720.18  1751.58
                             1781.22  1863.35  1927.09  1975.74  1993.43
                             2155.47  2175.37  2231.37  2336.82  2369.27
                             2397.65  4584.69  4596.75  4610.16  4623.01
                             4643.33  4687.14  4742.03

 Zero-point correction=                           0.139421 (Hartree/Particle)
 Thermal correction to Energy=                    0.147492
 Thermal correction to Enthalpy=                  0.148436
 Thermal correction to Gibbs Free Energy=         0.105197
 Sum of electronic and zero-point Energies=           -476.959660
 Sum of electronic and thermal Energies=              -476.951589
 Sum of electronic and thermal Enthalpies=            -476.950645
 Sum of electronic and thermal Free Energies=         -476.993884

                     E (Thermal)             CV                S
                      KCal/Mol        Cal/Mol-Kelvin    Cal/Mol-Kelvin
 Total                   92.552             31.505             91.004
 Electronic               0.000              0.000              0.000
 Translational            0.889              2.981             40.827
 Rotational               0.889              2.981             29.792
 Vibrational             90.775             25.544             20.386
 Vibration     1          0.594              1.983              5.689
 Vibration     2          0.607              1.940              3.248
 Vibration     3          0.621              1.895              2.587
 Vibration     4          0.679              1.714              1.547
 Vibration     5          0.727              1.576              1.167
 Vibration     6          0.775              1.448              0.925
 Vibration     7          0.800              1.382              0.825
 Vibration     8          0.853              1.255              0.664

 Optimization completed.
    -- Stationary point found.
 Normal termination of Gaussian 16 at Mon Aug 27 11:49:00 2018.
 Gaussian 16:  ES64L-G16RevA.03 25-Dec-2016

 ----------------------------------------------------------------------
 # TD(NStates=10, Root=1) b3lyp/6-31G* volume pop=NPA density=current G
 eom=AllCheck Guess=Read
 ----------------------------------------------------------------------

 Structure from the checkpoint file:  "science_add_23.chk"
 -------------------
 Title Card Required
 -------------------
 Charge =  0 Multiplicity = 1

                         Standard orientation:
 ---------------------------------------------------------------------
 Center     Atomic      Atomic             Coordinates (Angstroms)
 Number     Number       Type             X           Y           Z
 ---------------------------------------------------------------------
      1          6           0        1.025859    0.126794   -0.000014
      2          6           0        1.927410    1.160163   -0.000246
      3          1           0        1.729553    2.220930   -0.000503
      4          6           0        3.187187    0.510487   -0.000117
      5          1           0        4.175683    0.953066   -0.000232
      6          7           0        3.080469   -0.798667    0.000180
      7          8           0        1.704162   -1.045794    0.000227
      8          6           0       -0.434422    0.060512   -0.000001
      9          6           0       -1.197678    1.240379    0.000144
     10          6           0       -2.588317    1.180708    0.000135
     11          6           0       -3.238928   -0.055708   -0.000007
     12          6           0       -2.487496   -1.232607   -0.000142
     13          6           0       -1.095627   -1.179406   -0.000143
     14          1           0       -0.700715    2.206180    0.000280
     15          1           0       -3.165569    2.101165    0.000250
     16          1           0       -4.324448   -0.100634   -0.000012
     17          1           0       -2.986592   -2.197675   -0.000252
     18          1           0       -0.512423   -2.093951   -0.000256
 ---------------------------------------------------------------------

 SCF Done:  E(RB3LYP) =  -477.099080874     A.U. after    1 cycles

 Excitation energies and oscillator strengths:

 Excited State   1:      Singlet-A      4.7925 eV  258.70 nm  f=0.5107  <S**2>=0.000
      38 -> 39         0.70158
 This state for optimization and/or second-order correction.
 Total Energy, E(TD-HF/TD-DFT) =  -476.922958036
 Copying the excited state density for this state as the 1-particle RhoCI density.

 Excited State   2:      Singlet-A      4.8718 eV  254.50 nm  f=0.0022  <S**2>=0.000
      37 -> 39         0.54417
      38 -> 40        -0.44169

 Excited State   3:      Singlet-A      5.7841 eV  214.35 nm  f=0.0750  <S**2>=0.000
      36 -> 40         0.13654
      37 -> 39         0.41611
      37 -> 41        -0.12073
      38 -> 40         0.52564

 Excited State   4:      Singlet-A      5.9037 eV  210.01 nm  f=0.0032  <S**2>=0.000
      34 -> 39         0.69555
      34 -> 41        -0.11774

 Excited State   5:      Singlet-A      6.0598 eV  204.60 nm  f=0.0017  <S**2>=0.000
      35 -> 39         0.45256
      36 -> 39        -0.32662
      38 -> 41         0.40121

 Excited State   6:      Singlet-A      6.1138 eV  202.79 nm  f=0.0147  <S**2>=0.000
      35 -> 39         0.23104
      36 -> 39         0.57166
      37 -> 40        -0.15393
      38 -> 41         0.26585
      38 -> 42         0.10970

 Excited State   7:      Singlet-A      6.5582 eV  189.05 nm  f=0.1923  <S**2>=0.000
      35 -> 39        -0.31139
      37 -> 40         0.50965
      38 -> 41         0.32395
      38 -> 42         0.11520

 Excited State   8:      Singlet-A      6.8530 eV  180.92 nm  f=0.0110  <S**2>=0.000
      35 -> 40         0.12720
      36 -> 40         0.51349
      37 -> 41         0.43404

 Excited State   9:      Singlet-A      7.0911 eV  174.84 nm  f=0.0001  <S**2>=0.000
      33 -> 39         0.69582

 Excited State  10:      Singlet-A      7.1980 eV  172.25 nm  f=0.1169  <S**2>=0.000
      35 -> 39         0.19507
      35 -> 40         0.45078
      36 -> 40        -0.25385
      37 -> 40         0.23914
      37 -> 41         0.27023
      38 -> 41        -0.19554

 The electronic state is 1-A.
 Alpha  occ. eigenvalues --  -19.23268 -14.37941 -10.26256 -10.22550 -10.21681
 Alpha  occ. eigenvalues --  -10.20510 -10.20199 -10.20146 -10.20087 -10.20008
 Alpha  occ. eigenvalues --  -10.19901  -1.13793  -0.87767  -0.85898  -0.80556
 Alpha  occ. eigenvalues --   -0.75611  -0.74956  -0.64066  -0.62867  -0.59856
 Alpha  occ. eigenvalues --   -0.57693  -0.54647  -0.49804  -0.47033  -0.46748
 Alpha  occ. eigenvalues --   -0.46108  -0.43926  -0.43207  -0.41706  -0.38663
 Alpha  occ. eigenvalues --   -0.37927  -0.36310  -0.35263  -0.30439  -0.30295
 Alpha  occ. eigenvalues --   -0.29349  -0.26147  -0.23167
 Alpha virt. eigenvalues --   -0.04874  -0.01065   0.02430   0.07520   0.07988
 Alpha virt. eigenvalues --    0.10464   0.11785   0.14261   0.14357   0.16244
 Alpha virt. eigenvalues --    0.16876   0.17787   0.18889   0.22087   0.24780

 Mulliken charges:
               1
     1  C    0.368478
     2  C   -0.251770
     3  H    0.161986
     4  C    0.047208
     5  H    0.166859
     6  N   -0.142905
     7  O   -0.403293
     8  C    0.084500
     9  C   -0.171156
    10  C   -0.133381
    11  C   -0.131203
    12  C   -0.131803
    13  C   -0.164084
    14  H    0.129292
    15  H    0.136617
    16  H    0.134734
    17  H    0.138831
    18  H    0.161092
 Sum of Mulliken charges =  -0.00000

 Dipole moment (field-independent basis, Debye):
    X=             -1.5573    Y=              2.6076    Z=             -0.0007  Tot=              3.0372
 Quadrupole moment (field-independent basis, Debye-Ang):
   XX=            -58.1714   YY=            -58.2395   ZZ=            -65.9592
   XY=              8.0428   XZ=             -0.0019   YZ=              0.0008

 Summary of Natural Population Analysis:

                                       Natural Population
                Natural  -----------------------------------------------
    Atom  No    Charge         Core      Valence    Rydberg      Total
 -----------------------------------------------------------------------
      C    1    0.33690      1.99898     3.63787    0.02625     5.66310
      C    2   -0.30680      1.99896     4.29391    0.01393     6.30680
      H    3    0.25163      0.00000     0.74743    0.00094     0.74837
      C    4   -0.07013      1.99935     4.04623    0.02455     6.07013
      H    5    0.24567      0.00000     0.75377    0.00055     0.75433
      N    6   -0.10582      1.99947     5.08080    0.02555     7.10582
      O    7   -0.34168      1.99973     6.32754    0.01441     8.34168
      C    8   -0.10403      1.99898     4.08876    0.01629     6.10403
      C    9   -0.21289      1.99907     4.19926    0.01456     6.21289
      C   10   -0.23089      1.99912     4.21688    0.01489     6.23089
      C   11   -0.22460      1.99909     4.20878    0.01673     6.22460
      C   12   -0.23307      1.99912     4.21903    0.01492     6.23307
      C   13   -0.20242      1.99908     4.18790    0.01545     6.20242
      H   14    0.23067      0.00000     0.76793    0.00140     0.76933
      H   15    0.23963      0.00000     0.75951    0.00086     0.76037
      H   16    0.23513      0.00000     0.76372    0.00115     0.76487
      H   17    0.24058      0.00000     0.75858    0.00084     0.75942
      H   18    0.25211      0.00000     0.74636    0.00153     0.74789
 =======================================================================
   * Total *   -0.00000     21.99095    53.80425    0.20480    76.00000

 Normal termination of Gaussian 16 at Mon Aug 27 11:53:05 2018.
