 Gaussian 16, Revision A.03,

 -------------------------
 # opt b3lyp/6-31G* scf=qc
 -------------------------

 -------------------
 Title Card Required
 -------------------
 Symbolic Z-matrix:
 Charge =  0 Multiplicity = 1

 SCF Done:  E(RB3LYP) =  -399.652532084     a.u. after    9 cycles
 SCF Done:  E(RB3LYP) =  -399.664116781     a.u. after    9 cycles
 SCF Done:  E(RB3LYP) =  -399.665224938     a.u. after    6 cycles
 SCF Done:  E(RB3LYP) =  -399.665289531     a.u. after    3 cycles
 SCF Done:  E(RB3LYP) =  -399.665300775     a.u. after    4 cycles
 SCF Done:  E(RB3LYP) =  -399.665302545     a.u. after    2 cycles
 Optimization completed.
    -- Stationary point found.
 Normal termination of Gaussian 16 at Mon Aug 27 11:36:31 2018.

 ----------------------------------------------------------------------
 # freq b3lyp/6-31G* volume NMR pop=NPA density=current Geom=AllCheck G
 uess=Read
 ----------------------------------------------------------------------

 Structure from the checkpoint file:  "science_add_102.chk"
 -------------------
 Title Card Required
 -------------------
 Charge =  0 Multiplicity = 1

 SCF Done:  E(RB3LYP) =  -399.665302545     A.U. after    1 cycles

      1  C    Isotropic =    41.9224   Anisotropy =   117.8193

      2  H    Isotropic =    23.4056   Anisotropy =     4.4209

      3  C    Isotropic =    76.3854   Anisotropy =   131.0586

      4  C    Isotropic =    40.7247   Anisotropy =   157.6973

      5  N    Isotropic =  -120.1652   Anisotropy =   263.8835

      6  O    Isotropic =   -72.9996   Anisotropy =   335.6088

      7  C    Isotropic =    78.9349   Anisotropy =   147.8491

      8  C    Isotropic =    66.3970   Anisotropy =   161.9307

      9  C    Isotropic =    71.2450   Anisotropy =   156.5999

     10  C    Isotropic =    75.7418   Anisotropy =   154.5385

     11  H    Isotropic =    24.7269   Anisotropy =     5.1463

     12  H    Isotropic =    25.0566   Anisotropy =     4.7945

     13  H    Isotropic =    25.2951   Anisotropy =     4.6547

     14  H    Isotropic =    24.7438   Anisotropy =     5.1055

  Exact polarizability: 107.978  -3.871  87.835   0.000  -0.000  28.210
 Approx polarizability: 199.802  -3.175 165.281   0.000   0.000  44.024

                      1                      2                      3
                      A                      A                      A
 Frequencies --    214.1908               257.6969               407.3311
 Red. masses --      5.4415                 4.0487                 5.0551
 Frc consts  --      0.1471                 0.1584                 0.4942
 IR Inten    --      0.0686                 4.2820                 5.0338

                      4                      5                      6
                      A                      A                      A
 Frequencies --    445.3189               545.3703               561.7600
 Red. masses --      2.8760                 7.5962                 3.3959
 Frc consts  --      0.3360                 1.3312                 0.6314
 IR Inten    --      5.3160                 0.5437                 1.1741

                      7                      8                      9
                      A                      A                      A
 Frequencies --    608.9056               614.6905               747.7309
 Red. masses --      5.2183                 6.6259                 1.4917
 Frc consts  --      1.1399                 1.4750                 0.4914
 IR Inten    --      3.9595                 1.3525                 6.1330

                     10                     11                     12
                      A                      A                      A
 Frequencies --    769.6401               771.7332               804.9485
 Red. masses --      5.7049                 2.3135                 1.5762
 Frc consts  --      1.9910                 0.8118                 0.6017
 IR Inten    --     14.1501                34.1242                35.2012

                     13                     14                     15
                      A                      A                      A
 Frequencies --    862.9351               907.6650               921.6536
 Red. masses --      1.5961                 5.0718                 7.4983
 Frc consts  --      0.7003                 2.4619                 3.7527
 IR Inten    --      0.2121                26.5623                 6.2524

                     16                     17                     18
                      A                      A                      A
 Frequencies --    936.9327               961.6233               996.5317
 Red. masses --      6.4824                 1.3007                 1.2723
 Frc consts  --      3.3528                 0.7086                 0.7444
 IR Inten    --      2.7616                 0.2428                 0.0237

                     19                     20                     21
                      A                      A                      A
 Frequencies --   1013.2329              1161.6800              1169.5811
 Red. masses --      2.4170                 2.1723                 1.4617
 Frc consts  --      1.4620                 1.7272                 1.1780
 IR Inten    --      4.2179                24.7664                 2.1712

                     22                     23                     24
                      A                      A                      A
 Frequencies --   1191.9304              1270.0239              1297.6383
 Red. masses --      1.2152                 1.9437                 2.1485
 Frc consts  --      1.0172                 1.8472                 2.1315
 IR Inten    --      1.1949                 3.9342                 2.5365

                     25                     26                     27
                      A                      A                      A
 Frequencies --   1394.0916              1424.3755              1441.5479
 Red. masses --      2.1848                 2.8899                 4.1805
 Frc consts  --      2.5018                 3.4545                 5.1184
 IR Inten    --      2.7760                15.4765                 1.2135

                     28                     29                     30
                      A                      A                      A
 Frequencies --   1510.6597              1570.2436              1610.4309
 Red. masses --      3.4781                 5.2325                 5.0776
 Frc consts  --      4.6765                 7.6014                 7.7588
 IR Inten    --      3.6504                15.2050                 2.5062

                     31                     32                     33
                      A                      A                      A
 Frequencies --   1699.2137              3190.5974              3200.6471
 Red. masses --      6.5635                 1.0863                 1.0889
 Frc consts  --     11.1656                 6.5153                 6.5723
 IR Inten    --     20.0857                 2.7592                 9.5503

                     34                     35                     36
                      A                      A                      A
 Frequencies --   3214.0888              3225.4668              3288.1684
 Red. masses --      1.0959                 1.0953                 1.0980
 Frc consts  --      6.6705                 6.7137                 6.9948
 IR Inten    --     20.5235                 7.9365                 0.1617

 - Thermochemistry -
 -------------------
 Temperature   298.150 Kelvin.  Pressure   1.00000 Atm.
 Atom     1 has atomic number  6 and mass  12.00000

 Molecular mass:   119.03711 amu.
 Principal axes and moments of inertia in atomic units:
                           1         2         3
     Eigenvalues --   457.437141097.554601554.99174
           X            0.99975  -0.02243   0.00000
           Y            0.02243   0.99975  -0.00000
           Z           -0.00000   0.00000   1.00000
 This molecule is an asymmetric top.
 Rotational symmetry number  1.
 Warning -- assumption of classical behavior for rotation
           may cause significant error
 Rotational temperatures (Kelvin)      0.18935     0.07892     0.05570
 Rotational constants (GHZ):           3.94533     1.64433     1.16061
 Zero-point vibrational energy     276398.8 (Joules/Mol)
                                   66.06091 (Kcal/Mol)
 Warning -- explicit consideration of   8 degrees of freedom as
           vibrations may cause significant error
 Vibrational temperatures:    308.17   370.77   586.06   640.71   784.67
          (Kelvin)            808.25   876.08   884.40  1075.82  1107.34
                             1110.35  1158.14  1241.57  1305.93  1326.05
                             1348.04  1383.56  1433.79  1457.82  1671.40
                             1682.77  1714.92  1827.28  1867.01  2005.79
                             2049.36  2074.07  2173.50  2259.23  2317.05
                             2444.79  4590.56  4605.02  4624.36  4640.73
                             4730.94

 Zero-point correction=                           0.105275 (Hartree/Particle)
 Thermal correction to Energy=                    0.111161
 Thermal correction to Enthalpy=                  0.112105
 Thermal correction to Gibbs Free Energy=         0.075144
 Sum of electronic and zero-point Energies=           -399.560028
 Sum of electronic and thermal Energies=              -399.554142
 Sum of electronic and thermal Enthalpies=            -399.553198
 Sum of electronic and thermal Free Energies=         -399.590158

                     E (Thermal)             CV                S
                      KCal/Mol        Cal/Mol-Kelvin    Cal/Mol-Kelvin
 Total                   69.754             24.043             77.790
 Electronic               0.000              0.000              0.000
 Translational            0.889              2.981             40.237
 Rotational               0.889              2.981             28.148
 Vibrational             67.977             18.081              9.405
 Vibration     1          0.644              1.819              2.008
 Vibration     2          0.667              1.750              1.677
 Vibration     3          0.772              1.454              0.936
 Vibration     4          0.805              1.371              0.810
 Vibration     5          0.901              1.150              0.554
 Vibration     6          0.917              1.114              0.520
 Vibration     7          0.968              1.013              0.435
 Vibration     8          0.974              1.001              0.425

 Optimization completed.
    -- Stationary point found.
 Normal termination of Gaussian 16 at Mon Aug 27 11:38:25 2018.
 Gaussian 16:  ES64L-G16RevA.03 25-Dec-2016

 ----------------------------------------------------------------------
 # TD(NStates=10, Root=1) b3lyp/6-31G* volume pop=NPA density=current G
 eom=AllCheck Guess=Read
 ----------------------------------------------------------------------

 Structure from the checkpoint file:  "science_add_103.chk"
 -------------------
 Title Card Required
 -------------------
 Charge =  0 Multiplicity = 1

                         Standard orientation:
 ---------------------------------------------------------------------
 Center     Atomic      Atomic             Coordinates (Angstroms)
 Number     Number       Type             X           Y           Z
 ---------------------------------------------------------------------
      1          6           0       -1.614784    1.058990   -0.000001
      2          1           0       -2.170637    1.985658   -0.000001
      3          6           0       -0.277111    0.742472   -0.000000
      4          6           0       -0.289884   -0.699861   -0.000000
      5          7           0       -1.524812   -1.191236   -0.000002
      6          8           0       -2.345617   -0.062299    0.000003
      7          6           0        0.937031   -1.431339    0.000000
      8          6           0        2.101593   -0.712569    0.000001
      9          6           0        2.115882    0.725413    0.000000
     10          6           0        0.957635    1.455023   -0.000000
     11          1           0        0.924932   -2.516122   -0.000000
     12          1           0        3.053441   -1.236692    0.000000
     13          1           0        3.075313    1.234550   -0.000000
     14          1           0        0.973398    2.540867   -0.000001
 ---------------------------------------------------------------------

 SCF Done:  E(RB3LYP) =  -399.665302545     A.U. after    1 cycles

 Excitation energies and oscillator strengths:

 Excited State   1:      Singlet-A      4.0993 eV  302.45 nm  f=0.0911  <S**2>=0.000
      31 -> 32         0.70156
 This state for optimization and/or second-order correction.
 Total Energy, E(TD-HF/TD-DFT) =  -399.514656952
 Copying the excited state density for this state as the 1-particle RhoCI density.

 Excited State   2:      Singlet-A      5.1051 eV  242.86 nm  f=0.0376  <S**2>=0.000
      30 -> 32         0.59370
      31 -> 33        -0.35936
      31 -> 34        -0.12110

 Excited State   3:      Singlet-A      5.3444 eV  231.99 nm  f=0.0022  <S**2>=0.000
      29 -> 32         0.70386

 Excited State   4:      Singlet-A      5.7334 eV  216.25 nm  f=0.0050  <S**2>=0.000
      28 -> 32         0.56702
      31 -> 33         0.19268
      31 -> 34        -0.36782

 Excited State   5:      Singlet-A      6.6566 eV  186.26 nm  f=0.0627  <S**2>=0.000
      28 -> 32         0.33802
      30 -> 32         0.13989
      30 -> 33        -0.20560
      31 -> 34         0.55839

 Excited State   6:      Singlet-A      6.8469 eV  181.08 nm  f=0.7361  <S**2>=0.000
      28 -> 32        -0.20319
      30 -> 32         0.33829
      31 -> 33         0.56508

 Excited State   7:      Singlet-A      6.9169 eV  179.25 nm  f=0.0028  <S**2>=0.000
      27 -> 32         0.69795

 Excited State   8:      Singlet-A      7.3642 eV  168.36 nm  f=0.0261  <S**2>=0.000
      28 -> 33        -0.25083
      28 -> 34        -0.13714
      30 -> 33        -0.33969
      30 -> 34         0.51819
      31 -> 34        -0.11942

 Excited State   9:      Singlet-A      7.4069 eV  167.39 nm  f=0.0002  <S**2>=0.000
      29 -> 33        -0.14699
      31 -> 35         0.61491
      31 -> 36         0.27102

 Excited State  10:      Singlet-A      7.4683 eV  166.01 nm  f=0.0000  <S**2>=0.000
      24 -> 32         0.15903
      25 -> 32         0.66115
      29 -> 33         0.15776

 The electronic state is 1-A.
 Alpha  occ. eigenvalues --  -19.24863 -14.37614 -10.26308 -10.22687 -10.21100
 Alpha  occ. eigenvalues --  -10.20862 -10.20736 -10.20494 -10.20427  -1.14770
 Alpha  occ. eigenvalues --   -0.88576  -0.84155  -0.78491  -0.75127  -0.65352
 Alpha  occ. eigenvalues --   -0.62559  -0.59428  -0.53072  -0.52094  -0.48113
 Alpha  occ. eigenvalues --   -0.47367  -0.45291  -0.43576  -0.39197  -0.38347
 Alpha  occ. eigenvalues --   -0.37021  -0.36187  -0.30533  -0.30268  -0.27456
 Alpha  occ. eigenvalues --   -0.22333
 Alpha virt. eigenvalues --   -0.06275   0.01976   0.03015   0.08988   0.10001
 Alpha virt. eigenvalues --    0.13246   0.13701   0.15495   0.16489   0.18092
 Alpha virt. eigenvalues --    0.20051   0.24619   0.28130   0.30428   0.34852

 Mulliken charges:
               1
     1  C    0.080527
     2  H    0.182582
     3  C    0.058359
     4  C    0.285455
     5  N   -0.254648
     6  O   -0.323768
     7  C   -0.137805
     8  C   -0.151440
     9  C   -0.126850
    10  C   -0.191892
    11  H    0.152857
    12  H    0.138732
    13  H    0.142203
    14  H    0.145688
 Sum of Mulliken charges =  -0.00000

 Dipole moment (field-independent basis, Debye):
    X=              2.1177    Y=              2.4109    Z=              0.0000  Tot=              3.2089
 Quadrupole moment (field-independent basis, Debye-Ang):
   XX=            -50.0012   YY=            -45.6449   ZZ=            -53.1351
   XY=             -5.5477   XZ=             -0.0000   YZ=             -0.0000

 Summary of Natural Population Analysis:

                                       Natural Population
                Natural  -----------------------------------------------
    Atom  No    Charge         Core      Valence    Rydberg      Total
 -----------------------------------------------------------------------
      C    1    0.16753      1.99903     3.80675    0.02670     5.83247
      H    2    0.23496      0.00000     0.76432    0.00072     0.76504
      C    3   -0.17801      1.99902     4.16391    0.01509     6.17801
      C    4    0.10977      1.99914     3.86656    0.02453     5.89023
      N    5   -0.08432      1.99942     5.06078    0.02412     7.08432
      O    6   -0.32593      1.99977     6.31098    0.01518     8.32593
      C    7   -0.22900      1.99899     4.21279    0.01722     6.22900
      C    8   -0.24470      1.99914     4.22998    0.01558     6.24470
      C    9   -0.20860      1.99913     4.19405    0.01542     6.20860
      C   10   -0.20960      1.99903     4.19424    0.01634     6.20960
      H   11    0.24787      0.00000     0.75083    0.00130     0.75213
      H   12    0.24015      0.00000     0.75908    0.00077     0.75985
      H   13    0.23970      0.00000     0.75952    0.00079     0.76030
      H   14    0.24020      0.00000     0.75873    0.00107     0.75980
 =======================================================================
   * Total *   -0.00000     17.99265    43.83253    0.17482    62.00000

 Normal termination of Gaussian 16 at Mon Aug 27 11:41:08 2018.
