 Gaussian 16, Revision A.03,

 -------------------------
 # opt b3lyp/6-31G* scf=qc
 -------------------------

 -------------------
 Title Card Required
 -------------------
 Symbolic Z-matrix:
 Charge =  0 Multiplicity = 1

 SCF Done:  E(RB3LYP) =  -399.680700088     a.u. after    8 cycles
 SCF Done:  E(RB3LYP) =  -399.682743073     a.u. after    6 cycles
 SCF Done:  E(RB3LYP) =  -399.682991290     a.u. after    4 cycles
 SCF Done:  E(RB3LYP) =  -399.683033016     a.u. after    3 cycles
 SCF Done:  E(RB3LYP) =  -399.683040352     a.u. after    2 cycles
 Optimization completed.
    -- Stationary point found.
 Normal termination of Gaussian 16 at Mon Aug 27 11:37:23 2018.

 ----------------------------------------------------------------------
 # freq b3lyp/6-31G* volume NMR pop=NPA density=current Geom=AllCheck G
 uess=Read
 ----------------------------------------------------------------------

 Structure from the checkpoint file:  "science_add_152.chk"
 -------------------
 Title Card Required
 -------------------
 Charge =  0 Multiplicity = 1

 SCF Done:  E(RB3LYP) =  -399.683040352     A.U. after    1 cycles

      1  C    Isotropic =    34.6677   Anisotropy =   141.5339

      2  C    Isotropic =    73.0728   Anisotropy =   131.9082

      3  C    Isotropic =    50.6265   Anisotropy =   123.6556

      4  H    Isotropic =    24.0399   Anisotropy =     4.0912

      5  N    Isotropic =  -130.7942   Anisotropy =   271.2903

      6  O    Isotropic =   -13.3068   Anisotropy =   207.2335

      7  C    Isotropic =    74.5669   Anisotropy =   157.3990

      8  C    Isotropic =    72.7812   Anisotropy =   160.5749

      9  C    Isotropic =    67.2918   Anisotropy =   165.8453

     10  C    Isotropic =    86.0317   Anisotropy =   141.4191

     11  H    Isotropic =    24.6377   Anisotropy =     5.1266

     12  H    Isotropic =    24.9762   Anisotropy =     4.7553

     13  H    Isotropic =    24.7757   Anisotropy =     4.9654

     14  H    Isotropic =    24.8497   Anisotropy =     4.8999

  Exact polarizability: 106.250   3.436  85.268   0.000  -0.000  28.156
 Approx polarizability: 186.260  -2.188 157.783   0.000  -0.000  43.746

                      1                      2                      3
                      A                      A                      A
 Frequencies --    215.7226               259.2601               402.2118
 Red. masses --      5.6356                 4.5345                 4.9312
 Frc consts  --      0.1545                 0.1796                 0.4700
 IR Inten    --      0.0036                 2.5746                 2.9290

                      4                      5                      6
                      A                      A                      A
 Frequencies --    434.5971               542.0550               573.1508
 Red. masses --      3.1073                 7.4992                 3.9302
 Frc consts  --      0.3458                 1.2982                 0.7607
 IR Inten    --      1.5520                 0.9046                 0.2899

                      7                      8                      9
                      A                      A                      A
 Frequencies --    620.0770               629.6598               762.5758
 Red. masses --      5.6894                 6.9036                 2.5064
 Frc consts  --      1.2889                 1.6126                 0.8587
 IR Inten    --      6.7129                 2.8195                 5.3111

                     10                     11                     12
                      A                      A                      A
 Frequencies --    767.7054               785.2300               866.1803
 Red. masses --      1.6172                 5.7235                 1.3227
 Frc consts  --      0.5616                 2.0792                 0.5847
 IR Inten    --     48.7566                 7.3896                 4.0346

                     13                     14                     15
                      A                      A                      A
 Frequencies --    888.2428               892.5176               901.4903
 Red. masses --      7.5955                 1.3935                 8.5591
 Frc consts  --      3.5308                 0.6540                 4.0982
 IR Inten    --     24.5013                10.2044                17.5577

                     16                     17                     18
                      A                      A                      A
 Frequencies --    946.8621               952.2959               985.5859
 Red. masses --      1.3445                 4.8908                 1.2554
 Frc consts  --      0.7102                 2.6132                 0.7185
 IR Inten    --      1.9665                 8.9294                 0.0144

                     19                     20                     21
                      A                      A                      A
 Frequencies --   1036.9863              1146.7792              1180.9857
 Red. masses --      2.1380                 1.5348                 1.1904
 Frc consts  --      1.3546                 1.1892                 0.9782
 IR Inten    --      4.0102                 7.3016                 4.7060

                     22                     23                     24
                      A                      A                      A
 Frequencies --   1212.6187              1264.5081              1293.6293
 Red. masses --      1.4523                 2.7612                 2.7968
 Frc consts  --      1.2582                 2.6013                 2.7576
 IR Inten    --     14.9409                11.9789                 6.8274

                     25                     26                     27
                      A                      A                      A
 Frequencies --   1342.2121              1402.6394              1476.1464
 Red. masses --      2.0361                 5.9357                 2.7986
 Frc consts  --      2.1612                 6.8804                 3.5930
 IR Inten    --      2.4381                 8.5115                12.5546

                     28                     29                     30
                      A                      A                      A
 Frequencies --   1522.1772              1571.3755              1653.3722
 Red. masses --      2.7417                 4.5481                 6.9689
 Frc consts  --      3.7428                 6.6167                11.2242
 IR Inten    --      2.2534                20.2694                 1.4941

                     31                     32                     33
                      A                      A                      A
 Frequencies --   1669.7195              3193.0753              3203.4507
 Red. masses --      6.7184                 1.0863                 1.0901
 Frc consts  --     11.0357                 6.5253                 6.5912
 IR Inten    --     20.6198                 0.9765                10.8807

                     34                     35                     36
                      A                      A                      A
 Frequencies --   3215.5284              3229.8192              3255.6698
 Red. masses --      1.0957                 1.0947                 1.0957
 Frc consts  --      6.6747                 6.7283                 6.8427
 IR Inten    --     18.5246                 4.6591                 3.5094

 - Thermochemistry -
 -------------------
 Temperature   298.150 Kelvin.  Pressure   1.00000 Atm.
 Atom     1 has atomic number  6 and mass  12.00000

 Molecular mass:   119.03711 amu.
 Principal axes and moments of inertia in atomic units:
                           1         2         3
     Eigenvalues --   451.413701096.701651548.11535
           X            0.99976   0.02205  -0.00000
           Y           -0.02205   0.99976  -0.00000
           Z            0.00000   0.00000   1.00000
 This molecule is an asymmetric top.
 Rotational symmetry number  1.
 Warning -- assumption of classical behavior for rotation
           may cause significant error
 Rotational temperatures (Kelvin)      0.19187     0.07898     0.05595
 Rotational constants (GHZ):           3.99798     1.64561     1.16577
 Zero-point vibrational energy     276912.2 (Joules/Mol)
                                   66.18362 (Kcal/Mol)
 Warning -- explicit consideration of   7 degrees of freedom as
           vibrations may cause significant error
 Vibrational temperatures:    310.38   373.02   578.69   625.29   779.90
          (Kelvin)            824.64   892.15   905.94  1097.18  1104.56
                             1129.77  1246.24  1277.98  1284.13  1297.04
                             1362.32  1370.14  1418.04  1491.99  1649.96
                             1699.18  1744.69  1819.35  1861.24  1931.14
                             2018.09  2123.85  2190.07  2260.86  2378.83
                             2402.35  4594.12  4609.05  4626.43  4646.99
                             4684.18

 Zero-point correction=                           0.105470 (Hartree/Particle)
 Thermal correction to Energy=                    0.111324
 Thermal correction to Enthalpy=                  0.112268
 Thermal correction to Gibbs Free Energy=         0.075362
 Sum of electronic and zero-point Energies=           -399.577570
 Sum of electronic and thermal Energies=              -399.571717
 Sum of electronic and thermal Enthalpies=            -399.570772
 Sum of electronic and thermal Free Energies=         -399.607679

                     E (Thermal)             CV                S
                      KCal/Mol        Cal/Mol-Kelvin    Cal/Mol-Kelvin
 Total                   69.857             23.864             77.676
 Electronic               0.000              0.000              0.000
 Translational            0.889              2.981             40.237
 Rotational               0.889              2.981             28.129
 Vibrational             68.079             17.902              9.309
 Vibration     1          0.645              1.817              1.995
 Vibration     2          0.668              1.747              1.667
 Vibration     3          0.768              1.465              0.955
 Vibration     4          0.795              1.395              0.844
 Vibration     5          0.897              1.157              0.561
 Vibration     6          0.929              1.089              0.498
 Vibration     7          0.980              0.990              0.416

 Optimization completed.
    -- Stationary point found.
 Normal termination of Gaussian 16 at Mon Aug 27 11:39:21 2018.
 Gaussian 16:  ES64L-G16RevA.03 25-Dec-2016

 ----------------------------------------------------------------------
 # TD(NStates=10, Root=1) b3lyp/6-31G* volume pop=NPA density=current G
 eom=AllCheck Guess=Read
 ----------------------------------------------------------------------

 Structure from the checkpoint file:  "science_add_153.chk"
 -------------------
 Title Card Required
 -------------------
 Charge =  0 Multiplicity = 1

                         Standard orientation:
 ---------------------------------------------------------------------
 Center     Atomic      Atomic             Coordinates (Angstroms)
 Number     Number       Type             X           Y           Z
 ---------------------------------------------------------------------
      1          6           0        0.261868   -0.657578   -0.000000
      2          6           0        0.265832    0.743550   -0.000000
      3          6           0        1.666296    1.053681   -0.000004
      4          1           0        2.149676    2.023159   -0.000006
      5          7           0        2.411773   -0.017654    0.000006
      6          8           0        1.535035   -1.123508   -0.000002
      7          6           0       -0.948147    1.448162    0.000001
      8          6           0       -2.124505    0.710299    0.000001
      9          6           0       -2.101832   -0.701783    0.000000
     10          6           0       -0.909066   -1.416911   -0.000000
     11          1           0       -0.967343    2.534031    0.000000
     12          1           0       -3.081847    1.222979    0.000001
     13          1           0       -3.043299   -1.243940   -0.000000
     14          1           0       -0.882551   -2.501102   -0.000001
 ---------------------------------------------------------------------

 SCF Done:  E(RB3LYP) =  -399.683040352     A.U. after    2 cycles

 Excitation energies and oscillator strengths:

 Excited State   1:      Singlet-A      4.9063 eV  252.71 nm  f=0.0477  <S**2>=0.000
      30 -> 32        -0.27242
      30 -> 33         0.21187
      31 -> 32         0.59281
      31 -> 33         0.15556
 This state for optimization and/or second-order correction.
 Total Energy, E(TD-HF/TD-DFT) =  -399.502738181
 Copying the excited state density for this state as the 1-particle RhoCI density.

 Excited State   2:      Singlet-A      5.3938 eV  229.86 nm  f=0.1103  <S**2>=0.000
      30 -> 32         0.56620
      31 -> 32         0.30962
      31 -> 33        -0.25698

 Excited State   3:      Singlet-A      6.0325 eV  205.53 nm  f=0.0045  <S**2>=0.000
      29 -> 32         0.69802

 Excited State   4:      Singlet-A      6.4603 eV  191.92 nm  f=0.1825  <S**2>=0.000
      28 -> 32        -0.30110
      30 -> 32         0.18048
      30 -> 33         0.48627
      30 -> 34        -0.21315
      31 -> 32        -0.13587
      31 -> 33         0.24304

 Excited State   5:      Singlet-A      6.6554 eV  186.29 nm  f=0.0846  <S**2>=0.000
      28 -> 32         0.32477
      30 -> 33         0.34174
      31 -> 33        -0.33477
      31 -> 34         0.36925

 Excited State   6:      Singlet-A      6.9250 eV  179.04 nm  f=0.4098  <S**2>=0.000
      28 -> 32         0.42365
      30 -> 32         0.23425
      31 -> 33         0.46907
      31 -> 34         0.14987

 Excited State   7:      Singlet-A      7.2301 eV  171.48 nm  f=0.0014  <S**2>=0.000
      27 -> 32         0.69987

 Excited State   8:      Singlet-A      7.3387 eV  168.94 nm  f=0.0869  <S**2>=0.000
      28 -> 33         0.30835
      30 -> 33         0.24529
      30 -> 34         0.44952
      31 -> 34        -0.35173

 Excited State   9:      Singlet-A      7.4585 eV  166.23 nm  f=0.0007  <S**2>=0.000
      29 -> 33         0.69175

 Excited State  10:      Singlet-A      7.5767 eV  163.64 nm  f=0.1006  <S**2>=0.000
      26 -> 32        -0.17752
      28 -> 32        -0.31451
      28 -> 33         0.14383
      30 -> 33        -0.14882
      30 -> 34         0.35982
      31 -> 34         0.41976

 The electronic state is 1-A.
 Alpha  occ. eigenvalues --  -19.23016 -14.39163 -10.25686 -10.23458 -10.21250
 Alpha  occ. eigenvalues --  -10.21013 -10.20959 -10.20914 -10.20347  -1.13449
 Alpha  occ. eigenvalues --   -0.87751  -0.86991  -0.77138  -0.75929  -0.64644
 Alpha  occ. eigenvalues --   -0.62399  -0.60550  -0.53166  -0.51871  -0.47403
 Alpha  occ. eigenvalues --   -0.46913  -0.45690  -0.43464  -0.40015  -0.38358
 Alpha  occ. eigenvalues --   -0.36401  -0.35742  -0.32082  -0.31047  -0.25632
 Alpha  occ. eigenvalues --   -0.24848
 Alpha virt. eigenvalues --   -0.04577   0.00019   0.03929   0.08712   0.08879
 Alpha virt. eigenvalues --    0.13527   0.14371   0.15707   0.16265   0.17497
 Alpha virt. eigenvalues --    0.21614   0.24040   0.26129   0.31334   0.32861

 Mulliken charges:
               1
     1  C    0.366215
     2  C    0.069233
     3  C   -0.002102
     4  H    0.161719
     5  N   -0.192889
     6  O   -0.397428
     7  C   -0.194377
     8  C   -0.110587
     9  C   -0.166967
    10  C   -0.146667
    11  H    0.154742
    12  H    0.157889
    13  H    0.139691
    14  H    0.161528
 Sum of Mulliken charges =  -0.00000

 Dipole moment (field-independent basis, Debye):
    X=             -3.8777    Y=              1.5812    Z=             -0.0000  Tot=              4.1877
 Quadrupole moment (field-independent basis, Debye-Ang):
   XX=            -54.2164   YY=            -43.9883   ZZ=            -52.9770
   XY=              2.7804   XZ=             -0.0000   YZ=             -0.0000

 Summary of Natural Population Analysis:

                                       Natural Population
                Natural  -----------------------------------------------
    Atom  No    Charge         Core      Valence    Rydberg      Total
 -----------------------------------------------------------------------
      C    1    0.35166      1.99881     3.62523    0.02430     5.64834
      C    2   -0.15315      1.99899     4.13824    0.01592     6.15315
      C    3   -0.06876      1.99927     4.04379    0.02570     6.06876
      H    4    0.24414      0.00000     0.75533    0.00053     0.75586
      N    5   -0.17088      1.99946     5.14685    0.02457     7.17088
      O    6   -0.29357      1.99974     6.27924    0.01459     8.29357
      C    7   -0.20734      1.99907     4.19209    0.01618     6.20734
      C    8   -0.13100      1.99914     4.11664    0.01522     6.13100
      C    9   -0.30156      1.99918     4.28571    0.01667     6.30156
      C   10   -0.24660      1.99901     4.23069    0.01690     6.24660
      H   11    0.24314      0.00000     0.75591    0.00095     0.75686
      H   12    0.24022      0.00000     0.75902    0.00076     0.75978
      H   13    0.24141      0.00000     0.75787    0.00072     0.75859
      H   14    0.25229      0.00000     0.74660    0.00111     0.74771
 =======================================================================
   * Total *    0.00000     17.99268    43.83319    0.17413    62.00000

 Normal termination of Gaussian 16 at Mon Aug 27 11:42:30 2018.
