 Gaussian 16, Revision A.03,

 ---------------------------------
 # opt=CalcAll B3LYP/6-31G* scf=qc
 ---------------------------------

 -------------------
 Title Card Required
 -------------------
 Symbolic Z-matrix:
 Charge =  0 Multiplicity = 1

 SCF Done:  E(RB3LYP) =  -552.552370812     a.u. after    8 cycles
 SCF Done:  E(RB3LYP) =  -552.552370838     a.u. after    2 cycles
 Optimization completed.
    -- Stationary point found.
 Normal termination of Gaussian 16 at Mon Dec 30 18:18:37 2019.

 ----------------------------------------------------------------------
 # freq B3LYP/6-31G* scf=qc volume NMR pop=NPA density=current Geom=All
 Check Guess=Read
 ----------------------------------------------------------------------

 Structure from the checkpoint file:  "7_2.chk"
 -------------------
 Title Card Required
 -------------------
 Charge =  0 Multiplicity = 1

 SCF Done:  E(RB3LYP) =  -552.552370838     a.u. after    1 cycles

      1  C    Isotropic =    26.2240   Anisotropy =   121.7736

      2  C    Isotropic =    89.1579   Anisotropy =    94.0671

      3  H    Isotropic =    26.0056   Anisotropy =     5.0267

      4  C    Isotropic =    38.6484   Anisotropy =   114.0087

      5  N    Isotropic =  -140.1646   Anisotropy =   310.1197

      6  O    Isotropic =   -62.2509   Anisotropy =   270.0683

      7  C    Isotropic =    36.9359   Anisotropy =    74.3905

      8  O    Isotropic =   -56.6342   Anisotropy =   565.0700

      9  O    Isotropic =   134.9843   Anisotropy =   150.5651

     10  C    Isotropic =   129.3468   Anisotropy =    61.6505

     11  C    Isotropic =   174.4550   Anisotropy =    21.7894

     12  C    Isotropic =   176.9913   Anisotropy =    22.1465

     13  H    Isotropic =    28.3499   Anisotropy =     6.7953

     14  H    Isotropic =    27.2251   Anisotropy =     5.2216

     15  H    Isotropic =    30.8760   Anisotropy =     7.5943

     16  H    Isotropic =    31.3009   Anisotropy =     9.4172

     17  H    Isotropic =    30.5083   Anisotropy =     6.1313

     18  H    Isotropic =    30.0582   Anisotropy =     7.2519

     19  H    Isotropic =    29.8522   Anisotropy =     8.1542

     20  H    Isotropic =    29.8511   Anisotropy =     8.1055

  Exact polarizability: 125.371   0.478  80.177   3.490   0.458  53.003
 Approx polarizability: 154.882  -6.802 150.760   6.766   1.092  75.617

                      1                      2                      3
                      A                      A                      A
 Frequencies --     44.9107                58.0202                90.2000
 Red. masses --      3.9421                 3.5041                 3.6858
 Frc consts  --      0.0047                 0.0070                 0.0177
 IR Inten    --      5.3475                 1.5840                 0.8462

                      4                      5                      6
                      A                      A                      A
 Frequencies --    101.5800               130.8787               163.1149
 Red. masses --      1.1749                 3.0153                 3.6609
 Frc consts  --      0.0071                 0.0304                 0.0574
 IR Inten    --      0.4089                 4.8563                 0.9043

                      7                      8                      9
                      A                      A                      A
 Frequencies --    230.5269               286.5785               304.7697
 Red. masses --      1.2560                 3.8229                 3.8303
 Frc consts  --      0.0393                 0.1850                 0.2096
 IR Inten    --      3.3679                 0.0686                 2.2425

                     10                     11                     12
                      A                      A                      A
 Frequencies --    340.0677               368.5199               452.1931
 Red. masses --      3.1467                 4.2160                 3.6315
 Frc consts  --      0.2144                 0.3373                 0.4375
 IR Inten    --     13.3092                 8.3663                 3.1344

                     13                     14                     15
                      A                      A                      A
 Frequencies --    512.3015               639.4771               646.1452
 Red. masses --      6.5818                 8.2839                 4.8220
 Frc consts  --      1.0178                 1.9959                 1.1861
 IR Inten    --      0.2895                 2.7140                 5.2759

                     16                     17                     18
                      A                      A                      A
 Frequencies --    680.1382               780.2117               786.1857
 Red. masses --      4.3169                 3.5746                 1.8359
 Frc consts  --      1.1766                 1.2820                 0.6686
 IR Inten    --      0.4276                13.2535                 9.8976

                     19                     20                     21
                      A                      A                      A
 Frequencies --    839.9977               852.5073               881.9123
 Red. masses --      1.4388                 2.2369                 2.8268
 Frc consts  --      0.5981                 0.9578                 1.2954
 IR Inten    --     15.4871                17.4957                 5.1443

                     22                     23                     24
                      A                      A                      A
 Frequencies --    943.1364              1006.5574              1012.4596
 Red. masses --      4.3680                 4.4697                 4.7868
 Frc consts  --      2.2892                 2.6681                 2.8910
 IR Inten    --     27.3682                10.6221                 9.9277

                     25                     26                     27
                      A                      A                      A
 Frequencies --   1032.5932              1047.1850              1081.8545
 Red. masses --      1.9390                 3.9637                 1.5025
 Frc consts  --      1.2181                 2.5609                 1.0361
 IR Inten    --     37.9337                35.1493                 3.8218

                     28                     29                     30
                      A                      A                      A
 Frequencies --   1124.4376              1134.9451              1207.7377
 Red. masses --      1.8609                 1.9548                 1.7863
 Frc consts  --      1.3863                 1.4835                 1.5351
 IR Inten    --      7.9897                71.5228                 8.5727

                     31                     32                     33
                      A                      A                      A
 Frequencies --   1244.5517              1310.7660              1344.4599
 Red. masses --      5.3817                 3.4533                 1.1555
 Frc consts  --      4.9113                 3.4958                 1.2306
 IR Inten    --    321.5153               186.9356                38.3449

                     34                     35                     36
                      A                      A                      A
 Frequencies --   1416.1280              1441.1070              1442.6435
 Red. masses --      1.3058                 1.2983                 1.2761
 Frc consts  --      1.5429                 1.5887                 1.5648
 IR Inten    --      0.3173                15.1235                 3.8988

                     37                     38                     39
                      A                      A                      A
 Frequencies --   1486.2253              1503.7780              1508.4494
 Red. masses --      3.2178                 1.0420                 8.8951
 Frc consts  --      4.1878                 1.3883                11.9251
 IR Inten    --     41.1631                 7.8723                61.8599

                     40                     41                     42
                      A                      A                      A
 Frequencies --   1516.2822              1517.9301              1521.9749
 Red. masses --      1.0627                 1.0980                 1.2659
 Frc consts  --      1.4395                 1.4906                 1.7277
 IR Inten    --     14.0626                 1.2357                19.2822

                     43                     44                     45
                      A                      A                      A
 Frequencies --   1537.1884              1653.9582              1802.2452
 Red. masses --      1.0736                 6.8403                11.7269
 Frc consts  --      1.4947                11.0249                22.4420
 IR Inten    --     10.1651                35.7542               198.9385

                     46                     47                     48
                      A                      A                      A
 Frequencies --   3059.5537              3061.4132              3096.2885
 Red. masses --      1.0373                 1.0360                 1.0592
 Frc consts  --      5.7208                 5.7210                 5.9827
 IR Inten    --     14.9016                15.5258                23.4047

                     49                     50                     51
                      A                      A                      A
 Frequencies --   3116.0383              3129.5713              3138.5321
 Red. masses --      1.1016                 1.1005                 1.1047
 Frc consts  --      6.3019                 6.3506                 6.4115
 IR Inten    --      8.0758                27.4579                 4.3792

                     52                     53                     54
                      A                      A                      A
 Frequencies --   3154.0346              3159.9643              3307.1729
 Red. masses --      1.1012                 1.1087                 1.0992
 Frc consts  --      6.4546                 6.5227                 7.0832
 IR Inten    --      7.2213                26.7176                 2.3821

 - Thermochemistry -
 -------------------
 Temperature   298.150 Kelvin.  Pressure   1.00000 Atm.
 Atom     1 has atomic number  6 and mass  12.00000

 Molecular mass:   155.05824 amu.
 Principal axes and moments of inertia in atomic units:
                           1         2         3
     Eigenvalues --   504.108723434.774783755.69564
           X            0.99990   0.01376  -0.00394
           Y           -0.01374   0.99990   0.00424
           Z            0.00399  -0.00418   0.99998
 This molecule is an asymmetric top.
 Rotational symmetry number  1.
 Warning -- assumption of classical behavior for rotation
           may cause significant error
 Rotational temperatures (Kelvin)      0.17182     0.02522     0.02306
 Rotational constants (GHZ):           3.58006     0.52543     0.48053
 Zero-point vibrational energy     414215.4 (Joules/Mol)
                                   98.99985 (Kcal/Mol)
 Warning -- explicit consideration of  13 degrees of freedom as
           vibrations may cause significant error
 Vibrational temperatures:     64.62    83.48   129.78   146.15   188.31
          (Kelvin)            234.69   331.68   412.32   438.50   489.28
                              530.22   650.61   737.09   920.06   929.66
                              978.57  1122.55  1131.15  1208.57  1226.57
                             1268.88  1356.96  1448.21  1456.70  1485.67
                             1506.67  1556.55  1617.81  1632.93  1737.67
                             1790.63  1885.90  1934.38  2037.49  2073.43
                             2075.64  2138.35  2163.60  2170.32  2181.59
                             2183.96  2189.78  2211.67  2379.68  2593.03
                             4402.02  4404.69  4454.87  4483.28  4502.76
                             4515.65  4537.95  4546.48  4758.28

 Zero-point correction=                           0.157766 (Hartree/Particle)
 Thermal correction to Energy=                    0.168713
 Thermal correction to Enthalpy=                  0.169658
 Thermal correction to Gibbs Free Energy=         0.119884
 Sum of electronic and zero-point Energies=           -552.394605
 Sum of electronic and thermal Energies=              -552.383657
 Sum of electronic and thermal Enthalpies=            -552.382713
 Sum of electronic and thermal Free Energies=         -552.432487

                     E (Thermal)             CV                S
                      KCal/Mol        Cal/Mol-Kelvin    Cal/Mol-Kelvin
 Total                  105.869             38.447            104.757
 Electronic               0.000              0.000              0.000
 Translational            0.889              2.981             41.025
 Rotational               0.889              2.981             30.254
 Vibrational            104.092             32.486             33.478
 Vibration     1          0.595              1.979              5.030
 Vibration     2          0.596              1.974              4.523
 Vibration     3          0.602              1.956              3.656
 Vibration     4          0.604              1.948              3.424
 Vibration     5          0.612              1.922              2.933
 Vibration     6          0.623              1.888              2.513
 Vibration     7          0.652              1.794              1.875
 Vibration     8          0.684              1.699              1.494
 Vibration     9          0.696              1.665              1.391
 Vibration    10          0.720              1.595              1.212
 Vibration    11          0.741              1.537              1.086
 Vibration    12          0.811              1.356              0.789
 Vibration    13          0.867              1.223              0.628

 Optimization completed.
    -- Stationary point found.
 Normal termination of Gaussian 16 at Mon Dec 30 18:20:39 2019.
 Gaussian 16:  ES64L-G16RevA.03 25-Dec-2016

 ----------------------------------------------------------------------
 # TD(NStates=10, Root=1) B3LYP/6-31G* scf=qc volume pop=NPA density=cu
 rrent Geom=AllCheck Guess=Read
 ----------------------------------------------------------------------

 Structure from the checkpoint file:  "7_3.chk"
 -------------------
 Title Card Required
 -------------------
 Charge =  0 Multiplicity = 1

                         Standard orientation:
 ---------------------------------------------------------------------
 Center     Atomic      Atomic             Coordinates (Angstroms)
 Number     Number       Type             X           Y           Z
 ---------------------------------------------------------------------
      1          6           0        2.649099    0.099741    0.093333
      2          6           0        1.565726    0.919978    0.013288
      3          1           0        1.525795    1.997639    0.035603
      4          6           0        0.468487    0.021926   -0.110141
      5          7           0        0.851370   -1.239395   -0.105039
      6          8           0        2.233913   -1.191461    0.024065
      7          6           0       -0.957754    0.430981   -0.230415
      8          8           0       -1.295710    1.598437   -0.226196
      9          8           0       -1.786666   -0.616634   -0.344810
     10          6           0       -3.199634   -0.314525   -0.464868
     11          6           0       -3.843657   -0.136035    0.901460
     12          6           0        4.114529    0.324460    0.233627
     13          1           0       -3.609829   -1.177998   -0.993279
     14          1           0       -3.316737    0.580092   -1.081236
     15          1           0       -3.680148   -1.019823    1.526338
     16          1           0       -4.923784    0.009201    0.784683
     17          1           0       -3.433091    0.740227    1.410994
     18          1           0        4.327237    1.395148    0.279650
     19          1           0        4.659862   -0.103509   -0.615163
     20          1           0        4.498036   -0.147097    1.145514
 ---------------------------------------------------------------------

 SCF Done:  E(RB3LYP) =  -552.552370838     a.u. after    1 cycles

 Excitation energies and oscillator strengths:

 Excited State   1:      Singlet-A      4.9385 eV  251.06 nm  f=0.0002  <S**2>=0.000
      40 -> 42         0.68744
      40 -> 43        -0.13505
 This state for optimization and/or second-order correction.
 Total Energy, E(TD-HF/TD-DFT) =  -552.370885757
 Copying the excited state density for this state as the 1-particle RhoCI density.

 Excited State   2:      Singlet-A      5.3559 eV  231.49 nm  f=0.0461  <S**2>=0.000
      39 -> 42         0.13145
      41 -> 42         0.67736

 Excited State   3:      Singlet-A      5.8212 eV  212.99 nm  f=0.0057  <S**2>=0.000
      37 -> 42         0.70247

 Excited State   4:      Singlet-A      6.3318 eV  195.81 nm  f=0.0906  <S**2>=0.000
      38 -> 42         0.69174

 Excited State   5:      Singlet-A      6.5912 eV  188.11 nm  f=0.1096  <S**2>=0.000
      39 -> 42         0.65632
      41 -> 42        -0.14212
      41 -> 43        -0.16035

 Excited State   6:      Singlet-A      6.9484 eV  178.44 nm  f=0.0017  <S**2>=0.000
      40 -> 42         0.13930
      40 -> 43         0.67823

 Excited State   7:      Singlet-A      7.0350 eV  176.24 nm  f=0.0044  <S**2>=0.000
      35 -> 42        -0.14080
      36 -> 42         0.67268

 Excited State   8:      Singlet-A      7.1346 eV  173.78 nm  f=0.4586  <S**2>=0.000
      38 -> 43        -0.11278
      39 -> 42         0.15152
      39 -> 43        -0.13214
      41 -> 43         0.64237

 Excited State   9:      Singlet-A      7.5813 eV  163.54 nm  f=0.0004  <S**2>=0.000
      37 -> 43         0.69922

 Excited State  10:      Singlet-A      7.7439 eV  160.11 nm  f=0.0139  <S**2>=0.000
      39 -> 43         0.65589
      41 -> 43         0.12238
      41 -> 47        -0.12317

 The electronic state is 1-A.
 Alpha  occ. eigenvalues --  -19.24224 -19.19498 -19.14243 -14.38991 -10.32715
 Alpha  occ. eigenvalues --  -10.26801 -10.24621 -10.23723 -10.21205 -10.20138
 Alpha  occ. eigenvalues --  -10.18462  -1.14859  -1.10614  -1.01991  -0.88027
 Alpha  occ. eigenvalues --   -0.81726  -0.77469  -0.73069  -0.68444  -0.62669
 Alpha  occ. eigenvalues --   -0.60447  -0.55399  -0.52237  -0.48955  -0.48826
 Alpha  occ. eigenvalues --   -0.47869  -0.46081  -0.44701  -0.42835  -0.42525
 Alpha  occ. eigenvalues --   -0.41542  -0.40644  -0.39372  -0.38848  -0.37296
 Alpha  occ. eigenvalues --   -0.34450  -0.31041  -0.30412  -0.30031  -0.28272
 Alpha  occ. eigenvalues --   -0.26322
 Alpha virt. eigenvalues --   -0.04756   0.01117   0.08765   0.10632   0.11228
 Alpha virt. eigenvalues --    0.11416   0.11958   0.14142   0.14542   0.15460
 Alpha virt. eigenvalues --    0.16179   0.16436   0.17363   0.18732   0.20545

 Mulliken charges:
               1
     1  C    0.410736
     2  C   -0.297693
     3  H    0.138816
     4  C    0.229497
     5  N   -0.294071
     6  O   -0.375303
     7  C    0.583115
     8  O   -0.296924
     9  O   -0.417633
    10  C   -0.071239
    11  C   -0.461262
    12  C   -0.527136
    13  H    0.180045
    14  H    0.170135
    15  H    0.180120
    16  H    0.160624
    17  H    0.170362
    18  H    0.165360
    19  H    0.176297
    20  H    0.176155
 Sum of Mulliken charges =   0.00000

 Dipole moment (field-independent basis, Debye):
    X=             -2.7407    Y=              2.7695    Z=              0.0697  Tot=              3.8970
 Quadrupole moment (field-independent basis, Debye-Ang):
   XX=            -43.0304   YY=            -68.2151   ZZ=            -63.4735
   XY=              5.4082   XZ=              1.5440   YZ=             -0.1558

 Summary of Natural Population Analysis:

                                       Natural Population
                Natural  -----------------------------------------------
    Atom  No    Charge         Core      Valence    Rydberg      Total
 -----------------------------------------------------------------------
      C    1    0.31953      1.99902     3.65791    0.02354     5.68047
      C    2   -0.35737      1.99886     4.34827    0.01025     6.35737
      H    3    0.24716      0.00000     0.75254    0.00029     0.75284
      C    4   -0.02500      1.99908     3.99890    0.02703     6.02500
      N    5   -0.18979      1.99938     5.16561    0.02480     7.18979
      O    6   -0.32238      1.99974     6.30851    0.01413     8.32238
      C    7    0.64571      1.99933     3.31712    0.03784     5.35429
      O    8   -0.24716      1.99982     6.22874    0.01860     8.24716
      O    9   -0.46670      1.99976     6.45523    0.01171     8.46670
      C   10   -0.11747      1.99927     4.10088    0.01732     6.11747
      C   11   -0.71146      1.99945     4.70446    0.00755     6.71146
      C   12   -0.72087      1.99934     4.71419    0.00734     6.72087
      H   13    0.24197      0.00000     0.75694    0.00109     0.75803
      H   14    0.22099      0.00000     0.77721    0.00180     0.77901
      H   15    0.24720      0.00000     0.75162    0.00118     0.75280
      H   16    0.24423      0.00000     0.75483    0.00094     0.75577
      H   17    0.23916      0.00000     0.75959    0.00124     0.76084
      H   18    0.24842      0.00000     0.75102    0.00056     0.75158
      H   19    0.25195      0.00000     0.74662    0.00144     0.74805
      H   20    0.25188      0.00000     0.74669    0.00143     0.74812
 =======================================================================
   * Total *   -0.00000     21.99302    59.79689    0.21009    82.00000

 Normal termination of Gaussian 16 at Mon Dec 30 18:23:27 2019.
