 Gaussian 16, Revision A.03,

 ---------------------------------
 # opt=CalcAll B3LYP/6-31G* scf=qc
 ---------------------------------

 -------------------
 Title Card Required
 -------------------
 Symbolic Z-matrix:
 Charge =  0 Multiplicity = 1

 SCF Done:  E(RB3LYP) =  -513.232447736     a.u. after    8 cycles
 SCF Done:  E(RB3LYP) =  -513.232447804     a.u. after    2 cycles
 Optimization completed.
    -- Stationary point found.
 Normal termination of Gaussian 16 at Mon Dec 30 18:19:44 2019.

 ----------------------------------------------------------------------
 # freq B3LYP/6-31G* scf=qc volume NMR pop=NPA density=current Geom=All
 Check Guess=Read
 ----------------------------------------------------------------------

 Structure from the checkpoint file:  "8_2.chk"
 -------------------
 Title Card Required
 -------------------
 Charge =  0 Multiplicity = 1

 SCF Done:  E(RB3LYP) =  -513.232447804     a.u. after    1 cycles

      1  C    Isotropic =    35.7637   Anisotropy =   133.0098

      2  H    Isotropic =    23.7073   Anisotropy =     4.9895

      3  C    Isotropic =    78.7726   Anisotropy =    75.6410

      4  C    Isotropic =    45.8441   Anisotropy =   137.3350

      5  H    Isotropic =    23.9232   Anisotropy =     4.7534

      6  N    Isotropic =  -132.8328   Anisotropy =   266.8401

      7  O    Isotropic =   -61.4439   Anisotropy =   291.1225

      8  C    Isotropic =    37.9003   Anisotropy =    74.5079

      9  O    Isotropic =   -48.5527   Anisotropy =   558.4866

     10  O    Isotropic =   137.5657   Anisotropy =   130.7552

     11  C    Isotropic =   129.8086   Anisotropy =    61.4583

     12  C    Isotropic =   174.2871   Anisotropy =    22.1246

     13  H    Isotropic =    28.4760   Anisotropy =     6.7867

     14  H    Isotropic =    27.2365   Anisotropy =     5.2694

     15  H    Isotropic =    30.9620   Anisotropy =     7.5073

     16  H    Isotropic =    31.2901   Anisotropy =     9.4472

     17  H    Isotropic =    30.4967   Anisotropy =     6.1861

  Exact polarizability:  98.762  -0.036  76.892   3.510   1.587  43.678
 Approx polarizability: 134.613  -9.491 140.340   7.747   3.089  62.458

                      1                      2                      3
                      A                      A                      A
 Frequencies --     57.9560                68.8896                99.7778
 Red. masses --      3.0692                 4.6779                 5.5108
 Frc consts  --      0.0061                 0.0131                 0.0323
 IR Inten    --      0.2287                 0.0461                 0.3009

                      4                      5                      6
                      A                      A                      A
 Frequencies --    137.2581               215.5983               234.2414
 Red. masses --      3.3218                 6.3240                 1.2708
 Frc consts  --      0.0369                 0.1732                 0.0411
 IR Inten    --      0.6546                 7.7061                 3.8783

                      7                      8                      9
                      A                      A                      A
 Frequencies --    333.9851               350.6366               457.1437
 Red. masses --      2.8578                 5.3499                 3.8936
 Frc consts  --      0.1878                 0.3875                 0.4794
 IR Inten    --     17.2755                 3.7902                 3.6328

                     10                     11                     12
                      A                      A                      A
 Frequencies --    504.4046               598.7121               639.1014
 Red. masses --      5.9107                 3.2938                 6.9019
 Frc consts  --      0.8860                 0.6956                 1.6610
 IR Inten    --      4.1468                 6.2630                 0.5794

                     13                     14                     15
                      A                      A                      A
 Frequencies --    762.4938               777.3320               842.4613
 Red. masses --      5.9214                 1.8501                 2.3665
 Frc consts  --      2.0284                 0.6587                 0.9896
 IR Inten    --     29.1120                 6.5556                 4.5881

                     16                     17                     18
                      A                      A                      A
 Frequencies --    852.7338               871.1967               880.5967
 Red. masses --      4.3550                 1.4652                 2.8868
 Frc consts  --      1.8658                 0.6552                 1.3189
 IR Inten    --     22.5048                 5.8710                 1.7601

                     19                     20                     21
                      A                      A                      A
 Frequencies --    918.8384               929.3104              1002.1697
 Red. masses --      1.3498                 8.0182                 4.0532
 Frc consts  --      0.6714                 4.0799                 2.3985
 IR Inten    --      9.0937                 3.7229                31.9334

                     22                     23                     24
                      A                      A                      A
 Frequencies --   1044.4776              1127.4538              1155.3843
 Red. masses --      3.4309                 1.9175                 2.0104
 Frc consts  --      2.2052                 1.4361                 1.5812
 IR Inten    --     68.4434                12.6016                73.7247

                     25                     26                     27
                      A                      A                      A
 Frequencies --   1169.1965              1209.7408              1235.9560
 Red. masses --      2.4185                 1.7208                 2.2477
 Frc consts  --      1.9479                 1.4837                 2.0230
 IR Inten    --    112.7834                 5.1007               276.4163

                     28                     29                     30
                      A                      A                      A
 Frequencies --   1326.0604              1344.0337              1408.5104
 Red. masses --      2.8768                 1.1231                 1.7415
 Frc consts  --      2.9805                 1.1954                 2.0356
 IR Inten    --     84.3111                13.2203                39.6685

                     31                     32                     33
                      A                      A                      A
 Frequencies --   1433.4169              1447.4100              1503.3822
 Red. masses --      1.9360                 1.6954                 5.7296
 Frc consts  --      2.3437                 2.0927                 7.6298
 IR Inten    --     74.1896                25.8758                 9.5524

                     34                     35                     36
                      A                      A                      A
 Frequencies --   1516.1563              1519.2894              1536.6892
 Red. masses --      1.0580                 1.1105                 1.0637
 Frc consts  --      1.4329                 1.5103                 1.4799
 IR Inten    --     11.5071                 8.3347                 8.0785

                     37                     38                     39
                      A                      A                      A
 Frequencies --   1643.0236              1807.7305              3061.2594
 Red. masses --      5.9289                11.7774                 1.0360
 Frc consts  --      9.4301                22.6760                 5.7204
 IR Inten    --     72.5861               253.3019                15.5325

                     40                     41                     42
                      A                      A                      A
 Frequencies --   3095.7632              3127.8428              3139.4328
 Red. masses --      1.0592                 1.1018                 1.1037
 Frc consts  --      5.9811                 6.3508                 6.4089
 IR Inten    --     24.8000                23.7930                 7.0188

                     43                     44                     45
                      A                      A                      A
 Frequencies --   3159.3113              3276.2861              3300.3030
 Red. masses --      1.1085                 1.0966                 1.0994
 Frc consts  --      6.5187                 6.9353                 7.0552
 IR Inten    --     25.4476                 1.2747                 1.0622

 - Thermochemistry -
 -------------------
 Temperature   298.150 Kelvin.  Pressure   1.00000 Atm.
 Atom     1 has atomic number  6 and mass  12.00000

 Molecular mass:   141.04259 amu.
 Principal axes and moments of inertia in atomic units:
                           1         2         3
     Eigenvalues --   477.265602522.123562836.42846
           X            0.99990   0.01191  -0.00800
           Y           -0.01187   0.99991   0.00547
           Z            0.00807  -0.00537   0.99995
 This molecule is an asymmetric top.
 Rotational symmetry number  1.
 Warning -- assumption of classical behavior for rotation
           may cause significant error
 Rotational temperatures (Kelvin)      0.18148     0.03434     0.03054
 Rotational constants (GHZ):           3.78142     0.71556     0.63627
 Zero-point vibrational energy     341671.1 (Joules/Mol)
                                   81.66135 (Kcal/Mol)
 Warning -- explicit consideration of  11 degrees of freedom as
           vibrations may cause significant error
 Vibrational temperatures:     83.39    99.12   143.56   197.48   310.20
          (Kelvin)            337.02   480.53   504.49   657.73   725.73
                              861.41   919.52  1097.06  1118.41  1212.11
                             1226.89  1253.46  1266.98  1322.00  1337.07
                             1441.90  1502.77  1622.15  1662.34  1682.21
                             1740.55  1778.27  1907.91  1933.76  2026.53
                             2062.37  2082.50  2163.03  2181.41  2185.92
                             2210.95  2363.94  2600.92  4404.47  4454.11
                             4500.27  4516.94  4545.54  4713.85  4748.40

 Zero-point correction=                           0.130136 (Hartree/Particle)
 Thermal correction to Energy=                    0.139292
 Thermal correction to Enthalpy=                  0.140236
 Thermal correction to Gibbs Free Energy=         0.094722
 Sum of electronic and zero-point Energies=           -513.102312
 Sum of electronic and thermal Energies=              -513.093156
 Sum of electronic and thermal Enthalpies=            -513.092211
 Sum of electronic and thermal Free Energies=         -513.137725

                     E (Thermal)             CV                S
                      KCal/Mol        Cal/Mol-Kelvin    Cal/Mol-Kelvin
 Total                   87.407             32.394             95.792
 Electronic               0.000              0.000              0.000
 Translational            0.889              2.981             40.743
 Rotational               0.889              2.981             29.614
 Vibrational             85.630             26.432             25.436
 Vibration     1          0.596              1.974              4.526
 Vibration     2          0.598              1.969              4.185
 Vibration     3          0.604              1.949              3.459
 Vibration     4          0.614              1.916              2.842
 Vibration     5          0.645              1.817              1.996
 Vibration     6          0.654              1.788              1.846
 Vibration     7          0.716              1.608              1.241
 Vibration     8          0.728              1.574              1.163
 Vibration     9          0.815              1.345              0.774
 Vibration    10          0.860              1.240              0.647
 Vibration    11          0.957              1.035              0.452

 Optimization completed.
    -- Stationary point found.
 Normal termination of Gaussian 16 at Mon Dec 30 18:21:14 2019.
 Gaussian 16:  ES64L-G16RevA.03 25-Dec-2016

 ----------------------------------------------------------------------
 # TD(NStates=10, Root=1) B3LYP/6-31G* scf=qc volume pop=NPA density=cu
 rrent Geom=AllCheck Guess=Read
 ----------------------------------------------------------------------

 Structure from the checkpoint file:  "8_3.chk"
 -------------------
 Title Card Required
 -------------------
 Charge =  0 Multiplicity = 1

                         Standard orientation:
 ---------------------------------------------------------------------
 Center     Atomic      Atomic             Coordinates (Angstroms)
 Number     Number       Type             X           Y           Z
 ---------------------------------------------------------------------
      1          6           0        1.504330   -1.119738   -0.058351
      2          1           0        1.124088   -2.125630   -0.162028
      3          6           0        0.903521    0.107567   -0.058953
      4          6           0        2.000419    1.002566    0.124260
      5          1           0        1.968559    2.082741    0.182915
      6          7           0        3.144572    0.377506    0.224768
      7          8           0        2.823349   -0.992361    0.106989
      8          6           0       -0.512657    0.472949   -0.206829
      9          8           0       -0.920492    1.617286   -0.192156
     10          8           0       -1.290225   -0.622156   -0.364117
     11          6           0       -2.713229   -0.387879   -0.517435
     12          6           0       -3.403791   -0.269291    0.832478
     13          1           0       -3.067691   -1.257352   -1.076145
     14          1           0       -2.856200    0.513318   -1.118177
     15          1           0       -3.219469   -1.158012    1.444828
     16          1           0       -4.485583   -0.170120    0.687007
     17          1           0       -3.048312    0.613307    1.371463
 ---------------------------------------------------------------------

 SCF Done:  E(RB3LYP) =  -513.232447804     a.u. after    1 cycles

 Excitation energies and oscillator strengths:

 Excited State   1:      Singlet-A      5.1267 eV  241.84 nm  f=0.0003  <S**2>=0.000
      36 -> 38         0.66933
      36 -> 39         0.20288
 This state for optimization and/or second-order correction.
 Total Energy, E(TD-HF/TD-DFT) =  -513.044045859
 Copying the excited state density for this state as the 1-particle RhoCI density.

 Excited State   2:      Singlet-A      6.0439 eV  205.14 nm  f=0.1320  <S**2>=0.000
      35 -> 38        -0.23276
      37 -> 38         0.62882
      37 -> 39         0.18096

 Excited State   3:      Singlet-A      6.3061 eV  196.61 nm  f=0.0026  <S**2>=0.000
      33 -> 38         0.68163
      33 -> 39        -0.16134

 Excited State   4:      Singlet-A      6.3938 eV  193.91 nm  f=0.0250  <S**2>=0.000
      34 -> 38         0.47988
      35 -> 38         0.12767
      37 -> 38         0.22127
      37 -> 39        -0.43708

 Excited State   5:      Singlet-A      6.4626 eV  191.85 nm  f=0.0024  <S**2>=0.000
      36 -> 38        -0.21336
      36 -> 39         0.65843

 Excited State   6:      Singlet-A      6.5897 eV  188.15 nm  f=0.0488  <S**2>=0.000
      34 -> 38        -0.27561
      35 -> 38         0.59793
      35 -> 39        -0.10086
      37 -> 38         0.18219

 Excited State   7:      Singlet-A      7.0367 eV  176.20 nm  f=0.3259  <S**2>=0.000
      34 -> 38         0.39474
      34 -> 39         0.21563
      35 -> 38         0.20146
      37 -> 39         0.48421

 Excited State   8:      Singlet-A      7.0997 eV  174.63 nm  f=0.0065  <S**2>=0.000
      33 -> 38         0.15918
      33 -> 39         0.67665

 Excited State   9:      Singlet-A      7.3286 eV  169.18 nm  f=0.0012  <S**2>=0.000
      31 -> 38         0.13454
      32 -> 38         0.66935
      32 -> 39         0.12393

 Excited State  10:      Singlet-A      7.4620 eV  166.15 nm  f=0.0537  <S**2>=0.000
      34 -> 39        -0.12333
      35 -> 39         0.67679

 The electronic state is 1-A.
 Alpha  occ. eigenvalues --  -19.25512 -19.20110 -19.14554 -14.39687 -10.33251
 Alpha  occ. eigenvalues --  -10.28001 -10.25261 -10.24125 -10.22112 -10.19049
 Alpha  occ. eigenvalues --   -1.15731  -1.10932  -1.02381  -0.88707  -0.82442
 Alpha  occ. eigenvalues --   -0.77565  -0.68629  -0.63947  -0.61564  -0.58409
 Alpha  occ. eigenvalues --   -0.55140  -0.50663  -0.49013  -0.48282  -0.46470
 Alpha  occ. eigenvalues --   -0.45164  -0.43324  -0.41544  -0.40737  -0.39488
 Alpha  occ. eigenvalues --   -0.38263  -0.35179  -0.32113  -0.31736  -0.30804
 Alpha  occ. eigenvalues --   -0.28728  -0.28064
 Alpha virt. eigenvalues --   -0.04589  -0.01116   0.08076   0.10016   0.10863
 Alpha virt. eigenvalues --    0.11015   0.11816   0.13941   0.14565   0.16251
 Alpha virt. eigenvalues --    0.17095   0.17470   0.18730   0.22101   0.25685

 Mulliken charges:
               1
     1  C    0.049769
     2  H    0.162463
     3  C   -0.031913
     4  C    0.026392
     5  H    0.164491
     6  N   -0.169826
     7  O   -0.335114
     8  C    0.547451
     9  O   -0.300235
    10  O   -0.442975
    11  C   -0.068398
    12  C   -0.460067
    13  H    0.175661
    14  H    0.172711
    15  H    0.174790
    16  H    0.162027
    17  H    0.172772
 Sum of Mulliken charges =  -0.00000

 Dipole moment (field-independent basis, Debye):
    X=             -6.2153    Y=              0.0897    Z=             -0.4776  Tot=              6.2343
 Quadrupole moment (field-independent basis, Debye-Ang):
   XX=            -61.8523   YY=            -54.4921   ZZ=            -57.4448
   XY=              3.2560   XZ=             -0.0610   YZ=              0.4579

 Summary of Natural Population Analysis:

                                       Natural Population
                Natural  -----------------------------------------------
    Atom  No    Charge         Core      Valence    Rydberg      Total
 -----------------------------------------------------------------------
      C    1    0.06630      1.99901     3.90747    0.02722     5.93370
      H    2    0.22957      0.00000     0.77007    0.00036     0.77043
      C    3   -0.32382      1.99885     4.30899    0.01598     6.32382
      C    4   -0.02137      1.99925     3.99963    0.02249     6.02137
      H    5    0.24159      0.00000     0.75806    0.00035     0.75841
      N    6   -0.13636      1.99946     5.11338    0.02353     7.13636
      O    7   -0.31481      1.99977     6.30040    0.01465     8.31481
      C    8    0.63420      1.99930     3.32920    0.03730     5.36580
      O    9   -0.24889      1.99982     6.23039    0.01868     8.24889
      O   10   -0.49073      1.99977     6.47994    0.01102     8.49073
      C   11   -0.11621      1.99927     4.09959    0.01735     6.11621
      C   12   -0.71148      1.99945     4.70446    0.00756     6.71148
      H   13    0.23922      0.00000     0.75968    0.00110     0.76078
      H   14    0.22275      0.00000     0.77547    0.00178     0.77725
      H   15    0.24433      0.00000     0.75446    0.00121     0.75567
      H   16    0.24508      0.00000     0.75397    0.00095     0.75492
      H   17    0.24062      0.00000     0.75811    0.00128     0.75938
 =======================================================================
   * Total *   -0.00001     19.99396    53.80326    0.20279    74.00001

 Normal termination of Gaussian 16 at Mon Dec 30 18:23:19 2019.
