 Gaussian 16, Revision A.03,

 -------------------------
 # opt b3lyp/6-31G* scf=qc
 -------------------------

 -------------------
 Title Card Required
 -------------------
 Symbolic Z-matrix:
 Charge =  0 Multiplicity = 1

 SCF Done:  E(RB3LYP) =  -552.553245906     a.u. after   10 cycles
 SCF Done:  E(RB3LYP) =  -552.557865254     a.u. after   13 cycles
 SCF Done:  E(RB3LYP) =  -552.558224858     a.u. after   11 cycles
 SCF Done:  E(RB3LYP) =  -552.559510837     a.u. after    9 cycles
 SCF Done:  E(RB3LYP) =  -552.559574518     a.u. after    4 cycles
 SCF Done:  E(RB3LYP) =  -552.559586745     a.u. after    3 cycles
 SCF Done:  E(RB3LYP) =  -552.559592066     a.u. after    3 cycles
 SCF Done:  E(RB3LYP) =  -552.559592809     a.u. after    2 cycles
 SCF Done:  E(RB3LYP) =  -552.559592991     a.u. after    2 cycles
 SCF Done:  E(RB3LYP) =  -552.559593122     a.u. after    2 cycles
 SCF Done:  E(RB3LYP) =  -552.559593243     a.u. after    2 cycles
 SCF Done:  E(RB3LYP) =  -552.559593378     a.u. after    2 cycles
 SCF Done:  E(RB3LYP) =  -552.559593548     a.u. after    2 cycles
 SCF Done:  E(RB3LYP) =  -552.559593640     a.u. after    2 cycles
 SCF Done:  E(RB3LYP) =  -552.559593695     a.u. after    2 cycles
 Optimization completed.
    -- Stationary point found.
 Normal termination of Gaussian 16 at Mon Aug 27 11:43:54 2018.

 ----------------------------------------------------------------------
 # freq b3lyp/6-31G* volume NMR pop=NPA density=current Geom=AllCheck G
 uess=Read
 ----------------------------------------------------------------------

 Structure from the checkpoint file:  "science_add_112.chk"
 -------------------
 Title Card Required
 -------------------
 Charge =  0 Multiplicity = 1

 SCF Done:  E(RB3LYP) =  -552.559593695     A.U. after    1 cycles

      1  C    Isotropic =    19.7757   Anisotropy =   141.5702

      2  C    Isotropic =    82.9610   Anisotropy =    76.0966

      3  C    Isotropic =    46.4257   Anisotropy =   130.8034

      4  H    Isotropic =    24.1937   Anisotropy =     5.2861

      5  N    Isotropic =  -124.2818   Anisotropy =   259.3704

      6  O    Isotropic =   -64.1353   Anisotropy =   269.2513

      7  C    Isotropic =    36.1794   Anisotropy =    76.4204

      8  O    Isotropic =   -28.6237   Anisotropy =   546.0617

      9  O    Isotropic =   134.1186   Anisotropy =   132.2645

     10  C    Isotropic =   130.2229   Anisotropy =    60.7565

     11  C    Isotropic =   174.2389   Anisotropy =    22.1859

     12  C    Isotropic =   178.0698   Anisotropy =    19.6253

     13  H    Isotropic =    28.4825   Anisotropy =     6.9147

     14  H    Isotropic =    27.2585   Anisotropy =     5.2207

     15  H    Isotropic =    30.9541   Anisotropy =     7.5348

     16  H    Isotropic =    31.3047   Anisotropy =     9.5132

     17  H    Isotropic =    30.5167   Anisotropy =     6.0325

     18  H    Isotropic =    28.7153   Anisotropy =     7.8480

     19  H    Isotropic =    30.0285   Anisotropy =     8.6220

     20  H    Isotropic =    30.0238   Anisotropy =     8.4922

  Exact polarizability: 112.419   5.084  91.883   3.636   0.457  52.762
 Approx polarizability: 156.429   3.466 151.272   8.970   0.216  75.956

                      1                      2                      3
                      A                      A                      A
 Frequencies --     49.6885                63.7613                93.2483
 Red. masses --      3.0966                 4.2807                 1.3314
 Frc consts  --      0.0045                 0.0103                 0.0068
 IR Inten    --      0.8956                 0.6587                 0.6946

                      4                      5                      6
                      A                      A                      A
 Frequencies --    100.2134               143.3055               202.2782
 Red. masses --      2.4933                 2.8617                 5.5055
 Frc consts  --      0.0148                 0.0346                 0.1327
 IR Inten    --      0.2361                 1.3823                 8.1517

                      7                      8                      9
                      A                      A                      A
 Frequencies --    233.5389               261.4692               277.9779
 Red. masses --      1.2547                 3.9351                 3.4902
 Frc consts  --      0.0403                 0.1585                 0.1589
 IR Inten    --      4.2933                 0.1705                 1.9361

                     10                     11                     12
                      A                      A                      A
 Frequencies --    341.8359               404.2147               449.9593
 Red. masses --      2.8023                 4.7408                 5.0573
 Frc consts  --      0.1929                 0.4564                 0.6033
 IR Inten    --     16.8194                 2.9954                 3.5109

                     13                     14                     15
                      A                      A                      A
 Frequencies --    504.0760               635.4989               648.6594
 Red. masses --      4.0568                 7.2723                 4.3286
 Frc consts  --      0.6073                 1.7304                 1.0731
 IR Inten    --      9.0111                 1.1084                 0.0403

                     16                     17                     18
                      A                      A                      A
 Frequencies --    689.3030               771.8080               781.3135
 Red. masses --      4.9337                 6.2322                 1.8234
 Frc consts  --      1.3811                 2.1873                 0.6558
 IR Inten    --      4.1172                18.8225                 5.9444

                     19                     20                     21
                      A                      A                      A
 Frequencies --    850.1704               875.6523               883.1922
 Red. masses --      2.1412                 5.7543                 2.8452
 Frc consts  --      0.9118                 2.5996                 1.3076
 IR Inten    --      8.5020                 3.2725                 0.6821

                     22                     23                     24
                      A                      A                      A
 Frequencies --    912.9633               951.8067              1021.9151
 Red. masses --      1.3263                 6.3988                 2.1873
 Frc consts  --      0.6513                 3.4154                 1.3458
 IR Inten    --      7.1011                12.9226                 7.6379

                     25                     26                     27
                      A                      A                      A
 Frequencies --   1032.3040              1082.5200              1123.6226
 Red. masses --      2.7361                 1.5271                 2.5244
 Frc consts  --      1.7179                 1.0544                 1.8778
 IR Inten    --      8.1129                 2.9751                67.8214

                     28                     29                     30
                      A                      A                      A
 Frequencies --   1136.9141              1188.9030              1211.4120
 Red. masses --      3.2588                 1.5650                 1.7468
 Frc consts  --      2.4818                 1.3033                 1.5103
 IR Inten    --    287.5667                21.5152                21.4058

                     31                     32                     33
                      A                      A                      A
 Frequencies --   1274.9474              1315.7989              1344.6774
 Red. masses --      4.2648                 4.5095                 1.1439
 Frc consts  --      4.0845                 4.6000                 1.2187
 IR Inten    --    229.6108                91.2483                28.0732

                     34                     35                     36
                      A                      A                      A
 Frequencies --   1405.7432              1424.4834              1437.7054
 Red. masses --      2.2553                 1.3819                 1.4659
 Frc consts  --      2.6259                 1.6521                 1.7852
 IR Inten    --     27.2898                14.4678                32.6566

                     37                     38                     39
                      A                      A                      A
 Frequencies --   1447.1848              1502.0367              1515.9177
 Red. masses --      1.6296                 1.1246                 1.0501
 Frc consts  --      2.0109                 1.4949                 1.4218
 IR Inten    --     13.9831                24.0381                 8.9034

                     40                     41                     42
                      A                      A                      A
 Frequencies --   1516.2036              1518.7429              1536.6392
 Red. masses --      1.0505                 1.0776                 1.0698
 Frc consts  --      1.4229                 1.4644                 1.4883
 IR Inten    --     10.4240                 6.5743                 8.7189

                     43                     44                     45
                      A                      A                      A
 Frequencies --   1542.2412              1656.6590              1791.6965
 Red. masses --      5.9943                 6.7530                11.3966
 Frc consts  --      8.4002                10.9198                21.5553
 IR Inten    --     39.5499               168.1290               216.5476

                     46                     47                     48
                      A                      A                      A
 Frequencies --   3060.8964              3061.0205              3095.0270
 Red. masses --      1.0378                 1.0370                 1.0592
 Frc consts  --      5.7289                 5.7247                 5.9779
 IR Inten    --     19.8759                 7.1836                26.0337

                     49                     50                     51
                      A                      A                      A
 Frequencies --   3115.9230              3127.5588              3138.8662
 Red. masses --      1.1010                 1.1017                 1.1037
 Frc consts  --      6.2980                 6.3494                 6.4068
 IR Inten    --      6.2350                24.4687                 7.3184

                     52                     53                     54
                      A                      A                      A
 Frequencies --   3158.7248              3183.5663              3275.1431
 Red. masses --      1.1083                 1.1000                 1.0963
 Frc consts  --      6.5153                 6.5685                 6.9286
 IR Inten    --     26.8426                 0.3059                 0.5916

 - Thermochemistry -
 -------------------
 Temperature   298.150 Kelvin.  Pressure   1.00000 Atm.
 Atom     1 has atomic number  6 and mass  12.00000

 Molecular mass:   155.05824 amu.
 Principal axes and moments of inertia in atomic units:
                           1         2         3
     Eigenvalues --   774.094622720.191313317.57092
           X            0.99957   0.02841  -0.00735
           Y           -0.02836   0.99957   0.00739
           Z            0.00756  -0.00718   0.99995
 This molecule is an asymmetric top.
 Rotational symmetry number  1.
 Warning -- assumption of classical behavior for rotation
           may cause significant error
 Rotational temperatures (Kelvin)      0.11189     0.03184     0.02611
 Rotational constants (GHZ):           2.33142     0.66346     0.54399
 Zero-point vibrational energy     414930.3 (Joules/Mol)
                                   99.17072 (Kcal/Mol)
 Warning -- explicit consideration of  13 degrees of freedom as
           vibrations may cause significant error
 Vibrational temperatures:     71.49    91.74   134.16   144.18   206.18
          (Kelvin)            291.03   336.01   376.20   399.95   491.83
                              581.57   647.39   725.25   914.34   933.28
                              991.75  1110.46  1124.14  1223.21  1259.87
                             1270.72  1313.55  1369.44  1470.31  1485.26
                             1557.50  1616.64  1635.77  1710.57  1742.95
                             1834.36  1893.14  1934.69  2022.55  2049.51
                             2068.54  2082.18  2161.10  2181.07  2181.48
                             2185.13  2210.88  2218.94  2383.56  2577.85
                             4403.95  4404.13  4453.05  4483.12  4499.86
                             4516.13  4544.70  4580.44  4712.20

 Zero-point correction=                           0.158039 (Hartree/Particle)
 Thermal correction to Energy=                    0.168899
 Thermal correction to Enthalpy=                  0.169843
 Thermal correction to Gibbs Free Energy=         0.120441
 Sum of electronic and zero-point Energies=           -552.401555
 Sum of electronic and thermal Energies=              -552.390694
 Sum of electronic and thermal Enthalpies=            -552.389750
 Sum of electronic and thermal Free Energies=         -552.439153

                     E (Thermal)             CV                S
                      KCal/Mol        Cal/Mol-Kelvin    Cal/Mol-Kelvin
 Total                  105.986             38.337            103.977
 Electronic               0.000              0.000              0.000
 Translational            0.889              2.981             41.025
 Rotational               0.889              2.981             30.325
 Vibrational            104.208             32.376             32.626
 Vibration     1          0.595              1.978              4.830
 Vibration     2          0.597              1.972              4.337
 Vibration     3          0.602              1.954              3.591
 Vibration     4          0.604              1.949              3.450
 Vibration     5          0.616              1.910              2.759
 Vibration     6          0.639              1.837              2.112
 Vibration     7          0.654              1.790              1.852
 Vibration     8          0.669              1.743              1.652
 Vibration     9          0.679              1.714              1.546
 Vibration    10          0.721              1.592              1.204
 Vibration    11          0.769              1.461              0.947
 Vibration    12          0.809              1.361              0.796
 Vibration    13          0.859              1.241              0.648

 Optimization completed.
    -- Stationary point found.
 Normal termination of Gaussian 16 at Mon Aug 27 11:46:32 2018.
 Gaussian 16:  ES64L-G16RevA.03 25-Dec-2016

 ----------------------------------------------------------------------
 # TD(NStates=10, Root=1) b3lyp/6-31G* volume pop=NPA density=current G
 eom=AllCheck Guess=Read
 ----------------------------------------------------------------------

 Structure from the checkpoint file:  "science_add_113.chk"
 -------------------
 Title Card Required
 -------------------
 Charge =  0 Multiplicity = 1

                         Standard orientation:
 ---------------------------------------------------------------------
 Center     Atomic      Atomic             Coordinates (Angstroms)
 Number     Number       Type             X           Y           Z
 ---------------------------------------------------------------------
      1          6           0        1.848832    0.497081    0.060008
      2          6           0        0.679851   -0.215100   -0.078019
      3          6           0        1.108397   -1.576295   -0.030905
      4          1           0        0.499888   -2.468040   -0.103657
      5          7           0        2.400986   -1.689778    0.119847
      6          8           0        2.874682   -0.359049    0.177812
      7          6           0       -0.677129    0.323142   -0.234107
      8          8           0       -0.961476    1.507158   -0.266686
      9          8           0       -1.582490   -0.676642   -0.342700
     10          6           0       -2.968062   -0.282913   -0.498777
     11          6           0       -3.627869   -0.031014    0.848531
     12          6           0        2.161294    1.950815    0.099060
     13          1           0       -3.427929   -1.125981   -1.020013
     14          1           0       -3.010944    0.604641   -1.134337
     15          1           0       -3.542458   -0.910329    1.495249
     16          1           0       -4.692096    0.188197    0.704471
     17          1           0       -3.166414    0.824371    1.349735
     18          1           0        1.237080    2.520506   -0.002456
     19          1           0        2.846572    2.217103   -0.713804
     20          1           0        2.651795    2.211942    1.043721
 ---------------------------------------------------------------------

 SCF Done:  E(RB3LYP) =  -552.559593695     A.U. after    1 cycles

 Excitation energies and oscillator strengths:

 Excited State   1:      Singlet-A      5.1797 eV  239.36 nm  f=0.0003  <S**2>=0.000
      40 -> 42         0.67166
      40 -> 43         0.19427
 This state for optimization and/or second-order correction.
 Total Energy, E(TD-HF/TD-DFT) =  -552.369242098
 Copying the excited state density for this state as the 1-particle RhoCI density.

 Excited State   2:      Singlet-A      5.8227 eV  212.93 nm  f=0.2057  <S**2>=0.000
      41 -> 42         0.67962
      41 -> 43         0.13104

 Excited State   3:      Singlet-A      6.2857 eV  197.25 nm  f=0.0258  <S**2>=0.000
      38 -> 42        -0.42784
      41 -> 42        -0.15640
      41 -> 43         0.50749

 Excited State   4:      Singlet-A      6.3005 eV  196.79 nm  f=0.0032  <S**2>=0.000
      37 -> 42        -0.45392
      37 -> 43         0.14904
      40 -> 42        -0.16230
      40 -> 43         0.47064

 Excited State   5:      Singlet-A      6.5582 eV  189.05 nm  f=0.0033  <S**2>=0.000
      37 -> 42         0.49821
      39 -> 42        -0.16187
      40 -> 42        -0.10861
      40 -> 43         0.45678

 Excited State   6:      Singlet-A      6.6695 eV  185.90 nm  f=0.1049  <S**2>=0.000
      37 -> 42         0.14627
      39 -> 42         0.66217
      41 -> 43         0.12086

 Excited State   7:      Singlet-A      6.9442 eV  178.54 nm  f=0.2602  <S**2>=0.000
      38 -> 42         0.50800
      38 -> 43         0.13591
      39 -> 43         0.22404
      41 -> 43         0.39058

 Excited State   8:      Singlet-A      7.1580 eV  173.21 nm  f=0.0080  <S**2>=0.000
      37 -> 42         0.10313
      37 -> 43         0.67107

 Excited State   9:      Singlet-A      7.4293 eV  166.89 nm  f=0.0002  <S**2>=0.000
      35 -> 42         0.15058
      36 -> 42         0.65976
      36 -> 43         0.13339

 Excited State  10:      Singlet-A      7.4800 eV  165.75 nm  f=0.0377  <S**2>=0.000
      38 -> 42        -0.12583
      38 -> 43        -0.16085
      39 -> 43         0.63899
      41 -> 43        -0.11735

 The electronic state is 1-A.
 Alpha  occ. eigenvalues --  -19.24352 -19.19727 -19.14171 -14.38869 -10.32870
 Alpha  occ. eigenvalues --  -10.27993 -10.24960 -10.23516 -10.21201 -10.20521
 Alpha  occ. eigenvalues --  -10.18820  -1.14749  -1.10564  -1.01913  -0.88279
 Alpha  occ. eigenvalues --   -0.82633  -0.77734  -0.73406  -0.67656  -0.63396
 Alpha  occ. eigenvalues --   -0.59695  -0.55894  -0.53981  -0.49154  -0.48931
 Alpha  occ. eigenvalues --   -0.47967  -0.46133  -0.44887  -0.43084  -0.42131
 Alpha  occ. eigenvalues --   -0.41267  -0.40378  -0.39666  -0.39183  -0.37604
 Alpha  occ. eigenvalues --   -0.34808  -0.31686  -0.30933  -0.30526  -0.28163
 Alpha  occ. eigenvalues --   -0.26616
 Alpha virt. eigenvalues --   -0.03841  -0.00653   0.08601   0.10376   0.11248
 Alpha virt. eigenvalues --    0.11318   0.11757   0.13894   0.14602   0.15152
 Alpha virt. eigenvalues --    0.16654   0.17072   0.17304   0.18220   0.20900

 Mulliken charges:
               1
     1  C    0.330030
     2  C   -0.063729
     3  C    0.036253
     4  H    0.167437
     5  N   -0.162601
     6  O   -0.387106
     7  C    0.537120
     8  O   -0.319613
     9  O   -0.448338
    10  C   -0.063965
    11  C   -0.459292
    12  C   -0.522062
    13  H    0.171628
    14  H    0.170511
    15  H    0.172051
    16  H    0.159337
    17  H    0.171858
    18  H    0.169748
    19  H    0.170380
    20  H    0.170354
 Sum of Mulliken charges =  -0.00000

 Dipole moment (field-independent basis, Debye):
    X=             -5.2897    Y=              1.3407    Z=             -0.3769  Tot=              5.4700
 Quadrupole moment (field-independent basis, Debye-Ang):
   XX=            -62.2898   YY=            -63.9787   ZZ=            -63.6134
   XY=              7.9864   XZ=              0.2277   YZ=              0.6739

 Summary of Natural Population Analysis:

                                       Natural Population
                Natural  -----------------------------------------------
    Atom  No    Charge         Core      Valence    Rydberg      Total
 -----------------------------------------------------------------------
      C    1    0.28819      1.99897     3.68799    0.02485     5.71181
      C    2   -0.30950      1.99875     4.29481    0.01594     6.30950
      C    3   -0.00735      1.99924     3.98504    0.02307     6.00735
      H    4    0.24695      0.00000     0.75249    0.00056     0.75305
      N    5   -0.12449      1.99944     5.10205    0.02300     7.12449
      O    6   -0.33087      1.99973     6.31679    0.01435     8.33087
      C    7    0.62591      1.99929     3.33773    0.03706     5.37409
      O    8   -0.26853      1.99981     6.25015    0.01857     8.26853
      O    9   -0.49922      1.99977     6.48853    0.01092     8.49922
      C   10   -0.11548      1.99927     4.09866    0.01754     6.11548
      C   11   -0.71081      1.99945     4.70383    0.00752     6.71081
      C   12   -0.71802      1.99936     4.71117    0.00750     6.71802
      H   13    0.23692      0.00000     0.76194    0.00114     0.76308
      H   14    0.22200      0.00000     0.77618    0.00182     0.77800
      H   15    0.24274      0.00000     0.75602    0.00124     0.75726
      H   16    0.24335      0.00000     0.75565    0.00101     0.75665
      H   17    0.24017      0.00000     0.75854    0.00129     0.75983
      H   18    0.24770      0.00000     0.75215    0.00015     0.75230
      H   19    0.24508      0.00000     0.75264    0.00228     0.75492
      H   20    0.24525      0.00000     0.75250    0.00225     0.75475
 =======================================================================
   * Total *   -0.00000     21.99308    59.79485    0.21206    82.00000

 Normal termination of Gaussian 16 at Mon Aug 27 11:50:00 2018.
