 Gaussian 16, Revision A.03,

 -------------------------
 # opt b3lyp/6-31G* scf=qc
 -------------------------

 -------------------
 Title Card Required
 -------------------
 Symbolic Z-matrix:
 Charge =  0 Multiplicity = 1

 SCF Done:  E(RB3LYP) =  -552.543642574     a.u. after    9 cycles
 SCF Done:  E(RB3LYP) =  -552.548647319     a.u. after   13 cycles
 SCF Done:  E(RB3LYP) =  -552.549283027     a.u. after   13 cycles
 SCF Done:  E(RB3LYP) =  -552.550205934     a.u. after   11 cycles
 SCF Done:  E(RB3LYP) =  -552.550305862     a.u. after    5 cycles
 SCF Done:  E(RB3LYP) =  -552.550319992     a.u. after    3 cycles
 SCF Done:  E(RB3LYP) =  -552.550323628     a.u. after    3 cycles
 SCF Done:  E(RB3LYP) =  -552.550324459     a.u. after    2 cycles
 SCF Done:  E(RB3LYP) =  -552.550325132     a.u. after    2 cycles
 SCF Done:  E(RB3LYP) =  -552.550326646     a.u. after    3 cycles
 SCF Done:  E(RB3LYP) =  -552.550932679     a.u. after    5 cycles
 SCF Done:  E(RB3LYP) =  -552.551431165     a.u. after   11 cycles
 SCF Done:  E(RB3LYP) =  -552.551592318     a.u. after   11 cycles
 SCF Done:  E(RB3LYP) =  -552.551672305     a.u. after    7 cycles
 SCF Done:  E(RB3LYP) =  -552.551733032     a.u. after    6 cycles
 SCF Done:  E(RB3LYP) =  -552.551737506     a.u. after    3 cycles
 SCF Done:  E(RB3LYP) =  -552.551738134     a.u. after    3 cycles
 SCF Done:  E(RB3LYP) =  -552.551738218     a.u. after    2 cycles
 Optimization completed.
    -- Stationary point found.
 Normal termination of Gaussian 16 at Mon Aug 27 12:02:33 2018.

 ----------------------------------------------------------------------
 # freq b3lyp/6-31G* volume NMR pop=NPA density=current Geom=AllCheck G
 uess=Read
 ----------------------------------------------------------------------

 Structure from the checkpoint file:  "science_add_42.chk"
 -------------------
 Title Card Required
 -------------------
 Charge =  0 Multiplicity = 1

 SCF Done:  E(RB3LYP) =  -552.551738218     A.U. after    1 cycles

      1  C    Isotropic =    33.3027   Anisotropy =   103.9162

      2  C    Isotropic =    83.0694   Anisotropy =   108.5215

      3  H    Isotropic =    25.5930   Anisotropy =     5.3061

      4  C    Isotropic =    35.7264   Anisotropy =   141.2220

      5  N    Isotropic =  -129.1043   Anisotropy =   258.8774

      6  O    Isotropic =   -47.0757   Anisotropy =   279.5333

      7  C    Isotropic =   177.2111   Anisotropy =    21.9764

      8  C    Isotropic =    40.9244   Anisotropy =    69.2915

      9  O    Isotropic =   -43.5850   Anisotropy =   545.1909

     10  O    Isotropic =   133.1527   Anisotropy =   157.0284

     11  C    Isotropic =   129.1717   Anisotropy =    62.0977

     12  C    Isotropic =   174.5186   Anisotropy =    21.8362

     13  H    Isotropic =    30.0593   Anisotropy =     7.8844

     14  H    Isotropic =    29.8393   Anisotropy =     7.5510

     15  H    Isotropic =    30.0586   Anisotropy =     7.8239

     16  H    Isotropic =    28.3354   Anisotropy =     6.7592

     17  H    Isotropic =    27.2655   Anisotropy =     5.3095

     18  H    Isotropic =    30.8854   Anisotropy =     7.5482

     19  H    Isotropic =    31.2891   Anisotropy =     9.4740

     20  H    Isotropic =    30.5268   Anisotropy =     6.1862

  Exact polarizability: 129.113   2.336  80.753   3.803   0.873  53.087
 Approx polarizability: 161.960   0.737 150.476   7.631   2.668  75.780

                      1                      2                      3
                      A                      A                      A
 Frequencies --     48.2815                57.2057                95.7599
 Red. masses --      3.9261                 3.3250                 4.6299
 Frc consts  --      0.0054                 0.0064                 0.0250
 IR Inten    --      4.9957                 0.3582                 1.3002

                      4                      5                      6
                      A                      A                      A
 Frequencies --    124.9264               126.4349               160.4687
 Red. masses --      1.0975                 3.0656                 4.3172
 Frc consts  --      0.0101                 0.0289                 0.0655
 IR Inten    --      0.0165                 2.9759                 1.6988

                      7                      8                      9
                      A                      A                      A
 Frequencies --    229.7864               285.8529               313.9470
 Red. masses --      1.2533                 3.5363                 3.5652
 Frc consts  --      0.0390                 0.1702                 0.2070
 IR Inten    --      2.4399                 0.0931                 2.9739

                     10                     11                     12
                      A                      A                      A
 Frequencies --    338.4813               380.3993               446.2756
 Red. masses --      3.1570                 4.3075                 4.0806
 Frc consts  --      0.2131                 0.3672                 0.4788
 IR Inten    --     14.3817                11.7889                 2.3610

                     13                     14                     15
                      A                      A                      A
 Frequencies --    504.4483               624.0024               657.8750
 Red. masses --      5.4263                 9.6573                 4.2256
 Frc consts  --      0.8136                 2.2155                 1.0775
 IR Inten    --      1.4569                 4.7169                 0.3634

                     16                     17                     18
                      A                      A                      A
 Frequencies --    680.7491               763.9480               784.7758
 Red. masses --      4.4849                 5.7740                 1.6991
 Frc consts  --      1.2245                 1.9854                 0.6165
 IR Inten    --      5.1418                16.3352                 8.5194

                     19                     20                     21
                      A                      A                      A
 Frequencies --    850.2110               852.4186               880.3351
 Red. masses --      2.1174                 1.4176                 2.9007
 Frc consts  --      0.9018                 0.6069                 1.3245
 IR Inten    --     11.5465                13.9919                 4.3658

                     22                     23                     24
                      A                      A                      A
 Frequencies --    952.8093               988.0905              1005.3916
 Red. masses --     11.8348                 2.2740                 3.0804
 Frc consts  --      6.3303                 1.3081                 1.8346
 IR Inten    --     17.9485                10.6869                 8.2649

                     25                     26                     27
                      A                      A                      A
 Frequencies --   1048.1492              1054.0542              1079.2318
 Red. masses --      3.9699                 2.9013                 1.5001
 Frc consts  --      2.5697                 1.8992                 1.0294
 IR Inten    --     49.5672                16.9749                 2.9522

                     28                     29                     30
                      A                      A                      A
 Frequencies --   1121.5512              1132.7433              1208.5481
 Red. masses --      1.8681                 2.0027                 1.7315
 Frc consts  --      1.3845                 1.5140                 1.4900
 IR Inten    --     10.5031                64.2160                 3.9897

                     31                     32                     33
                      A                      A                      A
 Frequencies --   1257.8221              1323.4035              1344.1191
 Red. masses --      3.6771                 6.0942                 1.1551
 Frc consts  --      3.4276                 6.2886                 1.2295
 IR Inten    --    256.9743               369.1197                45.0263

                     34                     35                     36
                      A                      A                      A
 Frequencies --   1419.7039              1431.5076              1443.3981
 Red. masses --      1.3047                 1.4194                 1.3217
 Frc consts  --      1.5494                 1.7138                 1.6224
 IR Inten    --     10.4169                 4.3782                 9.2095

                     37                     38                     39
                      A                      A                      A
 Frequencies --   1464.2668              1495.6554              1511.7285
 Red. masses --      2.7861                 2.7986                 1.0433
 Frc consts  --      3.5196                 3.6885                 1.4048
 IR Inten    --     12.3928                61.4314                 7.9509

                     40                     41                     42
                      A                      A                      A
 Frequencies --   1516.2485              1518.9290              1533.0352
 Red. masses --      1.0517                 1.0794                 1.4984
 Frc consts  --      1.4246                 1.4673                 2.0748
 IR Inten    --      9.2483                 4.7375                16.2868

                     43                     44                     45
                      A                      A                      A
 Frequencies --   1537.2965              1652.0942              1800.5569
 Red. masses --      1.1466                 7.1574                11.7221
 Frc consts  --      1.5965                11.5101                22.3908
 IR Inten    --     21.7821                 5.4797               205.3319

                     46                     47                     48
                      A                      A                      A
 Frequencies --   3059.8198              3062.1161              3097.8784
 Red. masses --      1.0372                 1.0359                 1.0593
 Frc consts  --      5.7216                 5.7231                 5.9894
 IR Inten    --     16.4236                15.0605                22.5006

                     49                     50                     51
                      A                      A                      A
 Frequencies --   3116.3382              3130.5174              3139.6861
 Red. masses --      1.1017                 1.1005                 1.1047
 Frc consts  --      6.3036                 6.3544                 6.4160
 IR Inten    --     11.8382                26.8363                 4.2229

                     52                     53                     54
                      A                      A                      A
 Frequencies --   3154.6865              3161.4260              3300.1522
 Red. masses --      1.1014                 1.1090                 1.0989
 Frc consts  --      6.4580                 6.5304                 7.0513
 IR Inten    --      5.8787                25.5570                 0.8623

 - Thermochemistry -
 -------------------
 Temperature   298.150 Kelvin.  Pressure   1.00000 Atm.
 Atom     1 has atomic number  6 and mass  12.00000

 Molecular mass:   155.05824 amu.
 Principal axes and moments of inertia in atomic units:
                           1         2         3
     Eigenvalues --   512.308633385.315713714.38507
           X            0.99988   0.01506  -0.00371
           Y           -0.01505   0.99988   0.00345
           Z            0.00377  -0.00339   0.99999
 This molecule is an asymmetric top.
 Rotational symmetry number  1.
 Warning -- assumption of classical behavior for rotation
           may cause significant error
 Rotational temperatures (Kelvin)      0.16907     0.02559     0.02332
 Rotational constants (GHZ):           3.52276     0.53311     0.48588
 Zero-point vibrational energy     414323.8 (Joules/Mol)
                                   99.02578 (Kcal/Mol)
 Warning -- explicit consideration of  13 degrees of freedom as
           vibrations may cause significant error
 Vibrational temperatures:     69.47    82.31   137.78   179.74   181.91
          (Kelvin)            230.88   330.61   411.28   451.70   487.00
                              547.31   642.09   725.79   897.80   946.54
                              979.45  1099.15  1129.12  1223.26  1226.44
                             1266.61  1370.88  1421.64  1446.53  1508.05
                             1516.55  1552.77  1613.66  1629.76  1738.83
                             1809.73  1904.08  1933.89  2042.64  2059.62
                             2076.73  2106.75  2151.91  2175.04  2181.54
                             2185.40  2205.70  2211.83  2377.00  2590.60
                             4402.40  4405.70  4457.16  4483.72  4504.12
                             4517.31  4538.89  4548.59  4748.18

 Zero-point correction=                           0.157808 (Hartree/Particle)
 Thermal correction to Energy=                    0.168703
 Thermal correction to Enthalpy=                  0.169647
 Thermal correction to Gibbs Free Energy=         0.120146
 Sum of electronic and zero-point Energies=           -552.393931
 Sum of electronic and thermal Energies=              -552.383035
 Sum of electronic and thermal Enthalpies=            -552.382091
 Sum of electronic and thermal Free Energies=         -552.431592

                     E (Thermal)             CV                S
                      KCal/Mol        Cal/Mol-Kelvin    Cal/Mol-Kelvin
 Total                  105.863             38.441            104.183
 Electronic               0.000              0.000              0.000
 Translational            0.889              2.981             41.025
 Rotational               0.889              2.981             30.244
 Vibrational            104.085             32.480             32.913
 Vibration     1          0.595              1.978              4.887
 Vibration     2          0.596              1.975              4.551
 Vibration     3          0.603              1.952              3.539
 Vibration     4          0.610              1.928              3.023
 Vibration     5          0.611              1.927              3.000
 Vibration     6          0.622              1.891              2.544
 Vibration     7          0.652              1.796              1.881
 Vibration     8          0.684              1.700              1.498
 Vibration     9          0.702              1.647              1.341
 Vibration    10          0.719              1.599              1.219
 Vibration    11          0.750              1.512              1.038
 Vibration    12          0.806              1.369              0.807
 Vibration    13          0.860              1.240              0.647

 Optimization completed.
    -- Stationary point found.
 Normal termination of Gaussian 16 at Mon Aug 27 12:04:44 2018.
 Gaussian 16:  ES64L-G16RevA.03 25-Dec-2016

 ----------------------------------------------------------------------
 # TD(NStates=10, Root=1) b3lyp/6-31G* volume pop=NPA density=current G
 eom=AllCheck Guess=Read
 ----------------------------------------------------------------------

 Structure from the checkpoint file:  "science_add_43.chk"
 -------------------
 Title Card Required
 -------------------
 Charge =  0 Multiplicity = 1

                         Standard orientation:
 ---------------------------------------------------------------------
 Center     Atomic      Atomic             Coordinates (Angstroms)
 Number     Number       Type             X           Y           Z
 ---------------------------------------------------------------------
      1          6           0        0.481610    0.117558   -0.105109
      2          6           0        1.574823    0.920348    0.028213
      3          1           0        1.590043    1.998723    0.071229
      4          6           0        2.664724    0.004943    0.094713
      5          7           0        2.243353   -1.242276    0.007634
      6          8           0        0.858427   -1.179186   -0.119646
      7          6           0        4.126624    0.293967    0.242255
      8          6           0       -0.946857    0.484952   -0.224240
      9          8           0       -1.319053    1.641562   -0.213889
     10          8           0       -1.736940   -0.592450   -0.345154
     11          6           0       -3.160894   -0.339660   -0.465928
     12          6           0       -3.811509   -0.190940    0.900578
     13          1           0        4.490002    0.908362   -0.589125
     14          1           0        4.692880   -0.640342    0.259482
     15          1           0        4.325772    0.841280    1.170435
     16          1           0       -3.538877   -1.214184   -0.999861
     17          1           0       -3.306986    0.553628   -1.077847
     18          1           0       -3.619275   -1.072166    1.520832
     19          1           0       -4.895681   -0.081900    0.782643
     20          1           0       -3.431933    0.696113    1.415396
 ---------------------------------------------------------------------

 SCF Done:  E(RB3LYP) =  -552.551738218     A.U. after    1 cycles

 Excitation energies and oscillator strengths:

 Excited State   1:      Singlet-A      4.7591 eV  260.52 nm  f=0.0001  <S**2>=0.000
      40 -> 42         0.69511
 This state for optimization and/or second-order correction.
 Total Energy, E(TD-HF/TD-DFT) =  -552.376844180
 Copying the excited state density for this state as the 1-particle RhoCI density.

 Excited State   2:      Singlet-A      5.5969 eV  221.52 nm  f=0.3526  <S**2>=0.000
      41 -> 42         0.69583

 Excited State   3:      Singlet-A      5.7978 eV  213.85 nm  f=0.0064  <S**2>=0.000
      37 -> 42         0.57566
      38 -> 42         0.12508
      39 -> 42        -0.36190

 Excited State   4:      Singlet-A      5.8079 eV  213.47 nm  f=0.0125  <S**2>=0.000
      37 -> 42         0.36077
      39 -> 42         0.57103
      41 -> 43        -0.15884

 Excited State   5:      Singlet-A      6.2897 eV  197.12 nm  f=0.0519  <S**2>=0.000
      37 -> 42        -0.14095
      38 -> 42         0.67647

 Excited State   6:      Singlet-A      6.9031 eV  179.61 nm  f=0.0001  <S**2>=0.000
      35 -> 42         0.14007
      36 -> 42         0.68395

 Excited State   7:      Singlet-A      7.4522 eV  166.37 nm  f=0.0014  <S**2>=0.000
      34 -> 42         0.15098
      35 -> 42        -0.12080
      37 -> 42        -0.10086
      37 -> 43        -0.14628
      40 -> 43         0.63802

 Excited State   8:      Singlet-A      7.6220 eV  162.67 nm  f=0.0445  <S**2>=0.000
      34 -> 42        -0.11624
      35 -> 42         0.18381
      39 -> 42         0.14485
      39 -> 43         0.21385
      41 -> 43         0.59424

 Excited State   9:      Singlet-A      7.6449 eV  162.18 nm  f=0.0035  <S**2>=0.000
      30 -> 42         0.10588
      34 -> 42         0.58894
      35 -> 42        -0.23157
      40 -> 43        -0.16652
      41 -> 43         0.17618

 Excited State  10:      Singlet-A      7.7373 eV  160.24 nm  f=0.0020  <S**2>=0.000
      32 -> 42        -0.14953
      34 -> 42         0.28772
      35 -> 42         0.59147
      36 -> 42        -0.14227
      41 -> 43        -0.10742

 The electronic state is 1-A.
 Alpha  occ. eigenvalues --  -19.24236 -19.20165 -19.14740 -14.38747 -10.33433
 Alpha  occ. eigenvalues --  -10.26748 -10.25119 -10.23978 -10.20954 -10.20211
 Alpha  occ. eigenvalues --  -10.18852  -1.15025  -1.11060  -1.02588  -0.88269
 Alpha  occ. eigenvalues --   -0.81426  -0.77663  -0.73304  -0.68688  -0.62733
 Alpha  occ. eigenvalues --   -0.60308  -0.55893  -0.53694  -0.49210  -0.48751
 Alpha  occ. eigenvalues --   -0.48044  -0.46027  -0.45132  -0.42792  -0.42532
 Alpha  occ. eigenvalues --   -0.41150  -0.40108  -0.39200  -0.38847  -0.37728
 Alpha  occ. eigenvalues --   -0.34954  -0.31632  -0.30913  -0.29375  -0.28563
 Alpha  occ. eigenvalues --   -0.27219
 Alpha virt. eigenvalues --   -0.05864   0.02719   0.09175   0.09373   0.10583
 Alpha virt. eigenvalues --    0.11158   0.12768   0.13704   0.14454   0.14890
 Alpha virt. eigenvalues --    0.15289   0.17020   0.17419   0.18293   0.19972

 Mulliken charges:
               1
     1  C    0.335485
     2  C   -0.303233
     3  H    0.137100
     4  C    0.319086
     5  N   -0.216766
     6  O   -0.412658
     7  C   -0.526007
     8  C    0.563810
     9  O   -0.313079
    10  O   -0.426316
    11  C   -0.068474
    12  C   -0.461949
    13  H    0.166294
    14  H    0.177461
    15  H    0.166098
    16  H    0.179104
    17  H    0.172100
    18  H    0.178377
    19  H    0.161490
    20  H    0.172076
 Sum of Mulliken charges =  -0.00000

 Dipole moment (field-independent basis, Debye):
    X=             -3.5241    Y=              2.2047    Z=              0.0174  Tot=              4.1570
 Quadrupole moment (field-independent basis, Debye-Ang):
   XX=            -46.9776   YY=            -67.9597   ZZ=            -63.5073
   XY=              6.8617   XZ=              1.4460   YZ=              0.0310

 Summary of Natural Population Analysis:

                                       Natural Population
                Natural  -----------------------------------------------
    Atom  No    Charge         Core      Valence    Rydberg      Total
 -----------------------------------------------------------------------
      C    1    0.15527      1.99880     3.81996    0.02597     5.84473
      C    2   -0.38096      1.99887     4.36948    0.01261     6.38096
      H    3    0.24723      0.00000     0.75247    0.00031     0.75277
      C    4    0.14867      1.99925     3.82741    0.02468     5.85133
      N    5   -0.13441      1.99932     5.11216    0.02293     7.13441
      O    6   -0.32750      1.99973     6.31323    0.01454     8.32750
      C    7   -0.70324      1.99935     4.69691    0.00698     6.70324
      C    8    0.63429      1.99932     3.32888    0.03752     5.36571
      O    9   -0.27341      1.99981     6.25469    0.01891     8.27341
      O   10   -0.47842      1.99976     6.46696    0.01170     8.47842
      C   11   -0.11723      1.99927     4.10077    0.01719     6.11723
      C   12   -0.71161      1.99945     4.70459    0.00757     6.71161
      H   13    0.24617      0.00000     0.75297    0.00086     0.75383
      H   14    0.25372      0.00000     0.74496    0.00132     0.74628
      H   15    0.24605      0.00000     0.75309    0.00087     0.75395
      H   16    0.24130      0.00000     0.75760    0.00110     0.75870
      H   17    0.22283      0.00000     0.77536    0.00182     0.77717
      H   18    0.24621      0.00000     0.75260    0.00118     0.75379
      H   19    0.24478      0.00000     0.75430    0.00092     0.75522
      H   20    0.24026      0.00000     0.75851    0.00123     0.75974
 =======================================================================
   * Total *   -0.00000     21.99293    59.79688    0.21019    82.00000

 Normal termination of Gaussian 16 at Mon Aug 27 12:07:39 2018.
