 Gaussian 16, Revision A.03,

 -------------------------
 # opt b3lyp/6-31G* scf=qc
 -------------------------

 -------------------
 Title Card Required
 -------------------
 Symbolic Z-matrix:
 Charge =  0 Multiplicity = 1

 SCF Done:  E(RB3LYP) =  -627.741829448     a.u. after   10 cycles
 SCF Done:  E(RB3LYP) =  -627.747416567     a.u. after   13 cycles
 SCF Done:  E(RB3LYP) =  -627.748092589     a.u. after   13 cycles
 SCF Done:  E(RB3LYP) =  -627.749119167     a.u. after    9 cycles
 SCF Done:  E(RB3LYP) =  -627.749203564     a.u. after    5 cycles
 SCF Done:  E(RB3LYP) =  -627.749216378     a.u. after    3 cycles
 SCF Done:  E(RB3LYP) =  -627.749219765     a.u. after    3 cycles
 SCF Done:  E(RB3LYP) =  -627.749220208     a.u. after    2 cycles
 SCF Done:  E(RB3LYP) =  -627.749220393     a.u. after    2 cycles
 SCF Done:  E(RB3LYP) =  -627.749220479     a.u. after    2 cycles
 SCF Done:  E(RB3LYP) =  -627.749220501     a.u. after    2 cycles
 Optimization completed.
    -- Stationary point found.
 Normal termination of Gaussian 16 at Mon Aug 27 11:46:03 2018.

 ----------------------------------------------------------------------
 # freq b3lyp/6-31G* volume NMR pop=NPA density=current Geom=AllCheck G
 uess=Read
 ----------------------------------------------------------------------

 Structure from the checkpoint file:  "science_add_232.chk"
 -------------------
 Title Card Required
 -------------------
 Charge =  0 Multiplicity = 1

 SCF Done:  E(RB3LYP) =  -627.749220501     A.U. after    1 cycles

      1  C    Isotropic =    32.9733   Anisotropy =   103.0236

      2  C    Isotropic =    95.9152   Anisotropy =   106.5239

      3  H    Isotropic =    25.9452   Anisotropy =     6.0835

      4  C    Isotropic =    23.9840   Anisotropy =    94.5989

      5  N    Isotropic =   -99.9125   Anisotropy =   239.4240

      6  O    Isotropic =   -14.9149   Anisotropy =   272.5554

      7  O    Isotropic =   252.5216   Anisotropy =    85.7082

      8  C    Isotropic =   134.7252   Anisotropy =    73.2504

      9  C    Isotropic =    41.3067   Anisotropy =    69.1304

     10  O    Isotropic =   -41.9240   Anisotropy =   543.4343

     11  O    Isotropic =   134.0549   Anisotropy =   160.7999

     12  C    Isotropic =   129.0740   Anisotropy =    62.3532

     13  C    Isotropic =   174.5421   Anisotropy =    21.8552

     14  H    Isotropic =    28.1728   Anisotropy =     7.8227

     15  H    Isotropic =    28.5543   Anisotropy =     7.5551

     16  H    Isotropic =    28.5565   Anisotropy =     7.5948

     17  H    Isotropic =    28.3292   Anisotropy =     6.7960

     18  H    Isotropic =    27.2811   Anisotropy =     5.3218

     19  H    Isotropic =    30.8801   Anisotropy =     7.5625

     20  H    Isotropic =    31.2897   Anisotropy =     9.4975

     21  H    Isotropic =    30.5477   Anisotropy =     6.1576

  Exact polarizability: 135.107   3.031  84.861   3.026  -0.538  54.840
 Approx polarizability: 169.859   0.408 157.480   6.987  -1.930  77.830

                      1                      2                      3
                      A                      A                      A
 Frequencies --     39.5322                56.3479                83.0656
 Red. masses --      3.9036                 3.5399                 3.7516
 Frc consts  --      0.0036                 0.0066                 0.0153
 IR Inten    --      4.9378                 0.2501                 1.1113

                      4                      5                      6
                      A                      A                      A
 Frequencies --     95.7044               115.8141               157.2583
 Red. masses --      5.3669                 3.2740                 2.6698
 Frc consts  --      0.0290                 0.0259                 0.0389
 IR Inten    --      0.9275                 3.6721                 4.3238

                      7                      8                      9
                      A                      A                      A
 Frequencies --    205.7151               210.3933               239.2615
 Red. masses --      1.8613                 1.6450                 1.4908
 Frc consts  --      0.0464                 0.0429                 0.0503
 IR Inten    --      1.6684                 3.0799                 1.7108

                     10                     11                     12
                      A                      A                      A
 Frequencies --    329.0286               351.2418               367.7868
 Red. masses --      2.6780                 5.5484                 7.6715
 Frc consts  --      0.1708                 0.4033                 0.6114
 IR Inten    --     13.4928                 1.8728                 0.5591

                     13                     14                     15
                      A                      A                      A
 Frequencies --    437.0551               474.5579               542.1549
 Red. masses --      5.5826                 4.2411                 6.3594
 Frc consts  --      0.6283                 0.5627                 1.1013
 IR Inten    --      2.6905                16.6009                 5.7644

                     16                     17                     18
                      A                      A                      A
 Frequencies --    611.2174               685.6933               696.6498
 Red. masses --     11.2722                 5.3256                 5.2771
 Frc consts  --      2.4811                 1.4753                 1.5089
 IR Inten    --      3.6789                 6.1710                 6.1670

                     19                     20                     21
                      A                      A                      A
 Frequencies --    758.2242               784.0305               822.5232
 Red. masses --      4.4607                 1.7136                 1.6009
 Frc consts  --      1.5109                 0.6206                 0.6381
 IR Inten    --     20.7373                 5.7798                18.7040

                     22                     23                     24
                      A                      A                      A
 Frequencies --    848.6863               879.8245               964.3003
 Red. masses --      2.1454                 2.9113                 8.2163
 Frc consts  --      0.9104                 1.3278                 4.5014
 IR Inten    --     10.2972                 5.7039                18.0914

                     25                     26                     27
                      A                      A                      A
 Frequencies --    993.5129              1022.1611              1047.2545
 Red. masses --      5.1214                 5.9445                 3.7959
 Frc consts  --      2.9784                 3.6594                 2.4528
 IR Inten    --     18.3080                10.6224                53.5532

                     28                     29                     30
                      A                      A                      A
 Frequencies --   1105.3396              1129.2810              1145.1969
 Red. masses --      2.3148                 2.0430                 4.4289
 Frc consts  --      1.6663                 1.5350                 3.4222
 IR Inten    --     18.8394                16.2021               205.6915

                     31                     32                     33
                      A                      A                      A
 Frequencies --   1186.1584              1207.9597              1218.6557
 Red. masses --      1.2598                 1.6537                 1.5670
 Frc consts  --      1.0443                 1.4218                 1.3712
 IR Inten    --      0.7048                 5.2148                37.8602

                     34                     35                     36
                      A                      A                      A
 Frequencies --   1282.0406              1330.2852              1344.2026
 Red. masses --      3.2951                 6.3060                 1.1579
 Frc consts  --      3.1910                 6.5749                 1.2327
 IR Inten    --    209.8824               326.9486                44.6967

                     37                     38                     39
                      A                      A                      A
 Frequencies --   1419.7299              1443.4082              1466.3122
 Red. masses --      1.3105                 1.3259                 2.2201
 Frc consts  --      1.5564                 1.6276                 2.8124
 IR Inten    --      6.3323                11.3762               158.2040

                     40                     41                     42
                      A                      A                      A
 Frequencies --   1479.4973              1516.3128              1519.0397
 Red. masses --      3.4773                 1.0510                 1.0819
 Frc consts  --      4.4845                 1.4238                 1.4708
 IR Inten    --     98.3268                 9.6953                 4.5806

                     43                     44                     45
                      A                      A                      A
 Frequencies --   1522.1382              1530.9380              1536.3205
 Red. masses --      1.0474                 1.0538                 1.0624
 Frc consts  --      1.4298                 1.4552                 1.4774
 IR Inten    --      6.9960                27.9530                 4.1040

                     46                     47                     48
                      A                      A                      A
 Frequencies --   1554.3286              1661.9364              1800.1770
 Red. masses --      2.7704                 8.1439                11.7150
 Frc consts  --      3.9435                13.2529                22.3678
 IR Inten    --    274.0098                38.2638               203.6039

                     49                     50                     51
                      A                      A                      A
 Frequencies --   3038.5410              3062.3922              3098.4365
 Red. masses --      1.0343                 1.0359                 1.0593
 Frc consts  --      5.6262                 5.7239                 5.9918
 IR Inten    --     40.3438                15.1511                21.9047

                     52                     53                     54
                      A                      A                      A
 Frequencies --   3102.9183              3131.1241              3139.7384
 Red. masses --      1.1077                 1.1003                 1.1048
 Frc consts  --      6.2836                 6.3559                 6.4167
 IR Inten    --     35.7939                26.8833                 3.9542

                     55                     56                     57
                      A                      A                      A
 Frequencies --   3161.8995              3173.8526              3313.9986
 Red. masses --      1.1091                 1.1007                 1.0986
 Frc consts  --      6.5332                 6.5329                 7.1085
 IR Inten    --     25.0812                18.7175                 2.1445

 - Thermochemistry -
 -------------------
 Temperature   298.150 Kelvin.  Pressure   1.00000 Atm.
 Atom     1 has atomic number  6 and mass  12.00000

 Molecular mass:   171.05316 amu.
 Principal axes and moments of inertia in atomic units:
                           1         2         3
     Eigenvalues --   626.276824300.154534737.39206
           X            0.99983   0.01786  -0.00521
           Y           -0.01781   0.99980   0.00955
           Z            0.00538  -0.00946   0.99994
 This molecule is an asymmetric top.
 Rotational symmetry number  1.
 Warning -- assumption of classical behavior for rotation
           may cause significant error
 Rotational temperatures (Kelvin)      0.13830     0.02014     0.01828
 Rotational constants (GHZ):           2.88170     0.41969     0.38096
 Zero-point vibrational energy     427313.0 (Joules/Mol)
                                  102.13026 (Kcal/Mol)
 Warning -- explicit consideration of  16 degrees of freedom as
           vibrations may cause significant error
 Vibrational temperatures:     56.88    81.07   119.51   137.70   166.63
          (Kelvin)            226.26   295.98   302.71   344.24   473.40
                              505.36   529.16   628.82   682.78   780.04
                              879.41   986.56  1002.32  1090.92  1128.05
                             1183.43  1221.07  1265.87  1387.41  1429.44
                             1470.66  1506.77  1590.34  1624.78  1647.68
                             1706.62  1737.98  1753.37  1844.57  1913.98
                             1934.01  2042.67  2076.74  2109.70  2128.67
                             2181.64  2185.56  2190.02  2202.68  2210.42
                             2236.33  2391.16  2590.05  4371.78  4406.10
                             4457.96  4464.41  4504.99  4517.38  4549.27
                             4566.47  4768.10

 Zero-point correction=                           0.162755 (Hartree/Particle)
 Thermal correction to Energy=                    0.174614
 Thermal correction to Enthalpy=                  0.175559
 Thermal correction to Gibbs Free Energy=         0.123444
 Sum of electronic and zero-point Energies=           -627.586466
 Sum of electronic and thermal Energies=              -627.574606
 Sum of electronic and thermal Enthalpies=            -627.573662
 Sum of electronic and thermal Free Energies=         -627.625776

                     E (Thermal)             CV                S
                      KCal/Mol        Cal/Mol-Kelvin    Cal/Mol-Kelvin
 Total                  109.572             41.610            109.684
 Electronic               0.000              0.000              0.000
 Translational            0.889              2.981             41.318
 Rotational               0.889              2.981             30.923
 Vibrational            107.795             35.648             37.442
 Vibration     1          0.594              1.981              5.282
 Vibration     2          0.596              1.975              4.581
 Vibration     3          0.600              1.961              3.817
 Vibration     4          0.603              1.952              3.540
 Vibration     5          0.608              1.936              3.169
 Vibration     6          0.621              1.895              2.583
 Vibration     7          0.640              1.832              2.081
 Vibration     8          0.643              1.825              2.040
 Vibration     9          0.657              1.780              1.808
 Vibration    10          0.712              1.618              1.265
 Vibration    11          0.728              1.573              1.161
 Vibration    12          0.740              1.538              1.089
 Vibration    13          0.797              1.389              0.836
 Vibration    14          0.831              1.306              0.725
 Vibration    15          0.897              1.157              0.561
 Vibration    16          0.970              1.008              0.431

 Optimization completed.
    -- Stationary point found.
 Normal termination of Gaussian 16 at Mon Aug 27 11:49:14 2018.
 Gaussian 16:  ES64L-G16RevA.03 25-Dec-2016

 ----------------------------------------------------------------------
 # TD(NStates=10, Root=1) b3lyp/6-31G* volume pop=NPA density=current G
 eom=AllCheck Guess=Read
 ----------------------------------------------------------------------

 Structure from the checkpoint file:  "science_add_233.chk"
 -------------------
 Title Card Required
 -------------------
 Charge =  0 Multiplicity = 1

                         Standard orientation:
 ---------------------------------------------------------------------
 Center     Atomic      Atomic             Coordinates (Angstroms)
 Number     Number       Type             X           Y           Z
 ---------------------------------------------------------------------
      1          6           0        0.107348   -0.058527   -0.130270
      2          6           0        1.272644    0.645569   -0.050208
      3          1           0        1.386189    1.717414   -0.064053
      4          6           0        2.257650   -0.380213    0.052170
      5          7           0        1.726243   -1.590976    0.035301
      6          8           0        0.353805   -1.381984   -0.081409
      7          8           0        3.592211   -0.281730    0.158925
      8          6           0        4.130012    1.038652    0.171891
      9          6           0       -1.279557    0.443611   -0.254042
     10          8           0       -1.532504    1.631336   -0.299113
     11          8           0       -2.173285   -0.553655   -0.311857
     12          6           0       -3.567596   -0.167812   -0.431402
     13          6           0       -4.180242    0.109508    0.932519
     14          1           0        5.210086    0.917902    0.261760
     15          1           0        3.753978    1.612414    1.027891
     16          1           0        3.897975    1.571307   -0.758564
     17          1           0       -4.036672   -1.025581   -0.918018
     18          1           0       -3.633936    0.705024   -1.085203
     19          1           0       -4.066108   -0.755635    1.593302
     20          1           0       -5.250124    0.318892    0.819887
     21          1           0       -3.708454    0.978617    1.399564
 ---------------------------------------------------------------------

 SCF Done:  E(RB3LYP) =  -627.749220501     A.U. after    1 cycles

 Excitation energies and oscillator strengths:

 Excited State   1:      Singlet-A      4.7449 eV  261.30 nm  f=0.0002  <S**2>=0.000
      43 -> 46         0.69467
 This state for optimization and/or second-order correction.
 Total Energy, E(TD-HF/TD-DFT) =  -627.574848788
 Copying the excited state density for this state as the 1-particle RhoCI density.

 Excited State   2:      Singlet-A      4.8832 eV  253.90 nm  f=0.0634  <S**2>=0.000
      44 -> 46         0.15248
      45 -> 46         0.67916

 Excited State   3:      Singlet-A      5.6449 eV  219.64 nm  f=0.3036  <S**2>=0.000
      44 -> 46         0.67789
      45 -> 46        -0.15612

 Excited State   4:      Singlet-A      5.7312 eV  216.33 nm  f=0.0039  <S**2>=0.000
      41 -> 46         0.66816
      42 -> 46         0.19567

 Excited State   5:      Singlet-A      6.2528 eV  198.28 nm  f=0.0560  <S**2>=0.000
      41 -> 46        -0.18945
      42 -> 46         0.66658

 Excited State   6:      Singlet-A      6.8636 eV  180.64 nm  f=0.0001  <S**2>=0.000
      37 -> 46         0.11883
      40 -> 46         0.68650

 Excited State   7:      Singlet-A      7.3136 eV  169.52 nm  f=0.0018  <S**2>=0.000
      35 -> 46        -0.11067
      39 -> 46         0.67394

 Excited State   8:      Singlet-A      7.4291 eV  166.89 nm  f=0.1148  <S**2>=0.000
      38 -> 46         0.58117
      45 -> 47         0.38906

 Excited State   9:      Singlet-A      7.5518 eV  164.18 nm  f=0.0001  <S**2>=0.000
      45 -> 48         0.68340

 Excited State  10:      Singlet-A      7.7140 eV  160.73 nm  f=0.0001  <S**2>=0.000
      35 -> 46         0.52680
      37 -> 46        -0.36501
      39 -> 46         0.14877
      43 -> 47         0.21872

 The electronic state is 1-A.
 Alpha  occ. eigenvalues --  -19.24562 -19.20375 -19.20054 -19.14977 -14.38084
 Alpha  occ. eigenvalues --  -10.33657 -10.28878 -10.27222 -10.25819 -10.25272
 Alpha  occ. eigenvalues --  -10.21531 -10.18973  -1.15495  -1.11315  -1.09061
 Alpha  occ. eigenvalues --   -1.02822  -0.87124  -0.81653  -0.77948  -0.73217
 Alpha  occ. eigenvalues --   -0.68889  -0.63236  -0.60960  -0.57824  -0.55489
 Alpha  occ. eigenvalues --   -0.50586  -0.50095  -0.49503  -0.48218  -0.47160
 Alpha  occ. eigenvalues --   -0.46021  -0.45568  -0.44641  -0.41325  -0.39850
 Alpha  occ. eigenvalues --   -0.39447  -0.38284  -0.36707  -0.36359  -0.35077
 Alpha  occ. eigenvalues --   -0.31590  -0.31075  -0.28785  -0.28018  -0.25657
 Alpha virt. eigenvalues --   -0.06149   0.04276   0.07149   0.08909   0.09750
 Alpha virt. eigenvalues --    0.10490   0.11507   0.13497   0.14023   0.14402
 Alpha virt. eigenvalues --    0.14921   0.15492   0.15523   0.16890   0.18119

 Mulliken charges:
               1
     1  C    0.343822
     2  C   -0.325187
     3  H    0.143357
     4  C    0.533320
     5  N   -0.227523
     6  O   -0.411522
     7  O   -0.486716
     8  C   -0.215103
     9  C    0.566929
    10  O   -0.315287
    11  O   -0.425805
    12  C   -0.068508
    13  C   -0.462075
    14  H    0.174704
    15  H    0.155038
    16  H    0.155308
    17  H    0.180093
    18  H    0.172199
    19  H    0.179162
    20  H    0.161978
    21  H    0.171817
 Sum of Mulliken charges =   0.00000

 Dipole moment (field-independent basis, Debye):
    X=             -3.5390    Y=              3.9869    Z=             -0.1077  Tot=              5.3321
 Quadrupole moment (field-independent basis, Debye-Ang):
   XX=            -48.0203   YY=            -74.1274   ZZ=            -68.6848
   XY=             10.7370   XZ=              0.9158   YZ=              0.3703

 Summary of Natural Population Analysis:

                                       Natural Population
                Natural  -----------------------------------------------
    Atom  No    Charge         Core      Valence    Rydberg      Total
 -----------------------------------------------------------------------
      C    1    0.16536      1.99882     3.80981    0.02601     5.83464
      C    2   -0.45542      1.99885     4.44433    0.01224     6.45542
      H    3    0.25014      0.00000     0.74951    0.00035     0.74986
      C    4    0.46845      1.99905     3.50103    0.03146     5.53155
      N    5   -0.16486      1.99932     5.14183    0.02370     7.16486
      O    6   -0.32368      1.99972     6.30914    0.01482     8.32368
      O    7   -0.51392      1.99972     6.50172    0.01248     8.51392
      C    8   -0.31286      1.99942     4.30012    0.01331     6.31286
      C    9    0.63489      1.99932     3.32816    0.03762     5.36511
      O   10   -0.27589      1.99982     6.25718    0.01889     8.27589
      O   11   -0.47799      1.99976     6.46652    0.01171     8.47799
      C   12   -0.11699      1.99927     4.10056    0.01716     6.11699
      C   13   -0.71167      1.99945     4.70464    0.00758     6.71167
      H   14    0.22935      0.00000     0.77014    0.00051     0.77065
      H   15    0.20414      0.00000     0.79402    0.00184     0.79586
      H   16    0.20430      0.00000     0.79387    0.00183     0.79570
      H   17    0.24186      0.00000     0.75704    0.00110     0.75814
      H   18    0.22287      0.00000     0.77531    0.00182     0.77713
      H   19    0.24666      0.00000     0.75216    0.00118     0.75334
      H   20    0.24508      0.00000     0.75400    0.00092     0.75492
      H   21    0.24016      0.00000     0.75862    0.00122     0.75984
 =======================================================================
   * Total *   -0.00000     23.99253    65.76974    0.23773    90.00000

 Normal termination of Gaussian 16 at Mon Aug 27 11:53:36 2018.
