 Gaussian 16, Revision A.03,

 -------------------------
 # opt b3lyp/6-31G* scf=qc
 -------------------------

 -------------------
 Title Card Required
 -------------------
 Symbolic Z-matrix:
 Charge =  0 Multiplicity = 1

 SCF Done:  E(RB3LYP) =  -513.221566469     a.u. after   10 cycles
 SCF Done:  E(RB3LYP) =  -513.225714021     a.u. after   13 cycles
 SCF Done:  E(RB3LYP) =  -513.226076957     a.u. after   13 cycles
 SCF Done:  E(RB3LYP) =  -513.227164925     a.u. after    9 cycles
 SCF Done:  E(RB3LYP) =  -513.227286833     a.u. after    5 cycles
 SCF Done:  E(RB3LYP) =  -513.227306616     a.u. after    5 cycles
 SCF Done:  E(RB3LYP) =  -513.227313093     a.u. after    3 cycles
 SCF Done:  E(RB3LYP) =  -513.227313606     a.u. after    3 cycles
 SCF Done:  E(RB3LYP) =  -513.227313937     a.u. after    2 cycles
 SCF Done:  E(RB3LYP) =  -513.227314051     a.u. after    2 cycles
 SCF Done:  E(RB3LYP) =  -513.227314093     a.u. after    2 cycles
 Optimization completed.
    -- Stationary point found.
 Normal termination of Gaussian 16 at Mon Aug 27 11:45:31 2018.

 ----------------------------------------------------------------------
 # freq b3lyp/6-31G* volume NMR pop=NPA density=current Geom=AllCheck G
 uess=Read
 ----------------------------------------------------------------------

 Structure from the checkpoint file:  "science_add_92.chk"
 -------------------
 Title Card Required
 -------------------
 Charge =  0 Multiplicity = 1

 SCF Done:  E(RB3LYP) =  -513.227314093     A.U. after    1 cycles

      1  C    Isotropic =    38.0549   Anisotropy =   120.9567

      2  H    Isotropic =    24.0528   Anisotropy =     2.6591

      3  C    Isotropic =    87.6516   Anisotropy =   106.7791

      4  H    Isotropic =    25.6519   Anisotropy =     3.6527

      5  C    Isotropic =    39.3591   Anisotropy =   116.5730

      6  N    Isotropic =  -140.6969   Anisotropy =   326.9241

      7  O    Isotropic =   -61.7468   Anisotropy =   294.1959

      8  C    Isotropic =    37.1124   Anisotropy =    73.8185

      9  O    Isotropic =   -57.7277   Anisotropy =   565.9356

     10  O    Isotropic =   133.9896   Anisotropy =   151.0376

     11  C    Isotropic =   129.0645   Anisotropy =    61.9976

     12  C    Isotropic =   174.4830   Anisotropy =    21.7258

     13  H    Isotropic =    28.3102   Anisotropy =     6.7486

     14  H    Isotropic =    27.1930   Anisotropy =     5.1820

     15  H    Isotropic =    30.8516   Anisotropy =     7.6385

     16  H    Isotropic =    31.2748   Anisotropy =     9.3638

     17  H    Isotropic =    30.4923   Anisotropy =     6.2091

  Exact polarizability: 103.626   1.150  72.050   4.117   1.356  43.682
 Approx polarizability: 136.070  -7.102 136.891   7.979   3.210  62.542

                      1                      2                      3
                      A                      A                      A
 Frequencies --     50.0368                66.5178                92.6323
 Red. masses --      3.7323                 4.4114                 4.6276
 Frc consts  --      0.0055                 0.0115                 0.0234
 IR Inten    --      4.0722                 5.6572                 0.6079

                      4                      5                      6
                      A                      A                      A
 Frequencies --    148.9328               219.2731               237.0923
 Red. masses --      3.1234                 4.7301                 1.3277
 Frc consts  --      0.0408                 0.1340                 0.0440
 IR Inten    --      5.5300                 0.4643                 3.9243

                      7                      8                      9
                      A                      A                      A
 Frequencies --    335.1586               352.0622               456.6374
 Red. masses --      2.8278                 5.4155                 4.0813
 Frc consts  --      0.1872                 0.3955                 0.5014
 IR Inten    --     19.0925                 1.4040                 1.6874

                     10                     11                     12
                      A                      A                      A
 Frequencies --    499.5960               611.0481               644.1668
 Red. masses --      6.5251                 4.2169                 8.5818
 Frc consts  --      0.9596                 0.9277                 2.0981
 IR Inten    --      0.6858                10.6217                 6.3943

                     13                     14                     15
                      A                      A                      A
 Frequencies --    777.6266               783.2368               809.3481
 Red. masses --      3.0006                 1.8250                 1.6060
 Frc consts  --      1.0691                 0.6596                 0.6198
 IR Inten    --     22.6392                12.6099                21.8975

                     16                     17                     18
                      A                      A                      A
 Frequencies --    848.9146               880.4242               881.0934
 Red. masses --      2.1095                 2.4342                 1.4808
 Frc consts  --      0.8957                 1.1117                 0.6773
 IR Inten    --     15.1237                 6.5404                 1.2596

                     19                     20                     21
                      A                      A                      A
 Frequencies --    920.4430               951.8067               996.3873
 Red. masses --      5.3581                10.0369                 4.7794
 Frc consts  --      2.6746                 5.3573                 2.7957
 IR Inten    --     26.6928                23.8981                10.6521

                     22                     23                     24
                      A                      A                      A
 Frequencies --   1039.0835              1070.7837              1129.0230
 Red. masses --      2.8813                 1.8233                 1.9639
 Frc consts  --      1.8329                 1.2317                 1.4750
 IR Inten    --     41.2881                 3.7315                17.6817

                     25                     26                     27
                      A                      A                      A
 Frequencies --   1146.9368              1196.3523              1222.8921
 Red. masses --      2.2129                 2.1936                 2.5712
 Frc consts  --      1.7151                 1.8498                 2.2655
 IR Inten    --      8.7398               140.6745               217.7880

                     28                     29                     30
                      A                      A                      A
 Frequencies --   1334.5895              1346.4751              1417.8931
 Red. masses --      1.7550                 1.3503                 1.3073
 Frc consts  --      1.8417                 1.4423                 1.5485
 IR Inten    --    119.9393               112.2632                 3.4773

                     31                     32                     33
                      A                      A                      A
 Frequencies --   1442.4178              1469.2024              1492.9645
 Red. masses --      1.3166                 9.1311                 4.3685
 Frc consts  --      1.6140                11.6128                 5.7370
 IR Inten    --     12.1582                36.3950                41.0762

                     34                     35                     36
                      A                      A                      A
 Frequencies --   1516.4733              1519.9406              1536.9437
 Red. masses --      1.0495                 1.1186                 1.0692
 Frc consts  --      1.4221                 1.5225                 1.4880
 IR Inten    --      9.5472                 9.9475                 9.5156

                     37                     38                     39
                      A                      A                      A
 Frequencies --   1603.8054              1803.7398              3061.8963
 Red. masses --      5.9473                11.7241                 1.0360
 Frc consts  --      9.0130                22.4739                 5.7224
 IR Inten    --      6.1580               200.1458                15.1976

                     40                     41                     42
                      A                      A                      A
 Frequencies --   3097.3341              3130.3194              3139.0696
 Red. masses --      1.0592                 1.1004                 1.1047
 Frc consts  --      5.9872                 6.3532                 6.4137
 IR Inten    --     22.1056                26.6268                 4.0946

                     43                     44                     45
                      A                      A                      A
 Frequencies --   3160.8392              3290.4749              3317.4813
 Red. masses --      1.1089                 1.0932                 1.1063
 Frc consts  --      6.5275                 6.9741                 7.1739
 IR Inten    --     25.7748                 0.3405                 2.3665

 - Thermochemistry -
 -------------------
 Temperature   298.150 Kelvin.  Pressure   1.00000 Atm.
 Atom     1 has atomic number  6 and mass  12.00000

 Molecular mass:   141.04259 amu.
 Principal axes and moments of inertia in atomic units:
                           1         2         3
     Eigenvalues --   475.124112457.534692770.47792
           X            0.99980   0.01921  -0.00575
           Y           -0.01919   0.99981   0.00327
           Z            0.00581  -0.00316   0.99998
 This molecule is an asymmetric top.
 Rotational symmetry number  1.
 Warning -- assumption of classical behavior for rotation
           may cause significant error
 Rotational temperatures (Kelvin)      0.18230     0.03524     0.03126
 Rotational constants (GHZ):           3.79846     0.73437     0.65142
 Zero-point vibrational energy     341231.0 (Joules/Mol)
                                   81.55616 (Kcal/Mol)
 Warning -- explicit consideration of  11 degrees of freedom as
           vibrations may cause significant error
 Vibrational temperatures:     71.99    95.70   133.28   214.28   315.49
          (Kelvin)            341.12   482.22   506.54   657.00   718.81
                              879.16   926.81  1118.83  1126.90  1164.47
                             1221.40  1266.73  1267.70  1324.31  1369.44
                             1433.58  1495.01  1540.62  1624.41  1650.19
                             1721.28  1759.47  1920.18  1937.28  2040.03
                             2075.32  2113.85  2148.04  2181.87  2186.86
                             2211.32  2307.52  2595.18  4405.39  4456.37
                             4503.83  4516.42  4547.74  4734.26  4773.12

 Zero-point correction=                           0.129968 (Hartree/Particle)
 Thermal correction to Energy=                    0.139130
 Thermal correction to Enthalpy=                  0.140074
 Thermal correction to Gibbs Free Energy=         0.094447
 Sum of electronic and zero-point Energies=           -513.097346
 Sum of electronic and thermal Energies=              -513.088184
 Sum of electronic and thermal Enthalpies=            -513.087240
 Sum of electronic and thermal Free Energies=         -513.132867

                     E (Thermal)             CV                S
                      KCal/Mol        Cal/Mol-Kelvin    Cal/Mol-Kelvin
 Total                   87.305             32.434             96.030
 Electronic               0.000              0.000              0.000
 Translational            0.889              2.981             40.743
 Rotational               0.889              2.981             29.560
 Vibrational             85.528             26.472             25.726
 Vibration     1          0.595              1.978              4.816
 Vibration     2          0.598              1.970              4.254
 Vibration     3          0.602              1.954              3.604
 Vibration     4          0.618              1.904              2.686
 Vibration     5          0.647              1.812              1.965
 Vibration     6          0.656              1.784              1.825
 Vibration     7          0.716              1.605              1.235
 Vibration     8          0.729              1.571              1.157
 Vibration     9          0.815              1.346              0.776
 Vibration    10          0.855              1.251              0.659
 Vibration    11          0.970              1.008              0.431

 Optimization completed.
    -- Stationary point found.
 Normal termination of Gaussian 16 at Mon Aug 27 11:47:55 2018.
 Gaussian 16:  ES64L-G16RevA.03 25-Dec-2016

 ----------------------------------------------------------------------
 # TD(NStates=10, Root=1) b3lyp/6-31G* volume pop=NPA density=current G
 eom=AllCheck Guess=Read
 ----------------------------------------------------------------------

 Structure from the checkpoint file:  "science_add_93.chk"
 -------------------
 Title Card Required
 -------------------
 Charge =  0 Multiplicity = 1

                         Standard orientation:
 ---------------------------------------------------------------------
 Center     Atomic      Atomic             Coordinates (Angstroms)
 Number     Number       Type             X           Y           Z
 ---------------------------------------------------------------------
      1          6           0        3.089899    0.259528    0.208504
      2          1           0        4.143961    0.454420    0.343533
      3          6           0        1.987481    1.045526    0.121749
      4          1           0        1.902374    2.119402    0.170896
      5          6           0        0.933387    0.102631   -0.055161
      6          7           0        1.371771   -1.140930   -0.071740
      7          8           0        2.745080   -1.041863    0.096221
      8          6           0       -0.506138    0.454921   -0.204240
      9          8           0       -0.890836    1.607195   -0.178320
     10          8           0       -1.284729   -0.622648   -0.369121
     11          6           0       -2.706825   -0.378443   -0.520396
     12          6           0       -3.393688   -0.267103    0.831922
     13          1           0       -3.063598   -1.243607   -1.083469
     14          1           0       -2.845924    0.527318   -1.115445
     15          1           0       -3.208017   -1.160437    1.436649
     16          1           0       -4.475622   -0.165808    0.688938
     17          1           0       -3.036391    0.611396    1.376565
 ---------------------------------------------------------------------

 SCF Done:  E(RB3LYP) =  -513.227314092     A.U. after    1 cycles

 Excitation energies and oscillator strengths:

 Excited State   1:      Singlet-A      4.9231 eV  251.84 nm  f=0.0002  <S**2>=0.000
      36 -> 38         0.68672
      36 -> 39        -0.13582
 This state for optimization and/or second-order correction.
 Total Energy, E(TD-HF/TD-DFT) =  -513.046392112
 Copying the excited state density for this state as the 1-particle RhoCI density.

 Excited State   2:      Singlet-A      5.5877 eV  221.89 nm  f=0.0345  <S**2>=0.000
      34 -> 38        -0.12814
      37 -> 38         0.66980
      37 -> 39        -0.10635

 Excited State   3:      Singlet-A      5.8774 eV  210.95 nm  f=0.0057  <S**2>=0.000
      33 -> 38         0.70211

 Excited State   4:      Singlet-A      6.3018 eV  196.74 nm  f=0.0722  <S**2>=0.000
      34 -> 38         0.57010
      35 -> 38        -0.39451

 Excited State   5:      Singlet-A      6.6603 eV  186.15 nm  f=0.1527  <S**2>=0.000
      34 -> 38         0.35781
      34 -> 39        -0.10001
      35 -> 38         0.54672
      37 -> 38         0.15600
      37 -> 39         0.14036

 Excited State   6:      Singlet-A      6.8661 eV  180.58 nm  f=0.0005  <S**2>=0.000
      36 -> 38         0.14033
      36 -> 39         0.68061

 Excited State   7:      Singlet-A      7.0018 eV  177.07 nm  f=0.0007  <S**2>=0.000
      31 -> 38         0.14458
      32 -> 38         0.67633

 Excited State   8:      Singlet-A      7.3871 eV  167.84 nm  f=0.2990  <S**2>=0.000
      34 -> 38        -0.10090
      34 -> 39         0.21714
      37 -> 39         0.63058

 Excited State   9:      Singlet-A      7.5871 eV  163.42 nm  f=0.0002  <S**2>=0.000
      33 -> 39         0.69865

 Excited State  10:      Singlet-A      7.7395 eV  160.20 nm  f=0.0039  <S**2>=0.000
      34 -> 39         0.15531
      35 -> 39         0.64594
      37 -> 39        -0.12828

 The electronic state is 1-A.
 Alpha  occ. eigenvalues --  -19.25311 -19.19894 -19.14657 -14.39778 -10.33173
 Alpha  occ. eigenvalues --  -10.26851 -10.24913 -10.24415 -10.21152 -10.18698
 Alpha  occ. eigenvalues --   -1.15828  -1.11030  -1.02418  -0.88476  -0.80851
 Alpha  occ. eigenvalues --   -0.77793  -0.68853  -0.63090  -0.62668  -0.56656
 Alpha  occ. eigenvalues --   -0.54914  -0.49331  -0.49006  -0.48294  -0.46297
 Alpha  occ. eigenvalues --   -0.45241  -0.43269  -0.41202  -0.40550  -0.39215
 Alpha  occ. eigenvalues --   -0.37664  -0.34794  -0.31829  -0.30913  -0.30596
 Alpha  occ. eigenvalues --   -0.28705  -0.27803
 Alpha virt. eigenvalues --   -0.05268   0.00446   0.09547   0.10316   0.10917
 Alpha virt. eigenvalues --    0.11042   0.12580   0.14481   0.14990   0.15210
 Alpha virt. eigenvalues --    0.16948   0.18487   0.18715   0.22442   0.26367

 Mulliken charges:
               1
     1  C    0.132045
     2  H    0.161257
     3  C   -0.257795
     4  H    0.145948
     5  C    0.231521
     6  N   -0.293975
     7  O   -0.328836
     8  C    0.587967
     9  O   -0.294345
    10  O   -0.415866
    11  C   -0.072689
    12  C   -0.461626
    13  H    0.181638
    14  H    0.171096
    15  H    0.181073
    16  H    0.161953
    17  H    0.170636
 Sum of Mulliken charges =  -0.00000

 Dipole moment (field-independent basis, Debye):
    X=             -3.5317    Y=              2.6374    Z=             -0.0056  Tot=              4.4078
 Quadrupole moment (field-independent basis, Debye-Ang):
   XX=            -42.7806   YY=            -60.8249   ZZ=            -57.2602
   XY=              7.2801   XZ=              1.9221   YZ=              0.0787

 Summary of Natural Population Analysis:

                                       Natural Population
                Natural  -----------------------------------------------
    Atom  No    Charge         Core      Valence    Rydberg      Total
 -----------------------------------------------------------------------
      C    1    0.11147      1.99910     3.86636    0.02308     5.88853
      H    2    0.22750      0.00000     0.77204    0.00046     0.77250
      C    3   -0.36146      1.99899     4.35154    0.01093     6.36146
      H    4    0.24964      0.00000     0.75008    0.00028     0.75036
      C    5   -0.03329      1.99908     4.00740    0.02682     6.03329
      N    6   -0.18766      1.99937     5.16319    0.02510     7.18766
      O    7   -0.31346      1.99978     6.29904    0.01464     8.31346
      C    8    0.65016      1.99933     3.31264    0.03787     5.34984
      O    9   -0.24454      1.99982     6.22608    0.01864     8.24454
      O   10   -0.46531      1.99976     6.45383    0.01172     8.46531
      C   11   -0.11778      1.99927     4.10125    0.01726     6.11778
      C   12   -0.71174      1.99945     4.70472    0.00757     6.71174
      H   13    0.24286      0.00000     0.75606    0.00108     0.75714
      H   14    0.22145      0.00000     0.77676    0.00179     0.77855
      H   15    0.24777      0.00000     0.75106    0.00117     0.75223
      H   16    0.24507      0.00000     0.75400    0.00092     0.75493
      H   17    0.23933      0.00000     0.75945    0.00123     0.76067
 =======================================================================
   * Total *   -0.00000     19.99394    53.80550    0.20057    74.00000

 Normal termination of Gaussian 16 at Mon Aug 27 11:51:28 2018.
