 Gaussian 16, Revision A.03,

 -------------------------
 # opt b3lyp/6-31G* scf=qc
 -------------------------

 -------------------
 Title Card Required
 -------------------
 Symbolic Z-matrix:
 Charge =  0 Multiplicity = 1

 SCF Done:  E(RB3LYP) =  -702.740984172     a.u. after    9 cycles
 SCF Done:  E(RB3LYP) =  -702.746753397     a.u. after    7 cycles
 SCF Done:  E(RB3LYP) =  -702.747469964     a.u. after    5 cycles
 SCF Done:  E(RB3LYP) =  -702.747512477     a.u. after    3 cycles
 SCF Done:  E(RB3LYP) =  -702.747518603     a.u. after    3 cycles
 SCF Done:  E(RB3LYP) =  -702.747518886     a.u. after    3 cycles
 SCF Done:  E(RB3LYP) =  -702.747519376     a.u. after    2 cycles
 Optimization completed.
    -- Stationary point found.
 Normal termination of Gaussian 16 at Mon Aug 27 11:43:06 2018.

 ----------------------------------------------------------------------
 # freq b3lyp/6-31G* volume NMR pop=NPA density=current Geom=AllCheck G
 uess=Read
 ----------------------------------------------------------------------

 Structure from the checkpoint file:  "science_add_212.chk"
 -------------------
 Title Card Required
 -------------------
 Charge =  0 Multiplicity = 1

 SCF Done:  E(RB3LYP) =  -702.747519376     A.U. after    1 cycles

      1  C    Isotropic =    33.2127   Anisotropy =   112.1691

      2  C    Isotropic =    92.6650   Anisotropy =    95.1616

      3  H    Isotropic =    25.5876   Anisotropy =     5.7385

      4  C    Isotropic =    38.3088   Anisotropy =   112.4808

      5  N    Isotropic =  -133.2634   Anisotropy =   298.9455

      6  O    Isotropic =   -37.3189   Anisotropy =   237.7680

      7  C    Isotropic =    36.9668   Anisotropy =    74.7623

      8  O    Isotropic =   -68.3623   Anisotropy =   575.4531

      9  O    Isotropic =   158.1752   Anisotropy =   131.1918

     10  C    Isotropic =   138.4754   Anisotropy =    63.4405

     11  C    Isotropic =    52.5370   Anisotropy =    88.0325

     12  O    Isotropic =    64.0593   Anisotropy =   263.8473

     13  C    Isotropic =    53.2940   Anisotropy =    94.5610

     14  C    Isotropic =    82.9339   Anisotropy =   120.6568

     15  C    Isotropic =    82.7479   Anisotropy =   125.2374

     16  H    Isotropic =    28.5728   Anisotropy =     7.0152

     17  H    Isotropic =    28.2684   Anisotropy =     8.0473

     18  H    Isotropic =    28.2694   Anisotropy =     8.0489

     19  H    Isotropic =    24.8995   Anisotropy =     2.8487

     20  H    Isotropic =    25.9411   Anisotropy =     1.8532

     21  H    Isotropic =    25.3787   Anisotropy =     4.0340

  Exact polarizability: 195.901  -0.566 102.590   0.006   0.004  47.267
 Approx polarizability: 258.354   2.566 201.498   0.014   0.009  72.225

                      1                      2                      3
                      A                      A                      A
 Frequencies --     40.5529                53.5495                78.4223
 Red. masses --      5.6292                 5.0867                 5.4124
 Frc consts  --      0.0055                 0.0086                 0.0196
 IR Inten    --      2.9380                 1.2773                 1.3273

                      4                      5                      6
                      A                      A                      A
 Frequencies --     94.8189               126.4699               140.3521
 Red. masses --      4.1382                 1.7508                 1.8365
 Frc consts  --      0.0219                 0.0165                 0.0213
 IR Inten    --      1.8586                 0.9655                 0.1026

                      7                      8                      9
                      A                      A                      A
 Frequencies --    168.7670               229.3372               275.0541
 Red. masses --      5.3445                 5.8811                 7.3288
 Frc consts  --      0.0897                 0.1822                 0.3267
 IR Inten    --      3.1691                 7.2212                 2.9419

                     10                     11                     12
                      A                      A                      A
 Frequencies --    319.6614               354.1387               428.2103
 Red. masses --      4.2913                 9.6576                 8.1800
 Frc consts  --      0.2584                 0.7136                 0.8837
 IR Inten    --     23.5460                 0.0449                 3.5563

                     13                     14                     15
                      A                      A                      A
 Frequencies --    488.1457               529.4707               604.1299
 Red. masses --      9.9217                 5.4604                 3.2392
 Frc consts  --      1.3929                 0.9019                 0.6965
 IR Inten    --      0.6283                 0.2613                 5.5460

                     16                     17                     18
                      A                      A                      A
 Frequencies --    631.3034               645.0471               709.9784
 Red. masses --      9.4167                 6.2015                 4.5236
 Frc consts  --      2.2112                 1.5203                 1.3435
 IR Inten    --      3.5339                 9.3375                 0.0382

                     19                     20                     21
                      A                      A                      A
 Frequencies --    752.9251               777.6598               820.4481
 Red. masses --      1.2946                 4.2477                 5.6670
 Frc consts  --      0.4324                 1.5135                 2.2475
 IR Inten    --     40.8488                18.6344                26.8168

                     22                     23                     24
                      A                      A                      A
 Frequencies --    825.2025               838.2559               883.1364
 Red. masses --      1.2938                 1.6161                 1.3294
 Frc consts  --      0.5191                 0.6691                 0.6109
 IR Inten    --     26.2005                 8.2424                 0.3725

                     25                     26                     27
                      A                      A                      A
 Frequencies --    898.8305               907.1521               958.2447
 Red. masses --      6.6294                 5.9657                11.8173
 Frc consts  --      3.1556                 2.8925                 6.3933
 IR Inten    --      0.1019                34.4993                33.1855

                     28                     29                     30
                      A                      A                      A
 Frequencies --    980.6794               992.7078              1035.2118
 Red. masses --      8.0649                 4.5828                 3.6871
 Frc consts  --      4.5699                 2.6609                 2.3280
 IR Inten    --      7.4521                 1.0188                54.5256

                     31                     32                     33
                      A                      A                      A
 Frequencies --   1044.7803              1081.1674              1117.9819
 Red. masses --      1.4567                 1.9414                 3.1234
 Frc consts  --      0.9368                 1.3370                 2.3001
 IR Inten    --     22.2561                21.3021                16.8234

                     34                     35                     36
                      A                      A                      A
 Frequencies --   1166.2916              1184.4785              1206.8413
 Red. masses --      2.3853                 1.2727                 2.1539
 Frc consts  --      1.9116                 1.0521                 1.8483
 IR Inten    --     44.9556                 0.8879                21.6434

                     37                     38                     39
                      A                      A                      A
 Frequencies --   1224.6628              1261.4190              1288.2698
 Red. masses --      1.7663                 1.9291                 4.1011
 Frc consts  --      1.5608                 1.8085                 4.0102
 IR Inten    --     11.3641                59.3780               472.1071

                     40                     41                     42
                      A                      A                      A
 Frequencies --   1330.1300              1439.6321              1459.3190
 Red. masses --      6.4252                 3.0305                 3.6094
 Frc consts  --      6.6977                 3.7006                 4.5289
 IR Inten    --     21.5748                 1.2266                74.6893

                     43                     44                     45
                      A                      A                      A
 Frequencies --   1487.2245              1506.5105              1513.3132
 Red. masses --      2.3358                 2.6971                 1.0479
 Frc consts  --      3.0440                 3.6066                 1.4140
 IR Inten    --     45.0147                 4.8760                 6.6928

                     46                     47                     48
                      A                      A                      A
 Frequencies --   1522.3030              1532.3263              1589.2501
 Red. masses --      1.0985                 4.7388                 5.0729
 Frc consts  --      1.4998                 6.5557                 7.5491
 IR Inten    --     21.9247                56.8008                22.3062

                     49                     50                     51
                      A                      A                      A
 Frequencies --   1689.8715              1811.2370              3077.0801
 Red. masses --      8.8281                11.7953                 1.0298
 Frc consts  --     14.8533                22.7986                 5.7450
 IR Inten    --     63.5439               206.2123                34.5137

                     52                     53                     54
                      A                      A                      A
 Frequencies --   3152.1614              3188.8541              3272.7834
 Red. masses --      1.1077                 1.1069                 1.0911
 Frc consts  --      6.4847                 6.6318                 6.8856
 IR Inten    --     19.8443                14.9291                 3.9066

                     55                     56                     57
                      A                      A                      A
 Frequencies --   3287.5502              3307.2561              3318.4268
 Red. masses --      1.0981                 1.1045                 1.0988
 Frc consts  --      6.9927                 7.1176                 7.1292
 IR Inten    --      0.1866                 0.1475                 6.6590

 - Thermochemistry -
 -------------------
 Temperature   298.150 Kelvin.  Pressure   1.00000 Atm.
 Atom     1 has atomic number  6 and mass  12.00000

 Molecular mass:   193.03751 amu.
 Principal axes and moments of inertia in atomic units:
                           1         2         3
     Eigenvalues --   642.867126127.030056758.48439
           X            1.00000   0.00068   0.00000
           Y           -0.00068   1.00000   0.00001
           Z           -0.00000  -0.00001   1.00000
 This molecule is an asymmetric top.
 Rotational symmetry number  1.
 Warning -- assumption of classical behavior for rotation
           may cause significant error
 Rotational temperatures (Kelvin)      0.13473     0.01414     0.01282
 Rotational constants (GHZ):           2.80733     0.29455     0.26703
 Zero-point vibrational energy     398649.5 (Joules/Mol)
                                   95.27951 (Kcal/Mol)
 Warning -- explicit consideration of  15 degrees of freedom as
           vibrations may cause significant error
 Vibrational temperatures:     58.35    77.05   112.83   136.42   181.96
          (Kelvin)            201.94   242.82   329.97   395.74   459.92
                              509.53   616.10   702.33   761.79   869.21
                              908.30   928.08  1021.50  1083.29  1118.88
                             1180.44  1187.28  1206.06  1270.64  1293.22
                             1305.19  1378.70  1410.98  1428.29  1489.44
                             1503.21  1555.56  1608.53  1678.03  1704.20
                             1736.38  1762.02  1814.90  1853.53  1913.76
                             2071.31  2099.63  2139.78  2167.53  2177.32
                             2190.25  2204.68  2286.58  2431.35  2605.97
                             4427.23  4535.26  4588.05  4708.81  4730.05
                             4758.40  4774.48

 Zero-point correction=                           0.151838 (Hartree/Particle)
 Thermal correction to Energy=                    0.163752
 Thermal correction to Enthalpy=                  0.164696
 Thermal correction to Gibbs Free Energy=         0.111980
 Sum of electronic and zero-point Energies=           -702.595682
 Sum of electronic and thermal Energies=              -702.583767
 Sum of electronic and thermal Enthalpies=            -702.582823
 Sum of electronic and thermal Free Energies=         -702.635540

                     E (Thermal)             CV                S
                      KCal/Mol        Cal/Mol-Kelvin    Cal/Mol-Kelvin
 Total                  102.756             43.020            110.952
 Electronic               0.000              0.000              0.000
 Translational            0.889              2.981             41.679
 Rotational               0.889              2.981             31.654
 Vibrational            100.979             37.058             37.619
 Vibration     1          0.594              1.981              5.232
 Vibration     2          0.596              1.976              4.682
 Vibration     3          0.600              1.964              3.930
 Vibration     4          0.603              1.953              3.558
 Vibration     5          0.611              1.927              2.999
 Vibration     6          0.615              1.913              2.799
 Vibration     7          0.625              1.881              2.449
 Vibration     8          0.652              1.796              1.884
 Vibration     9          0.677              1.719              1.564
 Vibration    10          0.706              1.636              1.312
 Vibration    11          0.730              1.567              1.148
 Vibration    12          0.790              1.409              0.865
 Vibration    13          0.844              1.276              0.688
 Vibration    14          0.884              1.185              0.588
 Vibration    15          0.963              1.023              0.443

 Optimization completed.
    -- Stationary point found.
 Normal termination of Gaussian 16 at Mon Aug 27 11:46:54 2018.
 Gaussian 16:  ES64L-G16RevA.03 25-Dec-2016

 ----------------------------------------------------------------------
 # TD(NStates=10, Root=1) b3lyp/6-31G* volume pop=NPA density=current G
 eom=AllCheck Guess=Read
 ----------------------------------------------------------------------

 Structure from the checkpoint file:  "science_add_213.chk"
 -------------------
 Title Card Required
 -------------------
 Charge =  0 Multiplicity = 1

                         Standard orientation:
 ---------------------------------------------------------------------
 Center     Atomic      Atomic             Coordinates (Angstroms)
 Number     Number       Type             X           Y           Z
 ---------------------------------------------------------------------
      1          6           0       -0.879042   -0.202992    0.000121
      2          6           0        0.135590    0.713406    0.000497
      3          1           0        0.077533    1.789724    0.000707
      4          6           0        1.304864   -0.092123    0.000010
      5          7           0        1.032544   -1.383380    0.000226
      6          8           0       -0.355839   -1.457219    0.000169
      7          6           0        2.697585    0.433960   -0.000268
      8          8           0        2.944594    1.622531   -0.000105
      9          8           0        3.619118   -0.540087   -0.000155
     10          6           0        4.985101   -0.090545   -0.000092
     11          6           0       -2.312889   -0.096506   -0.000007
     12          8           0       -2.836465    1.168690    0.000128
     13          6           0       -4.190839    1.033316   -0.000095
     14          6           0       -4.543111   -0.283797   -0.000326
     15          6           0       -3.321826   -1.023878   -0.000104
     16          1           0        5.587166   -0.998947    0.000262
     17          1           0        5.190084    0.509835    0.890125
     18          1           0        5.190330    0.509286   -0.890626
     19          1           0       -4.750886    1.955787   -0.000082
     20          1           0       -5.548162   -0.681263   -0.000538
     21          1           0       -3.197744   -2.097125   -0.000138
 ---------------------------------------------------------------------

 SCF Done:  E(RB3LYP) =  -702.747519376     A.U. after    1 cycles

 Excitation energies and oscillator strengths:

 Excited State   1:      Singlet-A      4.2296 eV  293.14 nm  f=0.2178  <S**2>=0.000
      50 -> 51         0.67402
      50 -> 52         0.19404
 This state for optimization and/or second-order correction.
 Total Energy, E(TD-HF/TD-DFT) =  -702.592086172
 Copying the excited state density for this state as the 1-particle RhoCI density.

 Excited State   2:      Singlet-A      4.9063 eV  252.70 nm  f=0.0001  <S**2>=0.000
      49 -> 51         0.61185
      49 -> 52         0.34284

 Excited State   3:      Singlet-A      4.9780 eV  249.07 nm  f=0.4349  <S**2>=0.000
      50 -> 51        -0.20383
      50 -> 52         0.67033

 Excited State   4:      Singlet-A      5.7406 eV  215.98 nm  f=0.0055  <S**2>=0.000
      44 -> 51         0.69576
      44 -> 52         0.10011

 Excited State   5:      Singlet-A      5.7562 eV  215.39 nm  f=0.0068  <S**2>=0.000
      48 -> 51         0.64938
      50 -> 53         0.25337

 Excited State   6:      Singlet-A      5.9466 eV  208.49 nm  f=0.0000  <S**2>=0.000
      49 -> 51        -0.35117
      49 -> 52         0.60523

 Excited State   7:      Singlet-A      6.0024 eV  206.56 nm  f=0.0269  <S**2>=0.000
      45 -> 52         0.12813
      47 -> 51         0.66609

 Excited State   8:      Singlet-A      6.1939 eV  200.17 nm  f=0.0388  <S**2>=0.000
      45 -> 51        -0.17935
      46 -> 51         0.66747

 Excited State   9:      Singlet-A      6.3445 eV  195.42 nm  f=0.0162  <S**2>=0.000
      45 -> 51        -0.31379
      46 -> 51        -0.11368
      48 -> 51         0.15457
      48 -> 52         0.47573
      50 -> 53        -0.34919

 Excited State  10:      Singlet-A      6.5454 eV  189.42 nm  f=0.0951  <S**2>=0.000
      45 -> 51         0.52554
      46 -> 51         0.15016
      46 -> 52        -0.12212
      47 -> 52        -0.16066
      48 -> 51         0.15825
      48 -> 52         0.24194
      50 -> 53        -0.18969
      50 -> 55         0.13864

 The electronic state is 1-A.
 Alpha  occ. eigenvalues --  -19.24730 -19.23433 -19.20079 -19.14560 -14.39432
 Alpha  occ. eigenvalues --  -10.32947 -10.27513 -10.26422 -10.25658 -10.24500
 Alpha  occ. eigenvalues --  -10.24170 -10.20820 -10.20631 -10.20529  -1.15379
 Alpha  occ. eigenvalues --   -1.12866  -1.11172  -1.02344  -0.88565  -0.82615
 Alpha  occ. eigenvalues --   -0.81577  -0.75731  -0.74325  -0.65376  -0.64124
 Alpha  occ. eigenvalues --   -0.61684  -0.58536  -0.56560  -0.55788  -0.50401
 Alpha  occ. eigenvalues --   -0.49465  -0.48727  -0.48188  -0.47651  -0.46019
 Alpha  occ. eigenvalues --   -0.45250  -0.43402  -0.42087  -0.40958  -0.40611
 Alpha  occ. eigenvalues --   -0.40383  -0.38918  -0.36400  -0.31614  -0.31069
 Alpha  occ. eigenvalues --   -0.30969  -0.30028  -0.29326  -0.28600  -0.22576
 Alpha virt. eigenvalues --   -0.05904  -0.03050   0.03611   0.08802   0.08966
 Alpha virt. eigenvalues --    0.10435   0.11095   0.11808   0.11822   0.13146
 Alpha virt. eigenvalues --    0.14612   0.15389   0.15602   0.16382   0.17137

 Mulliken charges:
               1
     1  C    0.355994
     2  C   -0.226115
     3  H    0.190093
     4  C    0.228921
     5  N   -0.240627
     6  O   -0.427231
     7  C    0.529813
     8  O   -0.559282
     9  O   -0.470990
    10  C   -0.201907
    11  C    0.345188
    12  O   -0.427684
    13  C    0.154181
    14  C   -0.172989
    15  C   -0.151999
    16  H    0.149342
    17  H    0.154819
    18  H    0.154795
    19  H    0.211242
    20  H    0.194105
    21  H    0.210330
 Sum of Mulliken charges =  -0.00000

 Dipole moment (field-independent basis, Debye):
    X=            -11.3390    Y=              0.8580    Z=             -0.0003  Tot=             11.3715
 Quadrupole moment (field-independent basis, Debye-Ang):
   XX=            -44.1470   YY=            -83.1079   ZZ=            -78.6395
   XY=             -5.8050   XZ=              0.0028   YZ=              0.0020

 Summary of Natural Population Analysis:

                                       Natural Population
                Natural  -----------------------------------------------
    Atom  No    Charge         Core      Valence    Rydberg      Total
 -----------------------------------------------------------------------
      C    1    0.18012      1.99892     3.79637    0.02458     5.81988
      C    2   -0.15944      1.99892     4.14795    0.01257     6.15944
      H    3    0.27003      0.00000     0.72887    0.00110     0.72997
      C    4   -0.01440      1.99915     3.98703    0.02822     6.01440
      N    5   -0.13049      1.99942     5.10480    0.02626     7.13049
      O    6   -0.34731      1.99974     6.33331    0.01426     8.34731
      C    7    0.68127      1.99936     3.27426    0.04511     5.31873
      O    8   -0.66821      1.99980     6.64961    0.01880     8.66821
      O    9   -0.55116      1.99975     6.54017    0.01125     8.55116
      C   10   -0.31575      1.99943     4.30243    0.01390     6.31575
      C   11    0.40419      1.99887     3.57458    0.02236     5.59581
      O   12   -0.45268      1.99974     6.43539    0.01754     8.45268
      C   13    0.21477      1.99906     3.76457    0.02159     5.78523
      C   14   -0.28416      1.99913     4.27219    0.01285     6.28416
      C   15   -0.26136      1.99902     4.24850    0.01384     6.26136
      H   16    0.21299      0.00000     0.78637    0.00064     0.78701
      H   17    0.20977      0.00000     0.78845    0.00178     0.79023
      H   18    0.20975      0.00000     0.78846    0.00178     0.79025
      H   19    0.24844      0.00000     0.75118    0.00038     0.75156
      H   20    0.27089      0.00000     0.72884    0.00026     0.72911
      H   21    0.28275      0.00000     0.71671    0.00054     0.71725
 =======================================================================
   * Total *   -0.00000     27.99031    71.72005    0.28963   100.00000

 Normal termination of Gaussian 16 at Mon Aug 27 11:52:09 2018.
