 Gaussian 16, Revision A.03,

 ---------------------------------
 # opt=CalcAll B3LYP/6-31G* scf=qc
 ---------------------------------

 -------------------
 Title Card Required
 -------------------
 Symbolic Z-matrix:
 Charge =  0 Multiplicity = 1

 SCF Done:  E(RB3LYP) =  -1025.72655386     a.u. after    8 cycles
 SCF Done:  E(RB3LYP) =  -1025.72655392     a.u. after    2 cycles
 Optimization completed.
    -- Stationary point found.
 Normal termination of Gaussian 16 at Mon Dec 30 18:07:51 2019.

 ----------------------------------------------------------------------
 # freq B3LYP/6-31G* scf=qc volume NMR pop=NPA density=current Geom=All
 Check Guess=Read
 ----------------------------------------------------------------------

 Structure from the checkpoint file:  "9_2.chk"
 -------------------
 Title Card Required
 -------------------
 Charge =  0 Multiplicity = 1

 SCF Done:  E(RB3LYP) =  -1025.72655392     a.u. after    1 cycles

      1  C    Isotropic =    30.2693   Anisotropy =   114.5632

      2  C    Isotropic =    92.8164   Anisotropy =    90.5417

      3  H    Isotropic =    25.7446   Anisotropy =     6.8124

      4  C    Isotropic =    38.2170   Anisotropy =   111.0560

      5  N    Isotropic =  -132.8518   Anisotropy =   299.4776

      6  O    Isotropic =   -43.3400   Anisotropy =   236.0811

      7  C    Isotropic =    36.9629   Anisotropy =    74.8526

      8  O    Isotropic =   -67.8399   Anisotropy =   574.8098

      9  O    Isotropic =   158.3001   Anisotropy =   130.6307

     10  C    Isotropic =   138.4670   Anisotropy =    63.5508

     11  C    Isotropic =    59.2800   Anisotropy =   111.7392

     12  C    Isotropic =    69.1523   Anisotropy =   131.0683

     13  C    Isotropic =    69.9440   Anisotropy =   126.2112

     14  C    Isotropic =    62.8666   Anisotropy =   125.4108

     15  S    Isotropic =   321.6759   Anisotropy =   104.4576

     16  H    Isotropic =    28.5673   Anisotropy =     7.0742

     17  H    Isotropic =    28.2685   Anisotropy =     8.0934

     18  H    Isotropic =    28.2685   Anisotropy =     8.0934

     19  H    Isotropic =    24.6382   Anisotropy =     5.2376

     20  H    Isotropic =    25.3344   Anisotropy =     4.1902

     21  H    Isotropic =    25.1775   Anisotropy =     3.6041

  Exact polarizability: 211.943   2.178 119.820   0.010   0.001  53.675
 Approx polarizability: 293.246   5.960 241.639   0.013   0.002  83.807

                      1                      2                      3
                      A                      A                      A
 Frequencies --     32.8425                42.2513                75.4321
 Red. masses --      6.8869                 5.5340                 6.0280
 Frc consts  --      0.0044                 0.0058                 0.0202
 IR Inten    --      0.0399                 4.2500                 1.0116

                      4                      5                      6
                      A                      A                      A
 Frequencies --     86.7855               125.1123               139.1889
 Red. masses --      4.3064                 1.8212                 1.7400
 Frc consts  --      0.0191                 0.0168                 0.0199
 IR Inten    --      1.6295                 1.0112                 0.1005

                      7                      8                      9
                      A                      A                      A
 Frequencies --    163.3473               220.9190               261.4164
 Red. masses --      5.8570                 5.4844                 7.4739
 Frc consts  --      0.0921                 0.1577                 0.3009
 IR Inten    --      2.9284                 5.0568                 1.1917

                     10                     11                     12
                      A                      A                      A
 Frequencies --    310.3083               335.5771               380.7517
 Red. masses --      4.7547                 8.9981                 8.5316
 Frc consts  --      0.2697                 0.5970                 0.7287
 IR Inten    --     18.7441                 1.5309                11.3257

                     13                     14                     15
                      A                      A                      A
 Frequencies --    472.4308               488.8948               515.7066
 Red. masses --      8.4932                 5.9732                 7.2648
 Frc consts  --      1.1169                 0.8412                 1.1384
 IR Inten    --      1.1272                 0.8883                 0.0830

                     16                     17                     18
                      A                      A                      A
 Frequencies --    576.0132               632.1455               657.3886
 Red. masses --      3.2994                 8.5175                 8.5999
 Frc consts  --      0.6450                 2.0054                 2.1897
 IR Inten    --      0.0000                 4.5856                 2.3276

                     19                     20                     21
                      A                      A                      A
 Frequencies --    695.5350               713.8569               749.3516
 Red. masses --      4.0683                 1.2496                 6.9001
 Frc consts  --      1.1596                 0.3752                 2.2828
 IR Inten    --      0.5314                62.9134                 1.3716

                     22                     23                     24
                      A                      A                      A
 Frequencies --    775.5698               819.8533               830.4041
 Red. masses --      3.7674                 5.6678                 1.6669
 Frc consts  --      1.3351                 2.2446                 0.6772
 IR Inten    --     19.2157                29.0184                21.3485

                     25                     26                     27
                      A                      A                      A
 Frequencies --    853.9969               859.4157               923.1241
 Red. masses --      1.3374                 4.5174                 1.3453
 Frc consts  --      0.5747                 1.9658                 0.6755
 IR Inten    --      4.3608                26.4374                 0.4934

                     28                     29                     30
                      A                      A                      A
 Frequencies --    925.7156               963.5648               981.7331
 Red. masses --      8.3483                10.1849                 8.5621
 Frc consts  --      4.2151                 5.5714                 4.8620
 IR Inten    --      5.9692                24.8413                 8.9509

                     31                     32                     33
                      A                      A                      A
 Frequencies --   1034.6849              1044.1461              1080.1130
 Red. masses --      2.9438                 6.5563                 1.6598
 Frc consts  --      1.8569                 4.2115                 1.1409
 IR Inten    --     36.4577                22.4184                17.0868

                     34                     35                     36
                      A                      A                      A
 Frequencies --   1117.6402              1155.6588              1184.4774
 Red. masses --      1.1491                 2.1442                 1.2727
 Frc consts  --      0.8457                 1.6872                 1.0520
 IR Inten    --      2.0871                45.8098                 0.8898

                     37                     38                     39
                      A                      A                      A
 Frequencies --   1219.8048              1256.0922              1279.4273
 Red. masses --      1.5188                 1.9858                 3.5149
 Frc consts  --      1.3314                 1.8460                 3.3900
 IR Inten    --      2.3286               243.0207               215.5091

                     40                     41                     42
                      A                      A                      A
 Frequencies --   1314.0925              1387.9785              1465.1766
 Red. masses --      5.1753                 2.5656                 3.3266
 Frc consts  --      5.2655                 2.9121                 4.2076
 IR Inten    --    135.2023                29.0695                34.5202

                     43                     44                     45
                      A                      A                      A
 Frequencies --   1481.6405              1504.3007              1511.4740
 Red. masses --      2.3840                 4.6524                 2.8116
 Frc consts  --      3.0835                 6.2029                 3.7845
 IR Inten    --     10.5280                20.5657               129.2141

                     46                     47                     48
                      A                      A                      A
 Frequencies --   1513.2929              1523.2779              1568.6221
 Red. masses --      1.0479                 1.0974                 5.0528
 Frc consts  --      1.4139                 1.5002                 7.3251
 IR Inten    --      6.7217                 3.1047                 3.9089

                     49                     50                     51
                      A                      A                      A
 Frequencies --   1651.4471              1810.8448              3077.2003
 Red. masses --      8.5853                11.7912                 1.0298
 Frc consts  --     13.7954                22.7809                 5.7455
 IR Inten    --     82.5234               200.9565                34.9458

                     52                     53                     54
                      A                      A                      A
 Frequencies --   3152.3236              3189.0785              3229.2225
 Red. masses --      1.1077                 1.1069                 1.0891
 Frc consts  --      6.4854                 6.6328                 6.6913
 IR Inten    --     19.7190                14.8926                 7.8197

                     55                     56                     57
                      A                      A                      A
 Frequencies --   3247.4137              3272.8973              3306.3742
 Red. masses --      1.0953                 1.0974                 1.0987
 Frc consts  --      6.8055                 6.9259                 7.0769
 IR Inten    --      0.3392                 0.4944                 6.9890

 - Thermochemistry -
 -------------------
 Temperature   298.150 Kelvin.  Pressure   1.00000 Atm.
 Atom     1 has atomic number  6 and mass  12.00000

 Molecular mass:   209.01466 amu.
 Principal axes and moments of inertia in atomic units:
                           1         2         3
     Eigenvalues --   794.993116931.990887715.57082
           X            0.99999   0.00511  -0.00006
           Y           -0.00511   0.99999  -0.00001
           Z            0.00006   0.00001   1.00000
 This molecule is an asymmetric top.
 Rotational symmetry number  1.
 Warning -- assumption of classical behavior for rotation
           may cause significant error
 Rotational temperatures (Kelvin)      0.10895     0.01249     0.01123
 Rotational constants (GHZ):           2.27013     0.26035     0.23391
 Zero-point vibrational energy     389906.9 (Joules/Mol)
                                   93.18997 (Kcal/Mol)
 Warning -- explicit consideration of  16 degrees of freedom as
           vibrations may cause significant error
 Vibrational temperatures:     47.25    60.79   108.53   124.86   180.01
          (Kelvin)            200.26   235.02   317.85   376.12   446.46
                              482.82   547.82   679.72   703.41   741.99
                              828.75   909.52   945.84  1000.72  1027.08
                             1078.15  1115.87  1179.59  1194.77  1228.71
                             1236.51  1328.17  1331.90  1386.35  1412.49
                             1488.68  1502.29  1554.04  1608.03  1662.74
                             1704.20  1755.03  1807.24  1840.81  1890.69
                             1996.99  2108.06  2131.75  2164.35  2174.67
                             2177.29  2191.66  2256.90  2376.06  2605.40
                             4427.40  4535.49  4588.37  4646.13  4672.30
                             4708.97  4757.14

 Zero-point correction=                           0.148508 (Hartree/Particle)
 Thermal correction to Energy=                    0.160927
 Thermal correction to Enthalpy=                  0.161872
 Thermal correction to Gibbs Free Energy=         0.107561
 Sum of electronic and zero-point Energies=          -1025.578046
 Sum of electronic and thermal Energies=             -1025.565627
 Sum of electronic and thermal Enthalpies=           -1025.564682
 Sum of electronic and thermal Free Energies=        -1025.618993

                     E (Thermal)             CV                S
                      KCal/Mol        Cal/Mol-Kelvin    Cal/Mol-Kelvin
 Total                  100.983             44.865            114.306
 Electronic               0.000              0.000              0.000
 Translational            0.889              2.981             41.916
 Rotational               0.889              2.981             32.120
 Vibrational             99.206             38.904             40.271
 Vibration     1          0.594              1.983              5.650
 Vibration     2          0.595              1.980              5.151
 Vibration     3          0.599              1.965              4.006
 Vibration     4          0.601              1.958              3.731
 Vibration     5          0.610              1.928              3.020
 Vibration     6          0.615              1.914              2.815
 Vibration     7          0.623              1.887              2.511
 Vibration     8          0.648              1.809              1.952
 Vibration     9          0.669              1.743              1.652
 Vibration    10          0.699              1.654              1.361
 Vibration    11          0.717              1.604              1.233
 Vibration    12          0.750              1.511              1.036
 Vibration    13          0.829              1.311              0.731
 Vibration    14          0.845              1.275              0.686
 Vibration    15          0.871              1.215              0.620
 Vibration    16          0.932              1.083              0.493

 Optimization completed.
    -- Stationary point found.
 Normal termination of Gaussian 16 at Mon Dec 30 18:10:23 2019.
 Gaussian 16:  ES64L-G16RevA.03 25-Dec-2016

 ----------------------------------------------------------------------
 # TD(NStates=10, Root=1) B3LYP/6-31G* scf=qc volume pop=NPA density=cu
 rrent Geom=AllCheck Guess=Read
 ----------------------------------------------------------------------

 Structure from the checkpoint file:  "9_3.chk"
 -------------------
 Title Card Required
 -------------------
 Charge =  0 Multiplicity = 1

                         Standard orientation:
 ---------------------------------------------------------------------
 Center     Atomic      Atomic             Coordinates (Angstroms)
 Number     Number       Type             X           Y           Z
 ---------------------------------------------------------------------
      1          6           0        0.593931    0.278263    0.000041
      2          6           0       -0.408365   -0.653686   -0.000034
      3          1           0       -0.340318   -1.730239   -0.000045
      4          6           0       -1.593429    0.127185   -0.000097
      5          7           0       -1.345305    1.422897   -0.000064
      6          8           0        0.039883    1.522054    0.000024
      7          6           0       -2.974638   -0.427584   -0.000191
      8          8           0       -3.196415   -1.621250   -0.000221
      9          8           0       -3.916257    0.526806   -0.000236
     10          6           0       -5.272640    0.048891   -0.000327
     11          6           0        2.036254    0.212070    0.000129
     12          6           0        2.927926    1.262307    0.000198
     13          6           0        4.285423    0.838113    0.000276
     14          6           0        4.415929   -0.524866    0.000267
     15         16           0        2.877382   -1.322068    0.000161
     16          1           0       -5.893427    0.944578   -0.000353
     17          1           0       -5.465195   -0.555346    0.890046
     18          1           0       -5.465084   -0.555321   -0.890740
     19          1           0        2.609326    2.298039    0.000192
     20          1           0        5.129584    1.518558    0.000337
     21          1           0        5.324097   -1.112502    0.000315
 ---------------------------------------------------------------------

 SCF Done:  E(RB3LYP) =  -1025.72655392     a.u. after    1 cycles

 Excitation energies and oscillator strengths:

 Excited State   1:      Singlet-A      4.2276 eV  293.27 nm  f=0.3232  <S**2>=0.000
      54 -> 55         0.67973
      54 -> 56        -0.16498
 This state for optimization and/or second-order correction.
 Total Energy, E(TD-HF/TD-DFT) =  -1025.57119089
 Copying the excited state density for this state as the 1-particle RhoCI density.

 Excited State   2:      Singlet-A      4.7340 eV  261.90 nm  f=0.1856  <S**2>=0.000
      54 -> 55         0.16830
      54 -> 56         0.67286

 Excited State   3:      Singlet-A      4.9010 eV  252.98 nm  f=0.0001  <S**2>=0.000
      52 -> 55         0.54649
      52 -> 56        -0.43807

 Excited State   4:      Singlet-A      5.0138 eV  247.29 nm  f=0.0299  <S**2>=0.000
      53 -> 55         0.68739
      54 -> 58        -0.12063

 Excited State   5:      Singlet-A      5.4742 eV  226.49 nm  f=0.0000  <S**2>=0.000
      54 -> 57         0.70256

 Excited State   6:      Singlet-A      5.6576 eV  219.15 nm  f=0.0053  <S**2>=0.000
      48 -> 55         0.67807
      48 -> 56        -0.17785

 Excited State   7:      Singlet-A      5.6720 eV  218.59 nm  f=0.0297  <S**2>=0.000
      51 -> 55        -0.26316
      53 -> 56         0.60698
      54 -> 58        -0.22828

 Excited State   8:      Singlet-A      5.6972 eV  217.62 nm  f=0.0000  <S**2>=0.000
      52 -> 55         0.44705
      52 -> 56         0.53619

 Excited State   9:      Singlet-A      5.8251 eV  212.84 nm  f=0.0006  <S**2>=0.000
      51 -> 55         0.60523
      53 -> 56         0.30265
      54 -> 58         0.10282

 Excited State  10:      Singlet-A      6.0873 eV  203.68 nm  f=0.0249  <S**2>=0.000
      49 -> 55         0.69291

 The electronic state is 1-A.
 Alpha  occ. eigenvalues --  -88.92588 -19.24689 -19.20133 -19.14618 -14.39470
 Alpha  occ. eigenvalues --  -10.33000 -10.27746 -10.24542 -10.24265 -10.24211
 Alpha  occ. eigenvalues --  -10.23310 -10.21143 -10.20949 -10.20743  -7.98690
 Alpha  occ. eigenvalues --   -5.95104  -5.94730  -5.94380  -1.15327  -1.11227
 Alpha  occ. eigenvalues --   -1.02401  -0.90232  -0.88081  -0.81757  -0.75220
 Alpha  occ. eigenvalues --   -0.74468  -0.73937  -0.65202  -0.63641  -0.59078
 Alpha  occ. eigenvalues --   -0.57391  -0.55804  -0.53712  -0.49372  -0.49334
 Alpha  occ. eigenvalues --   -0.48821  -0.47665  -0.46858  -0.43777  -0.42113
 Alpha  occ. eigenvalues --   -0.41101  -0.40823  -0.40557  -0.39776  -0.39560
 Alpha  occ. eigenvalues --   -0.36440  -0.36090  -0.31539  -0.31029  -0.30824
 Alpha  occ. eigenvalues --   -0.29959  -0.28660  -0.26785  -0.22953
 Alpha virt. eigenvalues --   -0.06470  -0.03850   0.01163   0.02729   0.07306
 Alpha virt. eigenvalues --    0.08092   0.09188   0.10888   0.11224   0.11458
 Alpha virt. eigenvalues --    0.12007   0.14259   0.15542   0.15618   0.16900

 Mulliken charges:
               1
     1  C    0.421350
     2  C   -0.251373
     3  H    0.189549
     4  C    0.232066
     5  N   -0.233685
     6  O   -0.415113
     7  C    0.563846
     8  O   -0.532924
     9  O   -0.459885
    10  C   -0.209472
    11  C   -0.186888
    12  C   -0.110496
    13  C   -0.087117
    14  C   -0.311715
    15  S    0.327951
    16  H    0.158616
    17  H    0.162112
    18  H    0.162112
    19  H    0.194149
    20  H    0.179536
    21  H    0.207378
 Sum of Mulliken charges =  -0.00000

 Dipole moment (field-independent basis, Debye):
    X=              7.9575    Y=             -0.6050    Z=              0.0005  Tot=              7.9804
 Quadrupole moment (field-independent basis, Debye-Ang):
   XX=            -56.5846   YY=            -90.8484   ZZ=            -87.0152
   XY=             -1.9678   XZ=              0.0019   YZ=             -0.0002

 Summary of Natural Population Analysis:

                                       Natural Population
                Natural  -----------------------------------------------
    Atom  No    Charge         Core      Valence    Rydberg      Total
 -----------------------------------------------------------------------
      C    1    0.23111      1.99891     3.74357    0.02642     5.76889
      C    2   -0.19080      1.99891     4.17962    0.01228     6.19080
      H    3    0.26701      0.00000     0.73181    0.00117     0.73299
      C    4   -0.00758      1.99914     3.98075    0.02769     6.00758
      N    5   -0.12054      1.99942     5.09532    0.02580     7.12054
      O    6   -0.34329      1.99974     6.32920    0.01435     8.34329
      C    7    0.72916      1.99935     3.22714    0.04435     5.27084
      O    8   -0.63946      1.99980     6.62069    0.01897     8.63946
      O    9   -0.53901      1.99975     6.52798    0.01129     8.53901
      C   10   -0.31891      1.99942     4.30558    0.01391     6.31891
      C   11   -0.15307      1.99887     4.13540    0.01879     6.15307
      C   12   -0.25244      1.99897     4.23601    0.01746     6.25244
      C   13   -0.23179      1.99904     4.21736    0.01538     6.23179
      C   14   -0.36121      1.99907     4.34452    0.01761     6.36121
      S   15    0.47655      9.99904     5.48119    0.04322    15.52345
      H   16    0.21846      0.00000     0.78091    0.00063     0.78154
      H   17    0.21395      0.00000     0.78437    0.00168     0.78605
      H   18    0.21395      0.00000     0.78437    0.00168     0.78605
      H   19    0.27555      0.00000     0.72349    0.00096     0.72445
      H   20    0.26264      0.00000     0.73683    0.00053     0.73736
      H   21    0.26971      0.00000     0.72962    0.00067     0.73029
 =======================================================================
   * Total *    0.00000     35.98942    71.69573    0.31485   108.00000

 Normal termination of Gaussian 16 at Mon Dec 30 18:13:32 2019.
