 Gaussian 16, Revision A.03,

 -------------------------
 # opt b3lyp/6-31G* scf=qc
 -------------------------

 -------------------
 Title Card Required
 -------------------
 Symbolic Z-matrix:
 Charge =  0 Multiplicity = 1

 SCF Done:  E(RB3LYP) =  -473.906757115     a.u. after    9 cycles
 SCF Done:  E(RB3LYP) =  -473.909417406     a.u. after    7 cycles
 SCF Done:  E(RB3LYP) =  -473.909713430     a.u. after    5 cycles
 SCF Done:  E(RB3LYP) =  -473.909734644     a.u. after    3 cycles
 SCF Done:  E(RB3LYP) =  -473.909737185     a.u. after    3 cycles
 SCF Done:  E(RB3LYP) =  -473.909739424     a.u. after    3 cycles
 Optimization completed.
    -- Stationary point found.
 Normal termination of Gaussian 16 at Mon Aug 27 11:38:26 2018.

 ----------------------------------------------------------------------
 # freq b3lyp/6-31G* volume NMR pop=NPA density=current Geom=AllCheck G
 uess=Read
 ----------------------------------------------------------------------

 Structure from the checkpoint file:  "science_add_142.chk"
 -------------------
 Title Card Required
 -------------------
 Charge =  0 Multiplicity = 1

 SCF Done:  E(RB3LYP) =  -473.909739424     A.U. after    1 cycles

      1  C    Isotropic =    34.3274   Anisotropy =   110.8431

      2  C    Isotropic =    83.8949   Anisotropy =   114.5298

      3  H    Isotropic =    25.4777   Anisotropy =     4.1619

      4  C    Isotropic =    46.4273   Anisotropy =   134.3217

      5  H    Isotropic =    24.3019   Anisotropy =     3.1156

      6  N    Isotropic =  -137.9309   Anisotropy =   295.8179

      7  O    Isotropic =   -56.4712   Anisotropy =   306.6530

      8  C    Isotropic =    40.9543   Anisotropy =    68.5070

      9  O    Isotropic =   -54.9482   Anisotropy =   554.6702

     10  O    Isotropic =   156.4232   Anisotropy =   132.2678

     11  C    Isotropic =   138.3856   Anisotropy =    63.8055

     12  H    Isotropic =    28.5381   Anisotropy =     6.8645

     13  H    Isotropic =    28.2903   Anisotropy =     8.0051

     14  H    Isotropic =    28.2892   Anisotropy =     8.0030

  Exact polarizability:  94.650  -2.114  64.067   0.002  -0.000  32.719
 Approx polarizability: 131.547   2.066 121.363   0.003  -0.002  48.201

                      1                      2                      3
                      A                      A                      A
 Frequencies --     68.1075               114.6376               134.8969
 Red. masses --      5.1007                 1.8021                 1.6298
 Frc consts  --      0.0139                 0.0140                 0.0175
 IR Inten    --      8.5625                 0.7189                 0.0179

                      4                      5                      6
                      A                      A                      A
 Frequencies --    148.4531               237.0870               311.5969
 Red. masses --      4.9359                 5.9079                 4.5066
 Frc consts  --      0.0641                 0.1957                 0.2578
 IR Inten    --      4.1333                 3.7681                21.4580

                      7                      8                      9
                      A                      A                      A
 Frequencies --    398.6724               481.4029               622.7116
 Red. masses --      6.0654                 9.3581                 6.0072
 Frc consts  --      0.5680                 1.2778                 1.3724
 IR Inten    --      0.0630                 2.4900                10.7043

                     10                     11                     12
                      A                      A                      A
 Frequencies --    643.1375               765.2963               814.8450
 Red. masses --      6.3410                 5.6741                 5.6105
 Frc consts  --      1.5453                 1.9580                 2.1948
 IR Inten    --      0.8091                18.5981                13.2351

                     13                     14                     15
                      A                      A                      A
 Frequencies --    843.0571               912.9663               933.6053
 Red. masses --      1.3125                 1.3369                 5.7189
 Frc consts  --      0.5496                 0.6565                 2.9369
 IR Inten    --     24.9727                 1.5512                16.8047

                     16                     17                     18
                      A                      A                      A
 Frequencies --    947.7294               966.1008              1033.9748
 Red. masses --     10.5938                 7.3128                 4.4471
 Frc consts  --      5.6062                 4.0214                 2.8012
 IR Inten    --     13.3414                14.4134                40.3733

                     19                     20                     21
                      A                      A                      A
 Frequencies --   1053.8117              1176.0868              1184.4189
 Red. masses --      1.5595                 2.4683                 1.2721
 Frc consts  --      1.0204                 2.0115                 1.0514
 IR Inten    --      1.2672                58.6860                 0.9378

                     22                     23                     24
                      A                      A                      A
 Frequencies --   1223.2464              1251.1127              1324.6529
 Red. masses --      1.5077                 2.4132                 8.2108
 Frc consts  --      1.3292                 2.2256                 8.4886
 IR Inten    --     19.8232                48.0791               485.6662

                     25                     26                     27
                      A                      A                      A
 Frequencies --   1379.3811              1488.0019              1512.1580
 Red. masses --      3.9192                 1.3544                 3.3252
 Frc consts  --      4.3935                 1.7668                 4.4798
 IR Inten    --     34.5234                 6.3982                18.5606

                     28                     29                     30
                      A                      A                      A
 Frequencies --   1512.9766              1522.4491              1640.3865
 Red. masses --      1.0478                 1.0861                 6.9404
 Frc consts  --      1.4131                 1.4832                11.0034
 IR Inten    --      7.1576                 5.6825                17.3125

                     31                     32                     33
                      A                      A                      A
 Frequencies --   1808.3464              3079.0547              3155.1819
 Red. masses --     11.7664                 1.0298                 1.1079
 Frc consts  --     22.6704                 5.7522                 6.4982
 IR Inten    --    216.5688                27.3694                18.1992

                     34                     35                     36
                      A                      A                      A
 Frequencies --   3192.3108              3266.3206              3309.9891
 Red. masses --      1.1070                 1.0954                 1.1006
 Frc consts  --      6.6469                 6.8853                 7.1045
 IR Inten    --     13.3041                 2.1241                 1.6025

 - Thermochemistry -
 -------------------
 Temperature   298.150 Kelvin.  Pressure   1.00000 Atm.
 Atom     1 has atomic number  6 and mass  12.00000

 Molecular mass:   127.02694 amu.
 Principal axes and moments of inertia in atomic units:
                           1         2         3
     Eigenvalues --   390.279531673.705592052.56216
           X            0.99955  -0.02992   0.00000
           Y            0.02992   0.99955   0.00000
           Z           -0.00000  -0.00000   1.00000
 This molecule is an asymmetric top.
 Rotational symmetry number  1.
 Rotational temperatures (Kelvin)      0.22193     0.05175     0.04220
 Rotational constants (GHZ):           4.62423     1.07829     0.87926
 Zero-point vibrational energy     265918.9 (Joules/Mol)
                                   63.55614 (Kcal/Mol)
 Warning -- explicit consideration of   8 degrees of freedom as
           vibrations may cause significant error
 Vibrational temperatures:     97.99   164.94   194.09   213.59   341.12
          (Kelvin)            448.32   573.60   692.63   895.94   925.33
                             1101.09  1172.38  1212.97  1313.55  1343.25
                             1363.57  1390.00  1487.66  1516.20  1692.13
                             1704.11  1759.98  1800.07  1905.88  1984.62
                             2140.90  2175.66  2176.84  2190.46  2360.15
                             2601.81  4430.07  4539.60  4593.02  4699.51
                             4762.34

 Zero-point correction=                           0.101283 (Hartree/Particle)
 Thermal correction to Energy=                    0.109266
 Thermal correction to Enthalpy=                  0.110210
 Thermal correction to Gibbs Free Energy=         0.067816
 Sum of electronic and zero-point Energies=           -473.808456
 Sum of electronic and thermal Energies=              -473.800473
 Sum of electronic and thermal Enthalpies=            -473.799529
 Sum of electronic and thermal Free Energies=         -473.841924

                     E (Thermal)             CV                S
                      KCal/Mol        Cal/Mol-Kelvin    Cal/Mol-Kelvin
 Total                   68.566             27.602             89.227
 Electronic               0.000              0.000              0.000
 Translational            0.889              2.981             40.431
 Rotational               0.889              2.981             28.685
 Vibrational             66.788             21.641             20.111
 Vibration     1          0.598              1.969              4.207
 Vibration     2          0.608              1.937              3.189
 Vibration     3          0.613              1.918              2.875
 Vibration     4          0.618              1.904              2.692
 Vibration     5          0.656              1.784              1.825
 Vibration     6          0.700              1.652              1.354
 Vibration     7          0.765              1.473              0.968
 Vibration     8          0.838              1.291              0.706

 Optimization completed.
    -- Stationary point found.
 Normal termination of Gaussian 16 at Mon Aug 27 11:40:08 2018.
 Gaussian 16:  ES64L-G16RevA.03 25-Dec-2016

 ----------------------------------------------------------------------
 # TD(NStates=10, Root=1) b3lyp/6-31G* volume pop=NPA density=current G
 eom=AllCheck Guess=Read
 ----------------------------------------------------------------------

 Structure from the checkpoint file:  "science_add_143.chk"
 -------------------
 Title Card Required
 -------------------
 Charge =  0 Multiplicity = 1

                         Standard orientation:
 ---------------------------------------------------------------------
 Center     Atomic      Atomic             Coordinates (Angstroms)
 Number     Number       Type             X           Y           Z
 ---------------------------------------------------------------------
      1          6           0       -0.522121    0.181558    0.000036
      2          6           0       -1.547887    1.082224    0.000021
      3          1           0       -1.474044    2.158470    0.000025
      4          6           0       -2.702292    0.258090   -0.000153
      5          1           0       -3.745018    0.548983   -0.000266
      6          7           0       -2.399834   -1.022735    0.000044
      7          8           0       -1.011276   -1.078013    0.000082
      8          6           0        0.938256    0.418302    0.000069
      9          8           0        1.416951    1.533872    0.000040
     10          8           0        1.638430   -0.725537   -0.000010
     11          6           0        3.069179   -0.567617   -0.000084
     12          1           0        3.470134   -1.580710   -0.000577
     13          1           0        3.392140   -0.023176    0.890916
     14          1           0        3.391975   -0.022348   -0.890633
 ---------------------------------------------------------------------

 SCF Done:  E(RB3LYP) =  -473.909739424     A.U. after    1 cycles

 Excitation energies and oscillator strengths:

 Excited State   1:      Singlet-A      4.7401 eV  261.56 nm  f=0.0000  <S**2>=0.000
      32 -> 34         0.69671
 This state for optimization and/or second-order correction.
 Total Energy, E(TD-HF/TD-DFT) =  -473.735543784
 Copying the excited state density for this state as the 1-particle RhoCI density.

 Excited State   2:      Singlet-A      5.6190 eV  220.65 nm  f=0.2981  <S**2>=0.000
      33 -> 34         0.69465

 Excited State   3:      Singlet-A      5.8279 eV  212.74 nm  f=0.0049  <S**2>=0.000
      29 -> 34         0.69470

 Excited State   4:      Singlet-A      6.1023 eV  203.18 nm  f=0.0224  <S**2>=0.000
      31 -> 34         0.66349
      33 -> 35         0.21403

 Excited State   5:      Singlet-A      6.3625 eV  194.87 nm  f=0.0520  <S**2>=0.000
      30 -> 34         0.67688
      31 -> 34        -0.10986

 Excited State   6:      Singlet-A      7.2119 eV  171.92 nm  f=0.0000  <S**2>=0.000
      28 -> 34         0.68640
      32 -> 35         0.11663

 Excited State   7:      Singlet-A      7.4136 eV  167.24 nm  f=0.0011  <S**2>=0.000
      28 -> 34        -0.12650
      29 -> 34        -0.10720
      29 -> 35        -0.10668
      32 -> 35         0.66005

 Excited State   8:      Singlet-A      7.6870 eV  161.29 nm  f=0.0637  <S**2>=0.000
      26 -> 34         0.11232
      31 -> 34        -0.17564
      31 -> 35        -0.13387
      33 -> 35         0.63475

 Excited State   9:      Singlet-A      7.7861 eV  159.24 nm  f=0.0001  <S**2>=0.000
      27 -> 34         0.69410

 Excited State  10:      Singlet-A      8.0636 eV  153.76 nm  f=0.0043  <S**2>=0.000
      29 -> 35         0.67054
      32 -> 35         0.10115
      32 -> 37        -0.14434

 The electronic state is 1-A.
 Alpha  occ. eigenvalues --  -19.25168 -19.20977 -19.15294 -14.39899 -10.33926
 Alpha  occ. eigenvalues --  -10.27468 -10.25194 -10.24030 -10.21857  -1.15970
 Alpha  occ. eigenvalues --   -1.11868  -1.03176  -0.88237  -0.81904  -0.74854
 Alpha  occ. eigenvalues --   -0.65205  -0.63005  -0.58177  -0.55765  -0.50270
 Alpha  occ. eigenvalues --   -0.48614  -0.48304  -0.47623  -0.45089  -0.42297
 Alpha  occ. eigenvalues --   -0.40965  -0.40404  -0.37263  -0.32443  -0.31869
 Alpha  occ. eigenvalues --   -0.31262  -0.29177  -0.27913
 Alpha virt. eigenvalues --   -0.06536   0.02027   0.08804   0.09081   0.10398
 Alpha virt. eigenvalues --    0.11768   0.12866   0.14651   0.15149   0.16483
 Alpha virt. eigenvalues --    0.19079   0.23765   0.26334   0.31494   0.35859

 Mulliken charges:
               1
     1  C    0.331422
     2  C   -0.273495
     3  H    0.144661
     4  C    0.042844
     5  H    0.155736
     6  N   -0.162584
     7  O   -0.406979
     8  C    0.569390
     9  O   -0.303297
    10  O   -0.413356
    11  C   -0.242960
    12  H    0.195742
    13  H    0.181437
    14  H    0.181439
 Sum of Mulliken charges =  -0.00000

 Dipole moment (field-independent basis, Debye):
    X=              4.0882    Y=              1.9586    Z=             -0.0004  Tot=              4.5332
 Quadrupole moment (field-independent basis, Debye-Ang):
   XX=            -38.9453   YY=            -53.5693   ZZ=            -51.2840
   XY=             -8.2169   XZ=              0.0004   YZ=              0.0002

 Summary of Natural Population Analysis:

                                       Natural Population
                Natural  -----------------------------------------------
    Atom  No    Charge         Core      Valence    Rydberg      Total
 -----------------------------------------------------------------------
      C    1    0.14405      1.99880     3.83139    0.02576     5.85595
      C    2   -0.38294      1.99895     4.37099    0.01300     6.38294
      H    3    0.24986      0.00000     0.74986    0.00028     0.75014
      C    4   -0.05626      1.99932     4.03362    0.02332     6.05626
      H    5    0.24006      0.00000     0.75949    0.00044     0.75994
      N    6   -0.13101      1.99942     5.10734    0.02425     7.13101
      O    7   -0.32656      1.99973     6.31214    0.01469     8.32656
      C    8    0.63944      1.99932     3.32409    0.03715     5.36056
      O    9   -0.26105      1.99982     6.24228    0.01896     8.26105
      O   10   -0.46417      1.99977     6.45298    0.01143     8.46417
      C   11   -0.32897      1.99942     4.31565    0.01391     6.32897
      H   12    0.23993      0.00000     0.75971    0.00036     0.76007
      H   13    0.21881      0.00000     0.77991    0.00128     0.78119
      H   14    0.21881      0.00000     0.77991    0.00128     0.78119
 =======================================================================
   * Total *   -0.00001     17.99456    47.81935    0.18610    66.00001

 Normal termination of Gaussian 16 at Mon Aug 27 11:42:50 2018.
