 Gaussian 16, Revision A.03,

 -------------------------
 # opt b3lyp/6-31G* scf=qc
 -------------------------

 -------------------
 Title Card Required
 -------------------
 Symbolic Z-matrix:
 Charge =  0 Multiplicity = 1

 SCF Done:  E(RB3LYP) =  -842.104333789     a.u. after    8 cycles
 SCF Done:  E(RB3LYP) =  -842.108255319     a.u. after   13 cycles
 SCF Done:  E(RB3LYP) =  -842.109845979     a.u. after   13 cycles
 SCF Done:  E(RB3LYP) =  -842.110888666     a.u. after   13 cycles
 SCF Done:  E(RB3LYP) =  -842.111627626     a.u. after   13 cycles
 SCF Done:  E(RB3LYP) =  -842.111931458     a.u. after   13 cycles
 SCF Done:  E(RB3LYP) =  -842.112541004     a.u. after   15 cycles
 SCF Done:  E(RB3LYP) =  -842.113267236     a.u. after   15 cycles
 SCF Done:  E(RB3LYP) =  -842.113589400     a.u. after   13 cycles
 SCF Done:  E(RB3LYP) =  -842.113088337     a.u. after   18 cycles
 SCF Done:  E(RB3LYP) =  -842.113867330     a.u. after    7 cycles
 SCF Done:  E(RB3LYP) =  -842.113867713     a.u. after    7 cycles
 SCF Done:  E(RB3LYP) =  -842.113870867     a.u. after    6 cycles
 SCF Done:  E(RB3LYP) =  -842.113870878     a.u. after    2 cycles
 SCF Done:  E(RB3LYP) =  -842.113872342     a.u. after    5 cycles
 SCF Done:  E(RB3LYP) =  -842.113872610     a.u. after    2 cycles
 SCF Done:  E(RB3LYP) =  -842.113872803     a.u. after    4 cycles
 SCF Done:  E(RB3LYP) =  -842.113872911     a.u. after    2 cycles
 Optimization completed.
    -- Stationary point found.
 Normal termination of Gaussian 16 at Mon Aug 27 13:02:25 2018.

 ----------------------------------------------------------------------
 # freq b3lyp/6-31G* volume NMR pop=NPA density=current Geom=AllCheck G
 uess=Read
 ----------------------------------------------------------------------

 Structure from the checkpoint file:  "science_add_182.chk"
 -------------------
 Title Card Required
 -------------------
 Charge =  0 Multiplicity = 1

 SCF Done:  E(RB3LYP) =  -842.113872911     A.U. after    1 cycles

      1  C    Isotropic =    28.4378   Anisotropy =   101.2140

      2  C    Isotropic =   118.8770   Anisotropy =    59.0310

      3  H    Isotropic =    27.5658   Anisotropy =     5.2956

      4  C    Isotropic =    45.3912   Anisotropy =   129.7137

      5  H    Isotropic =    24.7256   Anisotropy =     2.2620

      6  N    Isotropic =   -99.6102   Anisotropy =   183.2162

      7  O    Isotropic =    -2.9061   Anisotropy =   180.7891

      8  N    Isotropic =   169.0816   Anisotropy =    49.0346

      9  C    Isotropic =   137.9441   Anisotropy =    35.9123

     10  C    Isotropic =    58.6558   Anisotropy =   169.7409

     11  C    Isotropic =    69.3240   Anisotropy =   166.7475

     12  C    Isotropic =    67.2074   Anisotropy =   166.8630

     13  C    Isotropic =    68.6500   Anisotropy =   166.9366

     14  C    Isotropic =    68.2145   Anisotropy =   164.5620

     15  C    Isotropic =    68.0939   Anisotropy =   152.8950

     16  C    Isotropic =   140.1821   Anisotropy =    25.0768

     17  C    Isotropic =    59.2813   Anisotropy =   174.3997

     18  C    Isotropic =    66.1577   Anisotropy =   164.9580

     19  C    Isotropic =    66.9298   Anisotropy =   167.2641

     20  C    Isotropic =    68.5486   Anisotropy =   167.6692

     21  C    Isotropic =    69.2189   Anisotropy =   162.6976

     22  C    Isotropic =    66.8870   Anisotropy =   149.0479

     23  H    Isotropic =    28.0337   Anisotropy =     4.0192

     24  H    Isotropic =    28.3472   Anisotropy =     5.5628

     25  H    Isotropic =    24.6648   Anisotropy =    10.2122

     26  H    Isotropic =    24.8547   Anisotropy =     5.6349

     27  H    Isotropic =    24.9602   Anisotropy =     3.9033

     28  H    Isotropic =    24.9440   Anisotropy =     4.6927

     29  H    Isotropic =    25.1723   Anisotropy =     7.5643

     30  H    Isotropic =    27.0425   Anisotropy =     4.6846

     31  H    Isotropic =    28.7599   Anisotropy =     3.8097

     32  H    Isotropic =    24.3631   Anisotropy =     9.7152

     33  H    Isotropic =    24.8535   Anisotropy =     5.4897

     34  H    Isotropic =    24.9769   Anisotropy =     4.0333

     35  H    Isotropic =    25.0296   Anisotropy =     4.9874

     36  H    Isotropic =    25.2741   Anisotropy =     7.6100

  Exact polarizability: 210.295   8.989 230.152  21.598  -8.063 107.548
 Approx polarizability: 304.736  22.115 363.897  34.862 -22.131 185.009

                      1                      2                      3
                      A                      A                      A
 Frequencies --     18.9055                22.5799                24.0457
 Red. masses --      4.8560                 4.2133                 4.3393
 Frc consts  --      0.0010                 0.0013                 0.0015
 IR Inten    --      0.1008                 0.0738                 0.0559

                      4                      5                      6
                      A                      A                      A
 Frequencies --     36.9657                49.8597                64.2597
 Red. masses --      4.9846                 4.3618                 5.3967
 Frc consts  --      0.0040                 0.0064                 0.0131
 IR Inten    --      0.1095                 1.4334                 4.8518

                      7                      8                      9
                      A                      A                      A
 Frequencies --    109.6612               169.2557               193.0961
 Red. masses --      5.0091                 5.1696                 4.4420
 Frc consts  --      0.0355                 0.0873                 0.0976
 IR Inten    --      0.8044                 2.9922                 2.5169

                     10                     11                     12
                      A                      A                      A
 Frequencies --    195.7786               256.2342               278.5047
 Red. masses --      4.9224                 4.8515                 5.7025
 Frc consts  --      0.1112                 0.1877                 0.2606
 IR Inten    --      2.4449                 1.8264                 0.3263

                     13                     14                     15
                      A                      A                      A
 Frequencies --    321.9333               353.7545               393.3674
 Red. masses --      3.0592                 5.4821                 1.7750
 Frc consts  --      0.1868                 0.4042                 0.1618
 IR Inten    --      0.6938                 8.6531                 0.8401

                     16                     17                     18
                      A                      A                      A
 Frequencies --    416.7510               417.9524               463.3155
 Red. masses --      2.9835                 2.9952                 2.9291
 Frc consts  --      0.3053                 0.3083                 0.3705
 IR Inten    --      0.1993                 0.1342                 5.0816

                     19                     20                     21
                      A                      A                      A
 Frequencies --    471.5450               550.3004               572.2439
 Red. masses --      3.6217                 4.4525                 5.3193
 Frc consts  --      0.4745                 0.7944                 1.0263
 IR Inten    --      0.1477                16.5395                 1.0064

                     22                     23                     24
                      A                      A                      A
 Frequencies --    611.3249               628.0474               633.8609
 Red. masses --      6.6408                 4.4100                 6.0056
 Frc consts  --      1.4622                 1.0249                 1.4217
 IR Inten    --      3.6045                19.7614                 0.3952

                     25                     26                     27
                      A                      A                      A
 Frequencies --    635.9719               674.7175               700.7936
 Red. masses --      5.9560                 4.3199                 8.6417
 Frc consts  --      1.4193                 1.1587                 2.5005
 IR Inten    --      1.0678                 1.2690                16.0918

                     28                     29                     30
                      A                      A                      A
 Frequencies --    703.9913               715.1814               718.6026
 Red. masses --      1.1909                 2.0667                 1.8215
 Frc consts  --      0.3477                 0.6228                 0.5542
 IR Inten    --     34.3603                13.2498                37.2785

                     31                     32                     33
                      A                      A                      A
 Frequencies --    753.6913               770.9677               816.2069
 Red. masses --      1.5983                 2.0445                 4.0457
 Frc consts  --      0.5349                 0.7160                 1.5880
 IR Inten    --     10.9817                27.1569                 2.1353

                     34                     35                     36
                      A                      A                      A
 Frequencies --    827.5210               863.2888               867.2187
 Red. masses --      3.7469                 1.2562                 1.2777
 Frc consts  --      1.5118                 0.5516                 0.5662
 IR Inten    --      8.1484                 0.2141                 0.4447

                     37                     38                     39
                      A                      A                      A
 Frequencies --    868.4627               910.4611               912.5053
 Red. masses --      7.2779                 1.2922                 1.6864
 Frc consts  --      3.2341                 0.6311                 0.8273
 IR Inten    --      7.7087                 4.3939                12.0413

                     40                     41                     42
                      A                      A                      A
 Frequencies --    925.2243               928.2832               943.3836
 Red. masses --      1.6558                 4.8750                 2.2627
 Frc consts  --      0.8351                 2.4750                 1.1864
 IR Inten    --      5.4488                15.2807                16.7377

                     43                     44                     45
                      A                      A                      A
 Frequencies --    966.9702               970.2133               974.6661
 Red. masses --      1.8445                 1.3591                 1.3537
 Frc consts  --      1.0162                 0.7538                 0.7577
 IR Inten    --     12.2596                 0.1881                 0.6291

                     46                     47                     48
                      A                      A                      A
 Frequencies --    994.3984               999.9657              1003.1451
 Red. masses --      1.8728                 1.3604                 1.4596
 Frc consts  --      1.0911                 0.8015                 0.8654
 IR Inten    --      9.5661                 4.8828                 3.7829

                     49                     50                     51
                      A                      A                      A
 Frequencies --   1017.9958              1018.6332              1058.3063
 Red. masses --      6.1649                 6.2297                 2.2795
 Frc consts  --      3.7642                 3.8085                 1.5043
 IR Inten    --      1.1849                 0.6343                 2.9345

                     52                     53                     54
                      A                      A                      A
 Frequencies --   1058.8816              1072.4139              1090.8978
 Red. masses --      2.2734                 1.5759                 1.9639
 Frc consts  --      1.5018                 1.0678                 1.3770
 IR Inten    --      3.3177                 5.3694                17.9006

                     55                     56                     57
                      A                      A                      A
 Frequencies --   1116.9790              1125.2442              1175.2932
 Red. masses --      1.5609                 1.6425                 3.4943
 Frc consts  --      1.1474                 1.2253                 2.8439
 IR Inten    --      4.2257                 2.3890                42.7008

                     58                     59                     60
                      A                      A                      A
 Frequencies --   1193.5748              1193.6187              1214.4277
 Red. masses --      1.1044                 1.1038                 1.1465
 Frc consts  --      0.9270                 0.9265                 0.9963
 IR Inten    --      0.0358                 0.5463                 2.9282

                     61                     62                     63
                      A                      A                      A
 Frequencies --   1216.5312              1224.3672              1228.0760
 Red. masses --      1.1513                 2.8771                 2.9172
 Frc consts  --      1.0039                 2.5411                 2.5922
 IR Inten    --      0.7862                 3.6706                17.8326

                     64                     65                     66
                      A                      A                      A
 Frequencies --   1238.2376              1272.6563              1303.6722
 Red. masses --      1.4420                 1.8394                 1.6415
 Frc consts  --      1.3026                 1.7553                 1.6437
 IR Inten    --     22.6713                18.9357                18.8898

                     67                     68                     69
                      A                      A                      A
 Frequencies --   1343.2097              1356.0009              1367.5174
 Red. masses --      2.3081                 3.2171                 1.9241
 Frc consts  --      2.4536                 3.4852                 2.1200
 IR Inten    --      7.8818                 8.9822                 4.1015

                     70                     71                     72
                      A                      A                      A
 Frequencies --   1369.5312              1398.1419              1401.8565
 Red. masses --      1.6551                 3.2704                 1.3428
 Frc consts  --      1.8290                 3.7666                 1.5548
 IR Inten    --      5.6363                 6.9976                33.7791

                     73                     74                     75
                      A                      A                      A
 Frequencies --   1410.2332              1428.8697              1501.2581
 Red. masses --      1.5089                 2.0383                 2.0561
 Frc consts  --      1.7680                 2.4519                 2.7303
 IR Inten    --     91.5077                 0.4345                34.6551

                     76                     77                     78
                      A                      A                      A
 Frequencies --   1502.1240              1512.1674              1515.7164
 Red. masses --      2.0218                 1.1394                 1.1462
 Frc consts  --      2.6879                 1.5350                 1.5514
 IR Inten    --     20.1809                15.1756                 6.5760

                     79                     80                     81
                      A                      A                      A
 Frequencies --   1546.6411              1547.2830              1580.5780
 Red. masses --      2.1555                 2.1413                 5.0786
 Frc consts  --      3.0380                 3.0204                 7.4753
 IR Inten    --      5.3143                 9.3836               200.8810

                     82                     83                     84
                      A                      A                      A
 Frequencies --   1644.7708              1645.3722              1658.4750
 Red. masses --      5.5762                 5.4981                 6.4334
 Frc consts  --      8.8879                 8.7698                10.4258
 IR Inten    --     24.2112                 6.8307               443.1937

                     85                     86                     87
                      A                      A                      A
 Frequencies --   1664.8423              1665.0815              3046.9555
 Red. masses --      5.4891                 5.4692                 1.0649
 Frc consts  --      8.9638                 8.9339                 5.8250
 IR Inten    --     17.1513                 2.3913                25.0976

                     88                     89                     90
                      A                      A                      A
 Frequencies --   3061.5789              3097.9078              3140.1371
 Red. masses --      1.0686                 1.0989                 1.0965
 Frc consts  --      5.9015                 6.2135                 6.3701
 IR Inten    --     22.5828                 8.1992                 1.9900

                     91                     92                     93
                      A                      A                      A
 Frequencies --   3171.8533              3172.8868              3183.5604
 Red. masses --      1.0871                 1.0870                 1.0865
 Frc consts  --      6.4438                 6.4477                 6.4881
 IR Inten    --     13.8776                 4.6853                 1.0433

                     94                     95                     96
                      A                      A                      A
 Frequencies --   3183.7052              3192.8881              3193.2008
 Red. masses --      1.0864                 1.0903                 1.0906
 Frc consts  --      6.4877                 6.5487                 6.5522
 IR Inten    --      0.0488                16.0103                18.2463

                     97                     98                     99
                      A                      A                      A
 Frequencies --   3201.4604              3202.6095              3210.2409
 Red. masses --      1.0937                 1.0938                 1.0978
 Frc consts  --      6.6046                 6.6099                 6.6655
 IR Inten    --     26.9015                24.4235                36.0504

                    100                    101                    102
                      A                      A                      A
 Frequencies --   3210.3420              3244.2244              3299.4383
 Red. masses --      1.0977                 1.0942                 1.0986
 Frc consts  --      6.6657                 6.7855                 7.0462
 IR Inten    --      3.1800                11.8687                 2.7506

 - Thermochemistry -
 -------------------
 Temperature   298.150 Kelvin.  Pressure   1.00000 Atm.
 Atom     1 has atomic number  6 and mass  12.00000

 Molecular mass:   264.12626 amu.
 Principal axes and moments of inertia in atomic units:
                           1         2         3
     Eigenvalues --  4581.461176818.04596**********
           X            0.99991  -0.01282   0.00406
           Y            0.01281   0.99991   0.00302
           Z           -0.00410  -0.00297   0.99999
 This molecule is an asymmetric top.
 Rotational symmetry number  1.
 Warning -- assumption of classical behavior for rotation
           may cause significant error
 Rotational temperatures (Kelvin)      0.01891     0.01270     0.00811
 Rotational constants (GHZ):           0.39392     0.26470     0.16900
 Zero-point vibrational energy     773935.1 (Joules/Mol)
                                  184.97492 (Kcal/Mol)
 Warning -- explicit consideration of  22 degrees of freedom as
           vibrations may cause significant error
 Vibrational temperatures:     27.20    32.49    34.60    53.19    71.74
          (Kelvin)             92.46   157.78   243.52   277.82   281.68
                              368.66   400.71   463.19   508.97   565.97
                              599.61   601.34   666.61   678.45   791.76
                              823.33   879.56   903.62   911.98   915.02
                              970.77  1008.29  1012.89  1028.99  1033.91
                             1084.39  1109.25  1174.34  1190.62  1242.08
                             1247.73  1249.52  1309.95  1312.89  1331.19
                             1335.59  1357.32  1391.25  1395.92  1402.33
                             1430.72  1438.73  1443.30  1464.67  1465.59
                             1522.67  1523.49  1542.96  1569.56  1607.08
                             1618.98  1690.98  1717.29  1717.35  1747.29
                             1750.32  1761.59  1766.93  1781.55  1831.07
                             1875.69  1932.58  1950.98  1967.55  1970.45
                             2011.61  2016.96  2029.01  2055.82  2159.98
                             2161.22  2175.67  2180.78  2225.27  2226.20
                             2274.10  2366.46  2367.32  2386.18  2395.34
                             2395.68  4383.89  4404.93  4457.20  4517.96
                             4563.59  4565.08  4580.43  4580.64  4593.85
                             4594.30  4606.19  4607.84  4618.82  4618.97
                             4667.72  4747.16

 Zero-point correction=                           0.294776 (Hartree/Particle)
 Thermal correction to Energy=                    0.311323
 Thermal correction to Enthalpy=                  0.312267
 Thermal correction to Gibbs Free Energy=         0.246341
 Sum of electronic and zero-point Energies=           -841.819097
 Sum of electronic and thermal Energies=              -841.802550
 Sum of electronic and thermal Enthalpies=            -841.801606
 Sum of electronic and thermal Free Energies=         -841.867532

                     E (Thermal)             CV                S
                      KCal/Mol        Cal/Mol-Kelvin    Cal/Mol-Kelvin
 Total                  195.358             64.237            138.754
 Electronic               0.000              0.000              0.000
 Translational            0.889              2.981             42.613
 Rotational               0.889              2.981             34.166
 Vibrational            193.581             58.275             61.974
 Vibration     1          0.593              1.986              6.746
 Vibration     2          0.593              1.985              6.393
 Vibration     3          0.593              1.985              6.268
 Vibration     4          0.594              1.982              5.415
 Vibration     5          0.595              1.978              4.823
 Vibration     6          0.597              1.971              4.322
 Vibration     7          0.606              1.941              3.275
 Vibration     8          0.625              1.880              2.444
 Vibration     9          0.635              1.849              2.198
 Vibration    10          0.636              1.846              2.172
 Vibration    11          0.666              1.752              1.687
 Vibration    12          0.679              1.713              1.543
 Vibration    13          0.707              1.631              1.300
 Vibration    14          0.730              1.568              1.149
 Vibration    15          0.761              1.484              0.987
 Vibration    16          0.780              1.434              0.903
 Vibration    17          0.781              1.431              0.899
 Vibration    18          0.821              1.331              0.757
 Vibration    19          0.828              1.313              0.733
 Vibration    20          0.906              1.139              0.544
 Vibration    21          0.928              1.091              0.500
 Vibration    22          0.970              1.008              0.431

 Optimization completed.
    -- Stationary point found.
 Normal termination of Gaussian 16 at Mon Aug 27 13:12:32 2018.
 Gaussian 16:  ES64L-G16RevA.03 25-Dec-2016

 ----------------------------------------------------------------------
 # TD(NStates=10, Root=1) b3lyp/6-31G* volume pop=NPA density=current G
 eom=AllCheck Guess=Read
 ----------------------------------------------------------------------

 Structure from the checkpoint file:  "science_add_183.chk"
 -------------------
 Title Card Required
 -------------------
 Charge =  0 Multiplicity = 1

                         Standard orientation:
 ---------------------------------------------------------------------
 Center     Atomic      Atomic             Coordinates (Angstroms)
 Number     Number       Type             X           Y           Z
 ---------------------------------------------------------------------
      1          6           0        0.177252    1.972018    0.114673
      2          6           0       -0.414994    2.929816    0.915602
      3          1           0       -1.199553    2.808228    1.644944
      4          6           0        0.227675    4.125071    0.514126
      5          1           0        0.057566    5.128115    0.888738
      6          7           0        1.120926    3.961464   -0.432587
      7          8           0        1.091961    2.554944   -0.688899
      8          7           0        0.016953    0.625610   -0.002215
      9          6           0       -0.772980   -0.111710    0.976900
     10          6           0       -2.119901   -0.596962    0.460389
     11          6           0       -2.938193    0.231597   -0.318894
     12          6           0       -4.185636   -0.213981   -0.755330
     13          6           0       -4.633768   -1.493441   -0.417535
     14          6           0       -3.824635   -2.325875    0.356135
     15          6           0       -2.573814   -1.879446    0.787549
     16          6           0        0.698621   -0.145842   -1.049759
     17          6           0        1.904944   -0.923006   -0.549826
     18          6           0        3.063357   -0.250948   -0.131953
     19          6           0        4.166879   -0.965994    0.329742
     20          6           0        4.130289   -2.362776    0.380254
     21          6           0        2.984132   -3.039750   -0.034629
     22          6           0        1.878200   -2.320885   -0.496258
     23          1           0       -0.907463    0.531904    1.852600
     24          1           0       -0.181935   -0.971087    1.318879
     25          1           0       -2.593815    1.226968   -0.586641
     26          1           0       -4.809332    0.438948   -1.360255
     27          1           0       -5.605528   -1.839565   -0.759172
     28          1           0       -4.161276   -3.325623    0.617673
     29          1           0       -1.943284   -2.534959    1.384987
     30          1           0        0.990124    0.552911   -1.836391
     31          1           0       -0.035199   -0.837290   -1.480928
     32          1           0        3.096412    0.834460   -0.175962
     33          1           0        5.060070   -0.433663    0.646088
     34          1           0        4.992877   -2.918221    0.738740
     35          1           0        2.947905   -4.125510   -0.000682
     36          1           0        0.987014   -2.852011   -0.824927
 ---------------------------------------------------------------------

 SCF Done:  E(RB3LYP) =  -842.113872911     A.U. after    1 cycles

 Excitation energies and oscillator strengths:

 Excited State   1:      Singlet-A      4.4454 eV  278.91 nm  f=0.0066  <S**2>=0.000
      70 -> 71         0.70346
 This state for optimization and/or second-order correction.
 Total Energy, E(TD-HF/TD-DFT) =  -841.950508551
 Copying the excited state density for this state as the 1-particle RhoCI density.

 Excited State   2:      Singlet-A      4.5512 eV  272.42 nm  f=0.0136  <S**2>=0.000
      70 -> 72         0.61572
      70 -> 73        -0.34020

 Excited State   3:      Singlet-A      4.6010 eV  269.47 nm  f=0.0133  <S**2>=0.000
      70 -> 72         0.33723
      70 -> 73         0.61642

 Excited State   4:      Singlet-A      4.7553 eV  260.73 nm  f=0.0278  <S**2>=0.000
      70 -> 74         0.70197

 Excited State   5:      Singlet-A      5.4491 eV  227.53 nm  f=0.0012  <S**2>=0.000
      66 -> 71         0.37764
      66 -> 72        -0.24547
      67 -> 72        -0.16023
      67 -> 73        -0.33869
      67 -> 74        -0.11308
      68 -> 71        -0.19153
      68 -> 72        -0.19257
      69 -> 73         0.13119
      69 -> 74        -0.14613

 Excited State   6:      Singlet-A      5.4542 eV  227.32 nm  f=0.0072  <S**2>=0.000
      66 -> 71         0.17333
      67 -> 71        -0.16093
      67 -> 72        -0.24306
      68 -> 71         0.14800
      68 -> 72         0.21972
      68 -> 73        -0.32360
      69 -> 74         0.42808

 Excited State   7:      Singlet-A      5.5011 eV  225.38 nm  f=0.2735  <S**2>=0.000
      70 -> 75         0.68533

 Excited State   8:      Singlet-A      5.9943 eV  206.84 nm  f=0.0136  <S**2>=0.000
      69 -> 71         0.66125
      69 -> 72        -0.19259

 Excited State   9:      Singlet-A      6.1006 eV  203.23 nm  f=0.0176  <S**2>=0.000
      67 -> 71        -0.35632
      67 -> 73         0.10931
      68 -> 71         0.24751
      68 -> 72        -0.10795
      68 -> 73         0.20208
      68 -> 74        -0.13398
      69 -> 71         0.14548
      69 -> 72         0.42573

 Excited State  10:      Singlet-A      6.1089 eV  202.96 nm  f=0.0175  <S**2>=0.000
      66 -> 71         0.11173
      66 -> 72         0.10131
      66 -> 73         0.13083
      67 -> 71         0.25901
      67 -> 72         0.17570
      67 -> 73        -0.12821
      68 -> 71         0.42235
      68 -> 72        -0.12114
      68 -> 73        -0.11713
      69 -> 73         0.36008

 The electronic state is 1-A.
 Alpha  occ. eigenvalues --  -19.21735 -14.37243 -14.35906 -10.28623 -10.23655
 Alpha  occ. eigenvalues --  -10.23037 -10.21378 -10.20400 -10.19893 -10.19696
 Alpha  occ. eigenvalues --  -10.19644 -10.19609 -10.19529 -10.19420 -10.19360
 Alpha  occ. eigenvalues --  -10.19298 -10.19229 -10.19149 -10.18904 -10.17825
 Alpha  occ. eigenvalues --   -1.12153  -0.96402  -0.86187  -0.85653  -0.85027
 Alpha  occ. eigenvalues --   -0.78558  -0.78094  -0.75073  -0.74892  -0.74543
 Alpha  occ. eigenvalues --   -0.70652  -0.67713  -0.61472  -0.60825  -0.60556
 Alpha  occ. eigenvalues --   -0.59537  -0.58914  -0.56039  -0.54251  -0.52425
 Alpha  occ. eigenvalues --   -0.51101  -0.48866  -0.47191  -0.46468  -0.45922
 Alpha  occ. eigenvalues --   -0.45645  -0.45436  -0.44199  -0.42789  -0.42578
 Alpha  occ. eigenvalues --   -0.42142  -0.41868  -0.41119  -0.40712  -0.39274
 Alpha  occ. eigenvalues --   -0.37428  -0.36372  -0.36210  -0.35648  -0.34781
 Alpha  occ. eigenvalues --   -0.34715  -0.34087  -0.30594  -0.29374  -0.28588
 Alpha  occ. eigenvalues --   -0.25623  -0.25253  -0.25228  -0.24907  -0.19945
 Alpha virt. eigenvalues --   -0.01131  -0.00834  -0.00713  -0.00243   0.01756
 Alpha virt. eigenvalues --    0.07812   0.08174   0.09387   0.09741   0.11254
 Alpha virt. eigenvalues --    0.11818   0.12829   0.13137   0.13998   0.14905

 Mulliken charges:
               1
     1  C    0.690155
     2  C   -0.195912
     3  H    0.241917
     4  C    0.068271
     5  H    0.216611
     6  N   -0.077408
     7  O   -0.390021
     8  N   -0.351567
     9  C   -0.295302
    10  C    0.123647
    11  C   -0.255617
    12  C   -0.115199
    13  C   -0.183155
    14  C   -0.169542
    15  C   -0.188102
    16  C   -0.290376
    17  C    0.143853
    18  C   -0.192654
    19  C   -0.125152
    20  C   -0.135227
    21  C   -0.133848
    22  C   -0.182869
    23  H    0.140622
    24  H    0.193541
    25  H    0.037651
    26  H    0.084589
    27  H    0.076908
    28  H    0.080271
    29  H    0.076781
    30  H    0.200716
    31  H    0.232839
    32  H    0.127235
    33  H    0.130848
    34  H    0.130895
    35  H    0.135966
    36  H    0.148635
 Sum of Mulliken charges =  -0.00000

 Dipole moment (field-independent basis, Debye):
    X=              6.4554    Y=              6.4887    Z=              2.1090  Tot=              9.3927
 Quadrupole moment (field-independent basis, Debye-Ang):
   XX=           -144.3772   YY=            -96.6927   ZZ=           -116.2135
   XY=            -14.2381   XZ=              2.3453   YZ=              8.0658

 Summary of Natural Population Analysis:

                                       Natural Population
                Natural  -----------------------------------------------
    Atom  No    Charge         Core      Valence    Rydberg      Total
 -----------------------------------------------------------------------
      C    1    0.56986      1.99905     3.40531    0.02577     5.43014
      C    2   -0.24541      1.99896     4.23592    0.01053     6.24541
      H    3    0.29065      0.00000     0.70903    0.00031     0.70935
      C    4   -0.04141      1.99935     4.01879    0.02327     6.04141
      H    5    0.27052      0.00000     0.72931    0.00018     0.72948
      N    6   -0.02496      1.99949     5.00374    0.02174     7.02496
      O    7   -0.34157      1.99972     6.32882    0.01303     8.34157
      N    8   -0.23808      1.99931     5.22495    0.01382     7.23808
      C    9   -0.26673      1.99922     4.24923    0.01829     6.26673
      C   10   -0.21977      1.99898     4.20272    0.01807     6.21977
      C   11   -0.36603      1.99904     4.35034    0.01665     6.36603
      C   12   -0.20808      1.99910     4.19453    0.01444     6.20808
      C   13   -0.34284      1.99910     4.32620    0.01753     6.34284
      C   14   -0.31590      1.99910     4.29921    0.01759     6.31590
      C   15   -0.21824      1.99904     4.20618    0.01303     6.21824
      C   16   -0.28790      1.99920     4.26839    0.02030     6.28790
      C   17   -0.10259      1.99898     4.08802    0.01560     6.10259
      C   18   -0.24750      1.99902     4.23465    0.01383     6.24750
      C   19   -0.22278      1.99910     4.20967    0.01400     6.22278
      C   20   -0.24461      1.99910     4.23111    0.01440     6.24461
      C   21   -0.23953      1.99910     4.22566    0.01478     6.23953
      C   22   -0.21776      1.99902     4.20555    0.01318     6.21776
      H   23    0.21101      0.00000     0.78384    0.00515     0.78899
      H   24    0.27080      0.00000     0.72787    0.00134     0.72920
      H   25    0.18499      0.00000     0.81474    0.00027     0.81501
      H   26    0.21391      0.00000     0.78521    0.00088     0.78609
      H   27    0.21200      0.00000     0.78730    0.00070     0.78800
      H   28    0.21402      0.00000     0.78523    0.00075     0.78598
      H   29    0.20670      0.00000     0.79231    0.00100     0.79330
      H   30    0.26549      0.00000     0.73268    0.00183     0.73451
      H   31    0.29282      0.00000     0.70586    0.00132     0.70718
      H   32    0.23130      0.00000     0.76767    0.00103     0.76870
      H   33    0.23705      0.00000     0.76209    0.00086     0.76295
      H   34    0.23701      0.00000     0.76217    0.00082     0.76299
      H   35    0.24032      0.00000     0.75886    0.00082     0.75968
      H   36    0.24327      0.00000     0.75555    0.00118     0.75673
 =======================================================================
   * Total *    0.00000     39.98300    99.66871    0.34829   140.00000

 Normal termination of Gaussian 16 at Mon Aug 27 13:24:00 2018.
