 Gaussian 16, Revision A.03,

 -------------------------
 # opt b3lyp/6-31G* scf=qc
 -------------------------

 -------------------
 Title Card Required
 -------------------
 Symbolic Z-matrix:
 Charge =  0 Multiplicity = 1

 SCF Done:  E(RB3LYP) =  -842.095339758     a.u. after    9 cycles
 SCF Done:  E(RB3LYP) =  -842.102476499     a.u. after   13 cycles
 SCF Done:  E(RB3LYP) =  -842.104459269     a.u. after   13 cycles
 SCF Done:  E(RB3LYP) =  -842.105839919     a.u. after   15 cycles
 SCF Done:  E(RB3LYP) =  -842.107329828     a.u. after   15 cycles
 SCF Done:  E(RB3LYP) =  -842.108408162     a.u. after   15 cycles
 SCF Done:  E(RB3LYP) =  -842.108866844     a.u. after   13 cycles
 SCF Done:  E(RB3LYP) =  -842.108984540     a.u. after    9 cycles
 SCF Done:  E(RB3LYP) =  -842.109008002     a.u. after    7 cycles
 SCF Done:  E(RB3LYP) =  -842.109011445     a.u. after    3 cycles
 SCF Done:  E(RB3LYP) =  -842.109012669     a.u. after    2 cycles
 SCF Done:  E(RB3LYP) =  -842.109013159     a.u. after    2 cycles
 SCF Done:  E(RB3LYP) =  -842.109013438     a.u. after    2 cycles
 SCF Done:  E(RB3LYP) =  -842.109013588     a.u. after    2 cycles
 SCF Done:  E(RB3LYP) =  -842.109013638     a.u. after    2 cycles
 Optimization completed.
    -- Stationary point found.
 Normal termination of Gaussian 16 at Mon Aug 27 12:19:50 2018.

 ----------------------------------------------------------------------
 # freq b3lyp/6-31G* volume NMR pop=NPA density=current Geom=AllCheck G
 uess=Read
 ----------------------------------------------------------------------

 Structure from the checkpoint file:  "science_add_192.chk"
 -------------------
 Title Card Required
 -------------------
 Charge =  0 Multiplicity = 1

 SCF Done:  E(RB3LYP) =  -842.109013638     A.U. after    1 cycles

      1  C    Isotropic =    39.7112   Anisotropy =   114.1793

      2  H    Isotropic =    24.5901   Anisotropy =     2.1857

      3  C    Isotropic =    98.3055   Anisotropy =    89.1250

      4  H    Isotropic =    27.1100   Anisotropy =     9.8523

      5  C    Isotropic =    30.5018   Anisotropy =   120.6059

      6  N    Isotropic =   -80.5800   Anisotropy =   207.0847

      7  O    Isotropic =    -5.6405   Anisotropy =   245.7987

      8  N    Isotropic =   179.9165   Anisotropy =    46.9689

      9  C    Isotropic =   135.5900   Anisotropy =    23.1818

     10  C    Isotropic =    57.4482   Anisotropy =   179.8291

     11  C    Isotropic =    66.3989   Anisotropy =   165.0733

     12  C    Isotropic =    67.3193   Anisotropy =   166.8043

     13  C    Isotropic =    68.7943   Anisotropy =   167.1311

     14  C    Isotropic =    68.5494   Anisotropy =   164.1023

     15  C    Isotropic =    66.0056   Anisotropy =   150.4835

     16  C    Isotropic =   136.2117   Anisotropy =    40.1179

     17  C    Isotropic =    56.3722   Anisotropy =   174.5433

     18  C    Isotropic =    68.6660   Anisotropy =   170.1982

     19  C    Isotropic =    67.5602   Anisotropy =   166.0397

     20  C    Isotropic =    69.3137   Anisotropy =   165.1161

     21  C    Isotropic =    68.4194   Anisotropy =   164.1317

     22  C    Isotropic =    69.8850   Anisotropy =   149.7375

     23  H    Isotropic =    28.6558   Anisotropy =     7.8304

     24  H    Isotropic =    26.6449   Anisotropy =     6.3675

     25  H    Isotropic =    24.4194   Anisotropy =     8.6046

     26  H    Isotropic =    24.7953   Anisotropy =     5.0833

     27  H    Isotropic =    24.9974   Anisotropy =     3.8374

     28  H    Isotropic =    25.0183   Anisotropy =     4.4758

     29  H    Isotropic =    25.1058   Anisotropy =     7.0201

     30  H    Isotropic =    28.4680   Anisotropy =     7.9818

     31  H    Isotropic =    28.0115   Anisotropy =     7.7935

     32  H    Isotropic =    24.6673   Anisotropy =     9.4278

     33  H    Isotropic =    25.0044   Anisotropy =     6.1289

     34  H    Isotropic =    25.0981   Anisotropy =     3.8241

     35  H    Isotropic =    25.0642   Anisotropy =     4.4646

     36  H    Isotropic =    25.2329   Anisotropy =     7.8130

  Exact polarizability: 207.323  -8.419 175.140   0.406   9.537 159.087
 Approx polarizability: 292.057  -9.485 271.535  -2.552  13.381 287.311

                      1                      2                      3
                      A                      A                      A
 Frequencies --     20.1932                28.3037                35.3591
 Red. masses --      4.1348                 4.8953                 4.6396
 Frc consts  --      0.0010                 0.0023                 0.0034
 IR Inten    --      0.0450                 0.1761                 0.7923

                      4                      5                      6
                      A                      A                      A
 Frequencies --     47.9789                53.6597                67.5368
 Red. masses --      3.9333                 5.1782                 5.0292
 Frc consts  --      0.0053                 0.0088                 0.0135
 IR Inten    --      0.2202                 3.1024                 2.7734

                      7                      8                      9
                      A                      A                      A
 Frequencies --    115.7862               169.9918               200.0637
 Red. masses --      4.2790                 5.0540                 4.6684
 Frc consts  --      0.0338                 0.0860                 0.1101
 IR Inten    --      0.8910                 2.3496                 9.3082

                     10                     11                     12
                      A                      A                      A
 Frequencies --    206.5335               243.9349               297.2771
 Red. masses --      4.7642                 4.4384                 3.6035
 Frc consts  --      0.1197                 0.1556                 0.1876
 IR Inten    --      0.2788                 0.5470                 1.6614

                     13                     14                     15
                      A                      A                      A
 Frequencies --    325.1605               345.8275               365.5956
 Red. masses --      2.5741                 2.4619                 5.6230
 Frc consts  --      0.1604                 0.1735                 0.4428
 IR Inten    --      2.0758                 3.8871                 4.0634

                     16                     17                     18
                      A                      A                      A
 Frequencies --    417.5548               418.7125               462.4457
 Red. masses --      2.9888                 2.9886                 3.6730
 Frc consts  --      0.3070                 0.3087                 0.4628
 IR Inten    --      0.2347                 0.4326                 7.0083

                     19                     20                     21
                      A                      A                      A
 Frequencies --    473.3954               544.8179               581.3005
 Red. masses --      3.2337                 4.4078                 5.4085
 Frc consts  --      0.4270                 0.7709                 1.0768
 IR Inten    --      3.9694                19.0405                 3.7886

                     22                     23                     24
                      A                      A                      A
 Frequencies --    583.7461               626.6760               634.6602
 Red. masses --      5.1127                 4.7561                 6.3501
 Frc consts  --      1.0265                 1.1005                 1.5070
 IR Inten    --      3.5658                 4.1325                 0.5601

                     25                     26                     27
                      A                      A                      A
 Frequencies --    636.6626               684.9758               711.9152
 Red. masses --      6.1862                 4.5798                 2.6082
 Frc consts  --      1.4774                 1.2660                 0.7789
 IR Inten    --      0.4633                 1.4961                15.7483

                     28                     29                     30
                      A                      A                      A
 Frequencies --    716.2933               721.7528               759.1425
 Red. masses --      2.2323                 2.4026                 1.6461
 Frc consts  --      0.6748                 0.7374                 0.5589
 IR Inten    --     19.1822                17.5689                38.1966

                     31                     32                     33
                      A                      A                      A
 Frequencies --    770.2488               781.1687               823.3578
 Red. masses --      2.0493                 1.2950                 4.0060
 Frc consts  --      0.7164                 0.4656                 1.6001
 IR Inten    --     23.2953                34.0159                 4.6932

                     34                     35                     36
                      A                      A                      A
 Frequencies --    841.8656               862.2077               863.7347
 Red. masses --      3.7324                 1.2744                 1.2575
 Frc consts  --      1.5585                 0.5582                 0.5527
 IR Inten    --      5.1828                 0.7601                 0.3895

                     37                     38                     39
                      A                      A                      A
 Frequencies --    864.4527               910.4060               917.3500
 Red. masses --      1.2952                 5.3368                 1.3602
 Frc consts  --      0.5703                 2.6062                 0.6744
 IR Inten    --      0.4829                23.3110                 2.1221

                     40                     41                     42
                      A                      A                      A
 Frequencies --    923.5975               936.3247               948.1172
 Red. masses --      1.5178                10.0534                 3.1544
 Frc consts  --      0.7629                 5.1930                 1.6707
 IR Inten    --      9.7788                33.8821                 9.2660

                     43                     44                     45
                      A                      A                      A
 Frequencies --    969.4405               971.1807               980.0015
 Red. masses --      1.3519                 1.3511                 1.8901
 Frc consts  --      0.7486                 0.7508                 1.0695
 IR Inten    --      0.1594                 0.3881                12.8469

                     46                     47                     48
                      A                      A                      A
 Frequencies --    991.8327               997.7945               999.3387
 Red. masses --      1.9523                 1.2663                 1.5653
 Frc consts  --      1.1316                 0.7428                 0.9210
 IR Inten    --     11.5027                 1.9837                 8.3307

                     49                     50                     51
                      A                      A                      A
 Frequencies --   1018.0164              1019.3120              1057.4669
 Red. masses --      6.2108                 6.0616                 2.2556
 Frc consts  --      3.7923                 3.7106                 1.4861
 IR Inten    --      1.4589                 1.1250                 4.1770

                     52                     53                     54
                      A                      A                      A
 Frequencies --   1058.3424              1079.3450              1108.7300
 Red. masses --      2.2161                 1.7381                 1.7398
 Frc consts  --      1.4625                 1.1930                 1.2601
 IR Inten    --      3.7095                 5.8253                 6.0708

                     55                     56                     57
                      A                      A                      A
 Frequencies --   1112.6812              1128.7047              1171.3338
 Red. masses --      1.6024                 1.9809                 2.4276
 Frc consts  --      1.1689                 1.4868                 1.9624
 IR Inten    --      5.5362                 2.3733                48.4172

                     58                     59                     60
                      A                      A                      A
 Frequencies --   1185.7809              1192.4389              1193.0243
 Red. masses --      2.7468                 1.1030                 1.1042
 Frc consts  --      2.2756                 0.9241                 0.9260
 IR Inten    --      2.1035                 0.2217                 0.1142

                     61                     62                     63
                      A                      A                      A
 Frequencies --   1210.2809              1212.7171              1229.8923
 Red. masses --      1.1507                 1.1349                 2.9266
 Frc consts  --      0.9930                 0.9834                 2.6082
 IR Inten    --      2.2223                 0.7474                 4.5668

                     64                     65                     66
                      A                      A                      A
 Frequencies --   1237.2381              1280.1468              1301.1541
 Red. masses --      2.8372                 1.4798                 1.3994
 Frc consts  --      2.5588                 1.4288                 1.3959
 IR Inten    --      4.9812                56.8309                 4.2530

                     67                     68                     69
                      A                      A                      A
 Frequencies --   1332.3017              1360.7990              1364.0903
 Red. masses --      2.1490                 2.9972                 2.6627
 Frc consts  --      2.2474                 3.2700                 2.9192
 IR Inten    --     32.8030                 3.9925                 1.8834

                     70                     71                     72
                      A                      A                      A
 Frequencies --   1367.6846              1378.0532              1416.1609
 Red. masses --      1.4516                 1.4946                 1.5178
 Frc consts  --      1.5998                 1.6722                 1.7934
 IR Inten    --      2.8786                 6.7430                78.7705

                     73                     74                     75
                      A                      A                      A
 Frequencies --   1417.5059              1458.5917              1498.0351
 Red. masses --      1.4632                 6.0320                 1.7328
 Frc consts  --      1.7322                 7.5610                 2.2911
 IR Inten    --     23.0919                 9.9126                54.9368

                     76                     77                     78
                      A                      A                      A
 Frequencies --   1500.9044              1505.2836              1525.3229
 Red. masses --      2.1679                 1.6218                 1.1133
 Frc consts  --      2.8774                 2.1651                 1.5261
 IR Inten    --      8.2177                19.2441                11.0184

                     79                     80                     81
                      A                      A                      A
 Frequencies --   1544.2635              1547.1380              1548.1849
 Red. masses --      2.3845                 2.1129                 2.2911
 Frc consts  --      3.3504                 2.9798                 3.2355
 IR Inten    --     55.8696                 3.5556                70.2717

                     82                     83                     84
                      A                      A                      A
 Frequencies --   1634.1892              1645.0293              1645.6318
 Red. masses --      6.0200                 5.5210                 5.4749
 Frc consts  --      9.4722                 8.8026                 8.7355
 IR Inten    --    187.6103                 1.0615                 6.5206

                     85                     86                     87
                      A                      A                      A
 Frequencies --   1664.7170              1665.5317              2995.4293
 Red. masses --      5.5253                 5.5472                 1.0715
 Frc consts  --      9.0217                 9.0663                 5.6643
 IR Inten    --      3.6263                 1.0559                30.5179

                     88                     89                     90
                      A                      A                      A
 Frequencies --   3002.3151              3084.9249              3129.0233
 Red. masses --      1.0737                 1.0904                 1.0894
 Frc consts  --      5.7025                 6.1141                 6.2843
 IR Inten    --     62.1712                 6.1760                 4.0417

                     91                     92                     93
                      A                      A                      A
 Frequencies --   3169.9787              3173.7310              3180.8225
 Red. masses --      1.0871                 1.0868                 1.0863
 Frc consts  --      6.4360                 6.4496                 6.4753
 IR Inten    --      8.6494                 7.8934                 1.3600

                     94                     95                     96
                      A                      A                      A
 Frequencies --   3182.9796              3190.0540              3193.2493
 Red. masses --      1.0866                 1.0901                 1.0915
 Frc consts  --      6.4863                 6.5358                 6.5575
 IR Inten    --      0.5509                 9.9334                26.9303

                     97                     98                     99
                      A                      A                      A
 Frequencies --   3198.4571              3206.0928              3209.2418
 Red. masses --      1.0941                 1.0958                 1.0979
 Frc consts  --      6.5946                 6.6366                 6.6623
 IR Inten    --     35.6107                30.9261                21.2190

                    100                    101                    102
                      A                      A                      A
 Frequencies --   3217.7108              3276.7691              3314.5914
 Red. masses --      1.0932                 1.0946                 1.1031
 Frc consts  --      6.6690                 6.9247                 7.1407
 IR Inten    --      6.6828                 1.9350                 2.0539

 - Thermochemistry -
 -------------------
 Temperature   298.150 Kelvin.  Pressure   1.00000 Atm.
 Atom     1 has atomic number  6 and mass  12.00000

 Molecular mass:   264.12626 amu.
 Principal axes and moments of inertia in atomic units:
                           1         2         3
     Eigenvalues --  4651.630706612.683479779.44504
           X            0.99971   0.02392  -0.00155
           Y           -0.02391   0.99968   0.00877
           Z            0.00176  -0.00873   0.99996
 This molecule is an asymmetric top.
 Rotational symmetry number  1.
 Warning -- assumption of classical behavior for rotation
           may cause significant error
 Rotational temperatures (Kelvin)      0.01862     0.01310     0.00886
 Rotational constants (GHZ):           0.38798     0.27292     0.18454
 Zero-point vibrational energy     773930.5 (Joules/Mol)
                                  184.97382 (Kcal/Mol)
 Warning -- explicit consideration of  22 degrees of freedom as
           vibrations may cause significant error
 Vibrational temperatures:     29.05    40.72    50.87    69.03    77.20
          (Kelvin)             97.17   166.59   244.58   287.85   297.16
                              350.97   427.72   467.83   497.57   526.01
                              600.77   602.43   665.36   681.11   783.87
                              836.36   839.88   901.65   913.13   916.02
                              985.53  1024.29  1030.59  1038.44  1092.24
                             1108.22  1123.93  1184.63  1211.26  1240.52
                             1242.72  1243.75  1309.87  1319.86  1328.85
                             1347.16  1364.13  1394.81  1397.31  1410.00
                             1427.03  1435.60  1437.83  1464.70  1466.56
                             1521.46  1522.72  1552.94  1595.22  1600.90
                             1623.95  1685.29  1706.07  1715.65  1716.50
                             1741.32  1744.83  1769.54  1780.11  1841.85
                             1872.07  1916.89  1957.89  1962.62  1967.79
                             1982.71  2037.54  2039.47  2098.59  2155.34
                             2159.47  2165.77  2194.60  2221.85  2225.99
                             2227.49  2351.23  2366.83  2367.70  2395.16
                             2396.33  4309.75  4319.66  4438.52  4501.97
                             4560.89  4566.29  4576.49  4579.60  4589.78
                             4594.37  4601.87  4612.85  4617.38  4629.57
                             4714.54  4768.96

 Zero-point correction=                           0.294775 (Hartree/Particle)
 Thermal correction to Energy=                    0.311196
 Thermal correction to Enthalpy=                  0.312141
 Thermal correction to Gibbs Free Energy=         0.247389
 Sum of electronic and zero-point Energies=           -841.814239
 Sum of electronic and thermal Energies=              -841.797817
 Sum of electronic and thermal Enthalpies=            -841.796873
 Sum of electronic and thermal Free Energies=         -841.861625

                     E (Thermal)             CV                S
                      KCal/Mol        Cal/Mol-Kelvin    Cal/Mol-Kelvin
 Total                  195.279             64.074            136.282
 Electronic               0.000              0.000              0.000
 Translational            0.889              2.981             42.613
 Rotational               0.889              2.981             34.064
 Vibrational            193.501             58.112             59.605
 Vibration     1          0.593              1.986              6.615
 Vibration     2          0.593              1.984              5.945
 Vibration     3          0.594              1.982              5.503
 Vibration     4          0.595              1.978              4.899
 Vibration     5          0.596              1.976              4.678
 Vibration     6          0.598              1.970              4.224
 Vibration     7          0.608              1.936              3.170
 Vibration     8          0.625              1.879              2.436
 Vibration     9          0.638              1.840              2.133
 Vibration    10          0.641              1.831              2.074
 Vibration    11          0.659              1.773              1.774
 Vibration    12          0.691              1.679              1.432
 Vibration    13          0.709              1.625              1.284
 Vibration    14          0.724              1.584              1.185
 Vibration    15          0.739              1.543              1.098
 Vibration    16          0.781              1.432              0.900
 Vibration    17          0.782              1.430              0.896
 Vibration    18          0.820              1.333              0.759
 Vibration    19          0.830              1.309              0.728
 Vibration    20          0.900              1.151              0.555
 Vibration    21          0.938              1.072              0.483
 Vibration    22          0.941              1.066              0.478

 Optimization completed.
    -- Stationary point found.
 Normal termination of Gaussian 16 at Mon Aug 27 12:30:13 2018.
 Gaussian 16:  ES64L-G16RevA.03 25-Dec-2016

 ----------------------------------------------------------------------
 # TD(NStates=10, Root=1) b3lyp/6-31G* volume pop=NPA density=current G
 eom=AllCheck Guess=Read
 ----------------------------------------------------------------------

 Structure from the checkpoint file:  "science_add_193.chk"
 -------------------
 Title Card Required
 -------------------
 Charge =  0 Multiplicity = 1

                         Standard orientation:
 ---------------------------------------------------------------------
 Center     Atomic      Atomic             Coordinates (Angstroms)
 Number     Number       Type             X           Y           Z
 ---------------------------------------------------------------------
      1          6           0       -3.169689    2.606529   -0.420417
      2          1           0       -4.196746    2.880770   -0.618921
      3          6           0       -2.585716    1.460462    0.008960
      4          1           0       -3.055465    0.519507    0.243893
      5          6           0       -1.188493    1.794327    0.040903
      6          7           0       -0.982672    3.051551   -0.326652
      7          8           0       -2.255756    3.564715   -0.634453
      8          7           0       -0.132056    0.958461    0.370269
      9          6           0        1.175629    1.607130    0.575687
     10          6           0        2.342492    0.711621    0.213686
     11          6           0        2.517327    0.275374   -1.108056
     12          6           0        3.602980   -0.526406   -1.454783
     13          6           0        4.535462   -0.904147   -0.483819
     14          6           0        4.374299   -0.473236    0.832248
     15          6           0        3.282990    0.329426    1.176080
     16          6           0       -0.421844   -0.192291    1.231274
     17          6           0       -1.153332   -1.340583    0.553687
     18          6           0       -0.857359   -1.719143   -0.761359
     19          6           0       -1.496556   -2.813219   -1.344333
     20          6           0       -2.439642   -3.547178   -0.621074
     21          6           0       -2.740803   -3.177556    0.690252
     22          6           0       -2.102583   -2.079336    1.270316
     23          1           0        1.277254    1.952740    1.616846
     24          1           0        1.181927    2.500616   -0.052357
     25          1           0        1.797590    0.575897   -1.865669
     26          1           0        3.726964   -0.853090   -2.483998
     27          1           0        5.382699   -1.528427   -0.754752
     28          1           0        5.094857   -0.760548    1.593460
     29          1           0        3.163331    0.667343    2.203416
     30          1           0       -0.979550    0.117714    2.129762
     31          1           0        0.549128   -0.561537    1.579077
     32          1           0       -0.126883   -1.146754   -1.324310
     33          1           0       -1.257921   -3.093485   -2.367110
     34          1           0       -2.938109   -4.398036   -1.077748
     35          1           0       -3.476152   -3.738490    1.261233
     36          1           0       -2.344756   -1.792666    2.291975
 ---------------------------------------------------------------------

 SCF Done:  E(RB3LYP) =  -842.109013638     A.U. after    1 cycles

 Excitation energies and oscillator strengths:

 Excited State   1:      Singlet-A      4.7574 eV  260.61 nm  f=0.0012  <S**2>=0.000
      70 -> 71         0.69587
      70 -> 72         0.10067
 This state for optimization and/or second-order correction.
 Total Energy, E(TD-HF/TD-DFT) =  -841.934182886
 Copying the excited state density for this state as the 1-particle RhoCI density.

 Excited State   2:      Singlet-A      4.9743 eV  249.25 nm  f=0.0160  <S**2>=0.000
      70 -> 72         0.68678

 Excited State   3:      Singlet-A      5.0296 eV  246.51 nm  f=0.0041  <S**2>=0.000
      70 -> 73         0.61477
      70 -> 74         0.32931

 Excited State   4:      Singlet-A      5.0901 eV  243.58 nm  f=0.0062  <S**2>=0.000
      70 -> 73        -0.32211
      70 -> 74         0.61104

 Excited State   5:      Singlet-A      5.3917 eV  229.96 nm  f=0.0353  <S**2>=0.000
      67 -> 71        -0.19209
      67 -> 73        -0.15221
      67 -> 74        -0.16966
      68 -> 71        -0.13874
      68 -> 74        -0.12027
      69 -> 72        -0.28082
      69 -> 73        -0.14118
      70 -> 75         0.45536

 Excited State   6:      Singlet-A      5.4109 eV  229.14 nm  f=0.0307  <S**2>=0.000
      66 -> 71         0.11061
      67 -> 71         0.15003
      67 -> 73         0.14412
      67 -> 74         0.12564
      68 -> 71         0.11696
      68 -> 74         0.14025
      69 -> 71        -0.13577
      69 -> 72         0.27017
      69 -> 73         0.10130
      70 -> 75         0.49178

 Excited State   7:      Singlet-A      5.4329 eV  228.21 nm  f=0.0087  <S**2>=0.000
      66 -> 71         0.34456
      66 -> 73        -0.15001
      66 -> 74        -0.11071
      67 -> 72        -0.10634
      67 -> 74        -0.11960
      68 -> 72         0.22975
      68 -> 73        -0.24321
      68 -> 74         0.11508
      69 -> 71        -0.24408
      69 -> 73        -0.17876
      69 -> 74         0.19072
      70 -> 75        -0.11677

 Excited State   8:      Singlet-A      5.8344 eV  212.51 nm  f=0.0517  <S**2>=0.000
      66 -> 71         0.24755
      67 -> 72        -0.10541
      68 -> 74         0.10817
      69 -> 71         0.59305
      69 -> 72         0.17822

 Excited State   9:      Singlet-A      5.9772 eV  207.43 nm  f=0.0111  <S**2>=0.000
      67 -> 71        -0.12989
      68 -> 71         0.53123
      69 -> 74         0.39118

 Excited State  10:      Singlet-A      6.0053 eV  206.46 nm  f=0.0181  <S**2>=0.000
      67 -> 71        -0.22729
      68 -> 73         0.22007
      68 -> 74        -0.13217
      69 -> 72         0.43262
      69 -> 73        -0.33912
      69 -> 75         0.20528

 The electronic state is 1-A.
 Alpha  occ. eigenvalues --  -19.22181 -14.35762 -14.35516 -10.24938 -10.24809
 Alpha  occ. eigenvalues --  -10.22733 -10.21942 -10.19890 -10.19825 -10.19292
 Alpha  occ. eigenvalues --  -10.19272 -10.19258 -10.19230 -10.19183 -10.19180
 Alpha  occ. eigenvalues --  -10.19124 -10.19062 -10.19031 -10.18811 -10.18726
 Alpha  occ. eigenvalues --   -1.12447  -0.95736  -0.85761  -0.85691  -0.83668
 Alpha  occ. eigenvalues --   -0.78564  -0.77384  -0.75563  -0.74572  -0.74442
 Alpha  occ. eigenvalues --   -0.69674  -0.67128  -0.61187  -0.60781  -0.60513
 Alpha  occ. eigenvalues --   -0.59468  -0.58540  -0.55554  -0.53405  -0.51455
 Alpha  occ. eigenvalues --   -0.51155  -0.47716  -0.47227  -0.46780  -0.45810
 Alpha  occ. eigenvalues --   -0.45346  -0.45066  -0.44006  -0.43241  -0.42642
 Alpha  occ. eigenvalues --   -0.42061  -0.41915  -0.40439  -0.39665  -0.39134
 Alpha  occ. eigenvalues --   -0.37552  -0.36257  -0.35752  -0.34920  -0.34285
 Alpha  occ. eigenvalues --   -0.34211  -0.34008  -0.31789  -0.29237  -0.25596
 Alpha  occ. eigenvalues --   -0.25317  -0.25146  -0.24895  -0.24263  -0.21314
 Alpha virt. eigenvalues --   -0.01168  -0.00606  -0.00201  -0.00127   0.00667
 Alpha virt. eigenvalues --    0.08033   0.09031   0.09441   0.10099   0.11944
 Alpha virt. eigenvalues --    0.12312   0.12749   0.13430   0.13989   0.14678

 Mulliken charges:
               1
     1  C    0.161800
     2  H    0.215909
     3  C   -0.223795
     4  H    0.225196
     5  C    0.553255
     6  N   -0.172478
     7  O   -0.284183
     8  N   -0.332739
     9  C   -0.307679
    10  C    0.122137
    11  C   -0.232126
    12  C   -0.118041
    13  C   -0.165758
    14  C   -0.164169
    15  C   -0.180608
    16  C   -0.257570
    17  C    0.105588
    18  C   -0.176562
    19  C   -0.134330
    20  C   -0.151999
    21  C   -0.128535
    22  C   -0.205730
    23  H    0.192175
    24  H    0.210164
    25  H    0.075687
    26  H    0.099292
    27  H    0.091480
    28  H    0.091373
    29  H    0.083986
    30  H    0.183797
    31  H    0.215857
    32  H    0.136555
    33  H    0.126773
    34  H    0.117825
    35  H    0.121328
    36  H    0.106125
 Sum of Mulliken charges =  -0.00000

 Dipole moment (field-independent basis, Debye):
    X=             -8.9507    Y=              3.8325    Z=              1.7349  Tot=              9.8901
 Quadrupole moment (field-independent basis, Debye-Ang):
   XX=           -122.0205   YY=           -118.7682   ZZ=           -110.4129
   XY=             -9.1998   XZ=              1.4313   YZ=              3.0949

 Summary of Natural Population Analysis:

                                       Natural Population
                Natural  -----------------------------------------------
    Atom  No    Charge         Core      Valence    Rydberg      Total
 -----------------------------------------------------------------------
      C    1    0.16647      1.99911     3.81133    0.02309     5.83353
      H    2    0.25481      0.00000     0.74499    0.00020     0.74519
      C    3   -0.34426      1.99901     4.33394    0.01131     6.34426
      H    4    0.29466      0.00000     0.70470    0.00064     0.70534
      C    5    0.34379      1.99920     3.63227    0.02474     5.65621
      N    6   -0.06741      1.99937     5.04319    0.02485     7.06741
      O    7   -0.26626      1.99977     6.25373    0.01276     8.26626
      N    8   -0.15631      1.99929     5.14428    0.01274     7.15631
      C    9   -0.28816      1.99919     4.26980    0.01916     6.28816
      C   10   -0.19148      1.99899     4.17391    0.01858     6.19148
      C   11   -0.34548      1.99903     4.32908    0.01737     6.34548
      C   12   -0.20812      1.99910     4.19470    0.01432     6.20812
      C   13   -0.30783      1.99910     4.29218    0.01656     6.30783
      C   14   -0.30690      1.99910     4.29057    0.01723     6.30690
      C   15   -0.21614      1.99903     4.20414    0.01297     6.21614
      C   16   -0.28987      1.99920     4.27398    0.01669     6.28987
      C   17   -0.13680      1.99900     4.12055    0.01725     6.13680
      C   18   -0.24082      1.99903     4.22818    0.01361     6.24082
      C   19   -0.22734      1.99910     4.21367    0.01457     6.22734
      C   20   -0.28049      1.99910     4.26605    0.01534     6.28049
      C   21   -0.22952      1.99910     4.21585    0.01457     6.22952
      C   22   -0.26142      1.99903     4.24890    0.01349     6.26142
      H   23    0.26860      0.00000     0.73053    0.00087     0.73140
      H   24    0.26187      0.00000     0.73524    0.00289     0.73813
      H   25    0.20571      0.00000     0.79361    0.00068     0.79429
      H   26    0.22171      0.00000     0.77738    0.00091     0.77829
      H   27    0.21869      0.00000     0.78052    0.00079     0.78131
      H   28    0.21935      0.00000     0.77984    0.00081     0.78065
      H   29    0.21017      0.00000     0.78877    0.00106     0.78983
      H   30    0.26148      0.00000     0.73752    0.00100     0.73852
      H   31    0.27688      0.00000     0.71797    0.00515     0.72312
      H   32    0.23822      0.00000     0.75973    0.00205     0.76178
      H   33    0.23538      0.00000     0.76374    0.00088     0.76462
      H   34    0.23132      0.00000     0.76785    0.00083     0.76868
      H   35    0.23299      0.00000     0.76615    0.00087     0.76701
      H   36    0.22251      0.00000     0.77647    0.00103     0.77749
 =======================================================================
   * Total *   -0.00000     39.98285    99.66531    0.35184   140.00000

 Normal termination of Gaussian 16 at Mon Aug 27 12:41:50 2018.
