 Gaussian 16, Revision A.03,

 ---------------------------------
 # opt=CalcAll B3LYP/6-31G* scf=qc
 ---------------------------------

 -------------------
 Title Card Required
 -------------------
 Symbolic Z-matrix:
 Charge =  0 Multiplicity = 1

 SCF Done:  E(RB3LYP) =  -553.186170506     a.u. after    8 cycles
 SCF Done:  E(RB3LYP) =  -553.186931967     a.u. after    5 cycles
 SCF Done:  E(RB3LYP) =  -553.186935501     a.u. after    2 cycles
 Optimization completed.
    -- Stationary point found.
 Normal termination of Gaussian 16 at Mon Aug 24 08:22:53 2020.

 ----------------------------------------------------------------------
 # freq B3LYP/6-31G* scf=qc volume NMR pop=NPA density=current Geom=All
 Check Guess=Read
 ----------------------------------------------------------------------

 Structure from the checkpoint file:  "solvent_22.chk"
 -------------------
 Title Card Required
 -------------------
 Charge =  0 Multiplicity = 1

 SCF Done:  E(RB3LYP) =  -553.186935501     a.u. after    1 cycles

      1  S    Isotropic =   234.7698   Anisotropy =   408.3219

      2  O    Isotropic =   265.7516   Anisotropy =   257.7131

      3  C    Isotropic =   148.5024   Anisotropy =    59.4435

      4  C    Isotropic =   148.5024   Anisotropy =    59.4435

      5  H    Isotropic =    30.0081   Anisotropy =     6.9072

      6  H    Isotropic =    30.4794   Anisotropy =     7.5113

      7  H    Isotropic =    30.0340   Anisotropy =     4.9677

      8  H    Isotropic =    30.0081   Anisotropy =     6.9072

      9  H    Isotropic =    30.0340   Anisotropy =     4.9677

     10  H    Isotropic =    30.4794   Anisotropy =     7.5113

  Exact polarizability:  47.043   0.000  46.484  -0.000   0.803  34.142
 Approx polarizability:  62.432   0.000  77.589   0.000   5.474  49.892

                      1                      2                      3
                      A                      A                      A
 Frequencies --    178.7365               226.6630               283.3228
 Red. masses --      1.0307                 1.0596                 2.5898
 Frc consts  --      0.0194                 0.0321                 0.1225
 IR Inten    --      0.0000                 0.4847                 0.6659

                      4                      5                      6
                      A                      A                      A
 Frequencies --    296.1943               360.3270               634.6168
 Red. masses --      4.1410                 3.1611                 4.7242
 Frc consts  --      0.2140                 0.2418                 1.1210
 IR Inten    --      7.1086                 7.4633                10.0689

                      7                      8                      9
                      A                      A                      A
 Frequencies --    664.6286               905.0939               944.6300
 Red. masses --      4.2916                 1.1832                 1.3657
 Frc consts  --      1.1169                 0.5711                 0.7180
 IR Inten    --     20.4424                 2.1454                 5.8563

                     10                     11                     12
                      A                      A                      A
 Frequencies --    971.9598              1038.7760              1102.3916
 Red. masses --      1.5967                 1.3699                 6.9445
 Frc consts  --      0.8887                 0.8709                 4.9724
 IR Inten    --     12.9452                22.8411               111.4315

                     13                     14                     15
                      A                      A                      A
 Frequencies --   1347.2413              1370.5818              1470.7704
 Red. masses --      1.1914                 1.1863                 1.0549
 Frc consts  --      1.2741                 1.3130                 1.3444
 IR Inten    --      0.7687                 6.5137                 9.3681

                     16                     17                     18
                      A                      A                      A
 Frequencies --   1483.7431              1488.8907              1506.8170
 Red. masses --      1.0478                 1.0544                 1.0518
 Frc consts  --      1.3591                 1.3771                 1.4070
 IR Inten    --      3.1328                 0.4824                19.9102

                     19                     20                     21
                      A                      A                      A
 Frequencies --   3059.8045              3062.2041              3156.1860
 Red. masses --      1.0299                 1.0296                 1.1074
 Frc consts  --      5.6810                 5.6883                 6.4998
 IR Inten    --      4.6351                 7.2510                 0.0495

                     22                     23                     24
                      A                      A                      A
 Frequencies --   3160.2404              3168.0163              3168.5068
 Red. masses --      1.1069                 1.1049                 1.1054
 Frc consts  --      6.5133                 6.5336                 6.5384
 IR Inten    --     14.3571                 3.2773                 4.7437

 - Thermochemistry -
 -------------------
 Temperature   298.150 Kelvin.  Pressure   1.00000 Atm.
 Atom     1 has atomic number 16 and mass  31.97207

 Molecular mass:    78.01394 amu.
 Principal axes and moments of inertia in atomic units:
                           1         2         3
     Eigenvalues --   267.30195 268.65042 445.18433
           X            0.00001   1.00000  -0.00000
           Y            0.99965  -0.00001  -0.02630
           Z            0.02630  -0.00000   0.99965
 This molecule is an asymmetric top.
 Rotational symmetry number  1.
 Rotational temperatures (Kelvin)      0.32403     0.32240     0.19456
 Rotational constants (GHZ):           6.75169     6.71781     4.05392
 Zero-point vibrational energy     209647.6 (Joules/Mol)
                                   50.10698 (Kcal/Mol)
 Warning -- explicit consideration of   5 degrees of freedom as
           vibrations may cause significant error
 Vibrational temperatures:    257.16   326.12   407.64   426.16   518.43
          (Kelvin)            913.07   956.25  1302.23  1359.11  1398.43
                             1494.57  1586.10  1938.38  1971.96  2116.11
                             2134.78  2142.18  2167.97  4402.38  4405.83
                             4541.05  4546.88  4558.07  4558.77

 Zero-point correction=                           0.079851 (Hartree/Particle)
 Thermal correction to Energy=                    0.085518
 Thermal correction to Enthalpy=                  0.086463
 Thermal correction to Gibbs Free Energy=         0.051489
 Sum of electronic and zero-point Energies=           -553.107085
 Sum of electronic and thermal Energies=              -553.101417
 Sum of electronic and thermal Enthalpies=            -553.100473
 Sum of electronic and thermal Free Energies=         -553.135446

                     E (Thermal)             CV                S
                      KCal/Mol        Cal/Mol-Kelvin    Cal/Mol-Kelvin
 Total                   53.664             18.944             73.607
 Electronic               0.000              0.000              0.000
 Translational            0.889              2.981             38.978
 Rotational               0.889              2.981             24.973
 Vibrational             51.886             12.982              9.657
 Vibration     1          0.629              1.868              2.342
 Vibration     2          0.650              1.800              1.905
 Vibration     3          0.682              1.705              1.514
 Vibration     4          0.690              1.681              1.438
 Vibration     5          0.735              1.554              1.121

 Optimization completed.
    -- Stationary point found.
 Normal termination of Gaussian 16 at Mon Aug 24 08:23:31 2020.
 Gaussian 16:  ES64L-G16RevA.03 25-Dec-2016

 ----------------------------------------------------------------------
 # TD(NStates=10, Root=1) B3LYP/6-31G* scf=qc volume pop=NPA density=cu
 rrent Geom=AllCheck Guess=Read
 ----------------------------------------------------------------------

 Structure from the checkpoint file:  "solvent_23.chk"
 -------------------
 Title Card Required
 -------------------
 Charge =  0 Multiplicity = 1

                         Standard orientation:
 ---------------------------------------------------------------------
 Center     Atomic      Atomic             Coordinates (Angstroms)
 Number     Number       Type             X           Y           Z
 ---------------------------------------------------------------------
      1         16           0        0.000000    0.242818   -0.439445
      2          8           0        0.000000    1.508293    0.386849
      3          6           0        1.363483   -0.822097    0.180127
      4          6           0       -1.363483   -0.822096    0.180127
      5          1           0        2.300119   -0.313360   -0.060373
      6          1           0        1.332460   -1.796463   -0.317278
      7          1           0        1.276167   -0.933318    1.265051
      8          1           0       -2.300119   -0.313357   -0.060369
      9          1           0       -1.276166   -0.933320    1.265050
     10          1           0       -1.332463   -1.796461   -0.317281
 ---------------------------------------------------------------------

 SCF Done:  E(RB3LYP) =  -553.186935501     a.u. after    1 cycles

 Excitation energies and oscillator strengths:

 Excited State   1:      Singlet-A      5.9835 eV  207.21 nm  f=0.0046  <S**2>=0.000
      20 -> 22         0.10443
      21 -> 23         0.68939
 This state for optimization and/or second-order correction.
 Total Energy, E(TD-HF/TD-DFT) =  -552.967046802
 Copying the excited state density for this state as the 1-particle RhoCI density.

 Excited State   2:      Singlet-A      6.0135 eV  206.18 nm  f=0.0463  <S**2>=0.000
      21 -> 22         0.69844

 Excited State   3:      Singlet-A      6.8406 eV  181.25 nm  f=0.0017  <S**2>=0.000
      20 -> 23         0.70297

 Excited State   4:      Singlet-A      7.1135 eV  174.29 nm  f=0.0020  <S**2>=0.000
      20 -> 22         0.45398
      21 -> 24        -0.28390
      21 -> 25        -0.44919

 Excited State   5:      Singlet-A      7.2490 eV  171.04 nm  f=0.0008  <S**2>=0.000
      20 -> 22         0.28200
      21 -> 24         0.63592
      21 -> 25        -0.10787

 Excited State   6:      Singlet-A      7.9391 eV  156.17 nm  f=0.0541  <S**2>=0.000
      20 -> 22         0.35593
      21 -> 24        -0.10210
      21 -> 25         0.48280
      21 -> 26         0.30829

 Excited State   7:      Singlet-A      8.2551 eV  150.19 nm  f=0.0008  <S**2>=0.000
      20 -> 24         0.69213
      20 -> 25         0.12481

 Excited State   8:      Singlet-A      8.4543 eV  146.65 nm  f=0.0380  <S**2>=0.000
      19 -> 23         0.15825
      20 -> 22        -0.19029
      21 -> 25        -0.16861
      21 -> 26         0.61586

 Excited State   9:      Singlet-A      8.5509 eV  145.00 nm  f=0.1022  <S**2>=0.000
      20 -> 24        -0.13189
      20 -> 25         0.67091

 Excited State  10:      Singlet-A      8.8132 eV  140.68 nm  f=0.0800  <S**2>=0.000
      21 -> 27         0.69153

 The electronic state is 1-A.
 Alpha  occ. eigenvalues --  -88.98512 -19.09934 -10.21397 -10.21396  -8.03218
 Alpha  occ. eigenvalues --   -5.99613  -5.99545  -5.98947  -0.99682  -0.78778
 Alpha  occ. eigenvalues --   -0.72025  -0.60410  -0.46555  -0.45675  -0.45503
 Alpha  occ. eigenvalues --   -0.42585  -0.39718  -0.39168  -0.35043  -0.26011
 Alpha  occ. eigenvalues --   -0.22241
 Alpha virt. eigenvalues --    0.04269   0.04849   0.07939   0.09670   0.12075
 Alpha virt. eigenvalues --    0.13787   0.14706   0.16195   0.17719   0.33731
 Alpha virt. eigenvalues --    0.36079   0.42675   0.43313   0.47031   0.50926

 Mulliken charges:
               1
     1  S    0.313535
     2  O   -0.293384
     3  C   -0.574550
     4  C   -0.574551
     5  H    0.200712
     6  H    0.175783
     7  H    0.187980
     8  H    0.200711
     9  H    0.187980
    10  H    0.175784
 Sum of Mulliken charges =   0.00000

 Dipole moment (field-independent basis, Debye):
    X=             -0.0000    Y=             -2.9634    Z=              0.4827  Tot=              3.0025
 Quadrupole moment (field-independent basis, Debye-Ang):
   XX=            -29.1479   YY=            -35.8399   ZZ=            -33.2065
   XY=             -0.0000   XZ=              0.0000   YZ=             -1.1757

 Summary of Natural Population Analysis:

                                       Natural Population
                Natural  -----------------------------------------------
    Atom  No    Charge         Core      Valence    Rydberg      Total
 -----------------------------------------------------------------------
      S    1    0.91151      9.99904     4.87910    0.21035    15.08849
      O    2   -0.65926      1.99993     6.62889    0.03045     8.65926
      C    3   -0.85586      1.99942     4.83852    0.01792     6.85586
      C    4   -0.85587      1.99942     4.83852    0.01792     6.85587
      H    5    0.26054      0.00000     0.73858    0.00088     0.73946
      H    6    0.22722      0.00000     0.76692    0.00586     0.77278
      H    7    0.24198      0.00000     0.75519    0.00283     0.75802
      H    8    0.26054      0.00000     0.73858    0.00088     0.73946
      H    9    0.24198      0.00000     0.75519    0.00283     0.75802
      H   10    0.22722      0.00000     0.76692    0.00586     0.77278
 =======================================================================
   * Total *   -0.00000     15.99782    25.70638    0.29580    42.00000

 Normal termination of Gaussian 16 at Mon Aug 24 08:24:36 2020.
