 Gaussian 16, Revision A.03,

 ---------------------------------
 # opt=CalcAll B3LYP/6-31G* scf=qc
 ---------------------------------

 -------------------
 Title Card Required
 -------------------
 Symbolic Z-matrix:
 Charge =  0 Multiplicity = 1

 SCF Done:  E(RB3LYP) =  -232.448113437     a.u. after    7 cycles
 SCF Done:  E(RB3LYP) =  -232.449438554     a.u. after    5 cycles
 SCF Done:  E(RB3LYP) =  -232.449449290     a.u. after    4 cycles
 SCF Done:  E(RB3LYP) =  -232.449449426     a.u. after    3 cycles
 Optimization completed on the basis of negligible forces.
    -- Stationary point found.
 Normal termination of Gaussian 16 at Mon Aug 24 16:10:54 2020.

 ----------------------------------------------------------------------
 # freq B3LYP/6-31G* scf=qc volume NMR pop=NPA density=current Geom=All
 Check Guess=Read
 ----------------------------------------------------------------------

 Structure from the checkpoint file:  "solvent_52.chk"
 -------------------
 Title Card Required
 -------------------
 Charge =  0 Multiplicity = 1

 SCF Done:  E(RB3LYP) =  -232.449449426     a.u. after    1 cycles

      1  C    Isotropic =   160.9888   Anisotropy =    18.2054

      2  C    Isotropic =   160.9804   Anisotropy =    18.0907

      3  C    Isotropic =   122.7826   Anisotropy =    69.7439

      4  O    Isotropic =   286.7415   Anisotropy =   130.8564

      5  C    Isotropic =   122.7995   Anisotropy =    69.8309

      6  H    Isotropic =    30.4057   Anisotropy =     9.4359

      7  H    Isotropic =    30.5064   Anisotropy =     8.9736

      8  H    Isotropic =    30.4066   Anisotropy =     9.4379

      9  H    Isotropic =    30.5081   Anisotropy =     8.9747

     10  H    Isotropic =    28.2681   Anisotropy =     7.4625

     11  H    Isotropic =    28.5052   Anisotropy =     8.9982

     12  H    Isotropic =    28.5031   Anisotropy =     8.9944

     13  H    Isotropic =    28.2687   Anisotropy =     7.4629

  Exact polarizability:  48.677   0.003  41.325  -0.725  -0.001  40.668
 Approx polarizability:  61.863   0.004  55.728  -1.149   0.009  57.064

                      1                      2                      3
                      A                      A                      A
 Frequencies --     38.7273               252.8107               582.8622
 Red. masses --      2.3901                 1.5978                 1.7554
 Frc consts  --      0.0021                 0.0602                 0.3514
 IR Inten    --      4.2797                 0.0030                 0.7432

                      4                      5                      6
                      A                      A                      A
 Frequencies --    676.6472               851.8643               890.4384
 Red. masses --      3.3260                 1.6429                 1.9584
 Frc consts  --      0.8972                 0.7024                 0.9148
 IR Inten    --      3.4234                 5.6367                 5.1405

                      7                      8                      9
                      A                      A                      A
 Frequencies --    915.3330               923.6800               933.7515
 Red. masses --      1.7456                 4.0360                 2.3963
 Frc consts  --      0.8617                 2.0288                 1.2310
 IR Inten    --      7.6694                12.1597                12.3167

                     10                     11                     12
                      A                      A                      A
 Frequencies --    977.0251              1040.7305              1115.0118
 Red. masses --      1.3538                 1.7764                 6.5066
 Frc consts  --      0.7614                 1.1337                 4.7661
 IR Inten    --      0.5918                 4.5214               123.7989

                     13                     14                     15
                      A                      A                      A
 Frequencies --   1186.4451              1195.7978              1204.6934
 Red. masses --      1.7798                 1.2597                 1.4609
 Frc consts  --      1.4761                 1.0613                 1.2492
 IR Inten    --      0.0095                 6.5767                 6.6015

                     16                     17                     18
                      A                      A                      A
 Frequencies --   1270.9112              1271.0572              1332.8848
 Red. masses --      1.2031                 1.2133                 1.3704
 Frc consts  --      1.1449                 1.1549                 1.4344
 IR Inten    --      3.3855                 4.2907                 0.6000

                     19                     20                     21
                      A                      A                      A
 Frequencies --   1360.7355              1383.0374              1422.8594
 Red. masses --      1.2702                 1.3026                 1.3567
 Frc consts  --      1.3857                 1.4681                 1.6183
 IR Inten    --      0.1568                 1.9181                 6.8606

                     22                     23                     24
                      A                      A                      A
 Frequencies --   1516.6942              1526.7686              1554.0618
 Red. masses --      1.0907                 1.1044                 1.0877
 Frc consts  --      1.4783                 1.5168                 1.5478
 IR Inten    --      2.5793                 2.3717                 3.4470

                     25                     26                     27
                      A                      A                      A
 Frequencies --   1568.3363              3002.3969              3008.3345
 Red. masses --      1.0992                 1.0690                 1.0731
 Frc consts  --      1.5930                 5.6777                 5.7221
 IR Inten    --      0.0297               149.1082                 5.5392

                     28                     29                     30
                      A                      A                      A
 Frequencies --   3057.3423              3060.6742              3077.7490
 Red. masses --      1.0709                 1.0667                 1.0896
 Frc consts  --      5.8978                 5.8874                 6.0814
 IR Inten    --     21.8723                 4.8878               119.8987

                     31                     32                     33
                      A                      A                      A
 Frequencies --   3079.3120              3113.5484              3122.1134
 Red. masses --      1.0908                 1.0989                 1.1059
 Frc consts  --      6.0942                 6.2767                 6.3514
 IR Inten    --      4.6762                19.4588                55.9681

 - Thermochemistry -
 -------------------
 Temperature   298.150 Kelvin.  Pressure   1.00000 Atm.
 Atom     1 has atomic number  6 and mass  12.00000

 Molecular mass:    72.05751 amu.
 Principal axes and moments of inertia in atomic units:
                           1         2         3
     Eigenvalues --   255.00819 259.07931 452.95009
           X           -0.00202   0.99999  -0.00280
           Y            1.00000   0.00202  -0.00008
           Z            0.00007   0.00280   1.00000
 This molecule is an asymmetric top.
 Rotational symmetry number  1.
 Rotational temperatures (Kelvin)      0.33965     0.33431     0.19122
 Rotational constants (GHZ):           7.07719     6.96598     3.98442
 Zero-point vibrational energy     308125.9 (Joules/Mol)
                                   73.64387 (Kcal/Mol)
 Warning -- explicit consideration of   3 degrees of freedom as
           vibrations may cause significant error
 Vibrational temperatures:     55.72   363.74   838.61   973.54  1225.64
          (Kelvin)           1281.14  1316.96  1328.97  1343.46  1405.72
                             1497.38  1604.25  1707.03  1720.49  1733.29
                             1828.56  1828.77  1917.72  1957.79  1989.88
                             2047.18  2182.18  2196.68  2235.95  2256.49
                             4319.78  4328.32  4398.83  4403.63  4428.19
                             4430.44  4479.70  4492.02

 Zero-point correction=                           0.117359 (Hartree/Particle)
 Thermal correction to Energy=                    0.122315
 Thermal correction to Enthalpy=                  0.123259
 Thermal correction to Gibbs Free Energy=         0.088698
 Sum of electronic and zero-point Energies=           -232.332090
 Sum of electronic and thermal Energies=              -232.327135
 Sum of electronic and thermal Enthalpies=            -232.326190
 Sum of electronic and thermal Free Energies=         -232.360752

                     E (Thermal)             CV                S
                      KCal/Mol        Cal/Mol-Kelvin    Cal/Mol-Kelvin
 Total                   76.754             16.809             72.741
 Electronic               0.000              0.000              0.000
 Translational            0.889              2.981             38.741
 Rotational               0.889              2.981             24.907
 Vibrational             74.976             10.847              9.093
 Vibration     1          0.594              1.981              5.323
 Vibration     2          0.664              1.758              1.711
 Vibration     3          0.940              1.068              0.480

 Optimization completed on the basis of negligible forces.
    -- Stationary point found.
 Normal termination of Gaussian 16 at Mon Aug 24 16:12:05 2020.
 Gaussian 16:  ES64L-G16RevA.03 25-Dec-2016

 ----------------------------------------------------------------------
 # TD(NStates=10, Root=1) B3LYP/6-31G* scf=qc volume pop=NPA density=cu
 rrent Geom=AllCheck Guess=Read
 ----------------------------------------------------------------------

 Structure from the checkpoint file:  "solvent_53.chk"
 -------------------
 Title Card Required
 -------------------
 Charge =  0 Multiplicity = 1

                         Standard orientation:
 ---------------------------------------------------------------------
 Center     Atomic      Atomic             Coordinates (Angstroms)
 Number     Number       Type             X           Y           Z
 ---------------------------------------------------------------------
      1          6           0        0.733166    0.997313    0.226491
      2          6           0       -0.734515    0.996166   -0.227148
      3          6           0       -1.164997   -0.431264    0.132604
      4          8           0        0.000505   -1.251514   -0.001161
      5          6           0        1.165783   -0.430156   -0.131142
      6          1           0        0.796326    1.157010    1.309664
      7          1           0        1.342958    1.761828   -0.264975
      8          1           0       -0.798005    1.154056   -1.310568
      9          1           0       -1.345174    1.760644    0.263306
     10          1           0       -1.949205   -0.824776   -0.524850
     11          1           0       -1.533420   -0.483586    1.169054
     12          1           0        1.537522   -0.483067   -1.166309
     13          1           0        1.948336   -0.822348    0.529131
 ---------------------------------------------------------------------

 SCF Done:  E(RB3LYP) =  -232.449449426     a.u. after    1 cycles

 Excitation energies and oscillator strengths:

 Excited State   1:      Singlet-A      7.7777 eV  159.41 nm  f=0.0179  <S**2>=0.000
      20 -> 21         0.70300
 This state for optimization and/or second-order correction.
 Total Energy, E(TD-HF/TD-DFT) =  -232.163624094
 Copying the excited state density for this state as the 1-particle RhoCI density.

 Excited State   2:      Singlet-A      8.5625 eV  144.80 nm  f=0.0029  <S**2>=0.000
      20 -> 22         0.70169

 Excited State   3:      Singlet-A      8.7374 eV  141.90 nm  f=0.0037  <S**2>=0.000
      20 -> 23         0.70076

 Excited State   4:      Singlet-A      9.2804 eV  133.60 nm  f=0.0009  <S**2>=0.000
      20 -> 24         0.69418
      20 -> 26        -0.11030

 Excited State   5:      Singlet-A      9.5690 eV  129.57 nm  f=0.0024  <S**2>=0.000
      20 -> 26         0.61366
      20 -> 28         0.32184

 Excited State   6:      Singlet-A      9.6548 eV  128.42 nm  f=0.0049  <S**2>=0.000
      19 -> 21         0.70191

 Excited State   7:      Singlet-A      9.7792 eV  126.78 nm  f=0.0408  <S**2>=0.000
      20 -> 25         0.69298
      20 -> 27         0.12446

 Excited State   8:      Singlet-A     10.0068 eV  123.90 nm  f=0.1566  <S**2>=0.000
      20 -> 25        -0.12601
      20 -> 27         0.68935

 Excited State   9:      Singlet-A     10.1990 eV  121.56 nm  f=0.0032  <S**2>=0.000
      20 -> 26        -0.32309
      20 -> 28         0.61386

 Excited State  10:      Singlet-A     10.2348 eV  121.14 nm  f=0.0108  <S**2>=0.000
      19 -> 22         0.70156

 The electronic state is 1-A.
 Alpha  occ. eigenvalues --  -19.13179 -10.22385 -10.22384 -10.18719 -10.18698
 Alpha  occ. eigenvalues --   -1.01877  -0.78004  -0.73111  -0.59256  -0.58665
 Alpha  occ. eigenvalues --   -0.49654  -0.48518  -0.42399  -0.42349  -0.39907
 Alpha  occ. eigenvalues --   -0.35258  -0.34849  -0.33340  -0.30642  -0.23738
 Alpha virt. eigenvalues --    0.08753   0.11251   0.13598   0.14202   0.15994
 Alpha virt. eigenvalues --    0.16190   0.16876   0.18076   0.21109   0.21428
 Alpha virt. eigenvalues --    0.24024   0.26390   0.29766   0.51953   0.53355

 Mulliken charges:
               1
     1  C   -0.192053
     2  C   -0.191982
     3  C   -0.044134
     4  O   -0.186948
     5  C   -0.044254
     6  H    0.027354
     7  H    0.042249
     8  H    0.027643
     9  H    0.042697
    10  H    0.128656
    11  H    0.131098
    12  H    0.130662
    13  H    0.129009
 Sum of Mulliken charges =   0.00000

 Dipole moment (field-independent basis, Debye):
    X=             -0.0017    Y=             -2.3579    Z=              0.0048  Tot=              2.3579
 Quadrupole moment (field-independent basis, Debye-Ang):
   XX=            -31.5495   YY=            -36.7582   ZZ=            -35.6264
   XY=             -0.0063   XZ=             -0.8194   YZ=             -0.0041

 Summary of Natural Population Analysis:

                                       Natural Population
                Natural  -----------------------------------------------
    Atom  No    Charge         Core      Valence    Rydberg      Total
 -----------------------------------------------------------------------
      C    1   -0.49932      1.99936     4.48577    0.01419     6.49932
      C    2   -0.49914      1.99936     4.48563    0.01414     6.49914
      C    3   -0.16662      1.99922     4.14497    0.02243     6.16662
      O    4   -0.12203      1.99985     6.11343    0.00875     8.12203
      C    5   -0.16679      1.99922     4.14509    0.02247     6.16679
      H    6    0.15056      0.00000     0.79703    0.05241     0.84944
      H    7    0.15255      0.00000     0.80579    0.04167     0.84745
      H    8    0.15076      0.00000     0.79690    0.05234     0.84924
      H    9    0.15298      0.00000     0.80548    0.04154     0.84702
      H   10    0.20498      0.00000     0.76440    0.03062     0.79502
      H   11    0.21858      0.00000     0.73933    0.04208     0.78142
      H   12    0.21816      0.00000     0.73968    0.04216     0.78184
      H   13    0.20534      0.00000     0.76407    0.03059     0.79466
 =======================================================================
   * Total *   -0.00000      9.99702    29.58757    0.41541    40.00000

 Normal termination of Gaussian 16 at Mon Aug 24 16:14:08 2020.
