 Gaussian 16, Revision A.03,

 ---------------------------------
 # opt=CalcAll B3LYP/6-31G* scf=qc
 ---------------------------------

 -------------------
 Title Card Required
 -------------------
 Symbolic Z-matrix:
 Charge =  0 Multiplicity = 1

 SCF Done:  E(RB3LYP) =  -248.510779074     a.u. after    9 cycles
 SCF Done:  E(RB3LYP) =  -248.512243080     a.u. after    5 cycles
 SCF Done:  E(RB3LYP) =  -248.512245500     a.u. after    2 cycles
 Optimization completed.
    -- Stationary point found.
 Normal termination of Gaussian 16 at Mon Aug 24 08:24:19 2020.

 ----------------------------------------------------------------------
 # freq B3LYP/6-31G* scf=qc volume NMR pop=NPA density=current Geom=All
 Check Guess=Read
 ----------------------------------------------------------------------

 Structure from the checkpoint file:  "solvent_12.chk"
 -------------------
 Title Card Required
 -------------------
 Charge =  0 Multiplicity = 1

 SCF Done:  E(RB3LYP) =  -248.512245500     a.u. after    1 cycles

      1  C    Isotropic =    40.9853   Anisotropy =    68.3881

      2  O    Isotropic =   -44.8937   Anisotropy =   556.4652

      3  N    Isotropic =   152.0657   Anisotropy =   111.5214

      4  C    Isotropic =   155.1089   Anisotropy =    50.8608

      5  C    Isotropic =   160.6250   Anisotropy =    41.7349

      6  H    Isotropic =    24.4875   Anisotropy =     3.5183

      7  H    Isotropic =    29.3496   Anisotropy =     6.5081

      8  H    Isotropic =    29.6603   Anisotropy =     8.5488

      9  H    Isotropic =    29.6603   Anisotropy =     8.5488

     10  H    Isotropic =    28.0210   Anisotropy =     6.5332

     11  H    Isotropic =    30.2393   Anisotropy =     9.0610

     12  H    Isotropic =    30.2393   Anisotropy =     9.0610

  Exact polarizability:  53.005   1.138  44.144  -0.000   0.000  29.557
 Approx polarizability:  81.011  -0.128  56.946  -0.000   0.000  40.450

                      1                      2                      3
                      A                      A                      A
 Frequencies --    119.8222               177.1372               232.2431
 Red. masses --      1.5673                 1.1496                 1.4411
 Frc consts  --      0.0133                 0.0213                 0.0458
 IR Inten    --      0.0451                 0.2012                 1.7421

                      4                      5                      6
                      A                      A                      A
 Frequencies --    323.6411               336.6356               394.9683
 Red. masses --      3.8723                 2.3570                 2.4026
 Frc consts  --      0.2390                 0.1574                 0.2208
 IR Inten    --     11.7652                16.8204                 1.5977

                      7                      8                      9
                      A                      A                      A
 Frequencies --    662.9005               881.8228              1019.1688
 Red. masses --      5.1613                 3.8937                 1.6046
 Frc consts  --      1.3363                 1.7839                 0.9820
 IR Inten    --      7.5664                 1.5992                 0.5219

                     10                     11                     12
                      A                      A                      A
 Frequencies --   1093.4049              1107.8597              1141.2390
 Red. masses --      1.3609                 1.7629                 1.2183
 Frc consts  --      0.9586                 1.2748                 0.9349
 IR Inten    --      2.8594               116.3164                 0.0417

                     13                     14                     15
                      A                      A                      A
 Frequencies --   1189.6606              1292.2897              1430.9412
 Red. masses --      1.3621                 4.4581                 1.8792
 Frc consts  --      1.1358                 4.3865                 2.2671
 IR Inten    --      2.2075                38.9192                83.1859

                     16                     17                     18
                      A                      A                      A
 Frequencies --   1451.3808              1456.6304              1492.6084
 Red. masses --      1.4682                 1.2442                 1.1957
 Frc consts  --      1.8222                 1.5553                 1.5695
 IR Inten    --     14.1541                 8.3478                 8.0187

                     19                     20                     21
                      A                      A                      A
 Frequencies --   1504.9178              1527.3009              1532.5373
 Red. masses --      1.0423                 1.0443                 1.0648
 Frc consts  --      1.3908                 1.4352                 1.4734
 IR Inten    --      3.6507                14.1958                15.1693

                     22                     23                     24
                      A                      A                      A
 Frequencies --   1565.5303              1802.8170              2964.0806
 Red. masses --      1.1642                 8.0851                 1.0846
 Frc consts  --      1.6811                15.4824                 5.6142
 IR Inten    --     14.6568               396.6751                98.9776

                     25                     26                     27
                      A                      A                      A
 Frequencies --   3025.7593              3035.9489              3072.8607
 Red. masses --      1.0359                 1.0381                 1.1051
 Frc consts  --      5.5880                 5.6373                 6.1478
 IR Inten    --     47.3387                58.0588                50.7103

                     28                     29                     30
                      A                      A                      A
 Frequencies --   3082.3733              3132.8307              3177.5610
 Red. masses --      1.1052                 1.0992                 1.0973
 Frc consts  --      6.1867                 6.3560                 6.5278
 IR Inten    --     25.8385                18.4320                 1.0785

 - Thermochemistry -
 -------------------
 Temperature   298.150 Kelvin.  Pressure   1.00000 Atm.
 Atom     1 has atomic number  6 and mass  12.00000

 Molecular mass:    73.05276 amu.
 Principal axes and moments of inertia in atomic units:
                           1         2         3
     Eigenvalues --   202.48183 433.10959 612.79161
           X            0.99984  -0.01763   0.00000
           Y            0.01763   0.99984   0.00000
           Z           -0.00000  -0.00000   1.00000
 This molecule is an asymmetric top.
 Rotational symmetry number  1.
 Rotational temperatures (Kelvin)      0.42776     0.19998     0.14134
 Rotational constants (GHZ):           8.91310     4.16694     2.94511
 Zero-point vibrational energy     270528.7 (Joules/Mol)
                                   64.65792 (Kcal/Mol)
 Warning -- explicit consideration of   6 degrees of freedom as
           vibrations may cause significant error
 Vibrational temperatures:    172.40   254.86   334.15   465.65   484.34
          (Kelvin)            568.27   953.77  1268.75  1466.36  1573.17
                             1593.96  1641.99  1711.66  1859.32  2058.81
                             2088.21  2095.77  2147.53  2165.24  2197.45
                             2204.98  2252.45  2593.85  4264.65  4353.39
                             4368.05  4421.16  4434.85  4507.44  4571.80

 Zero-point correction=                           0.103039 (Hartree/Particle)
 Thermal correction to Energy=                    0.109123
 Thermal correction to Enthalpy=                  0.110067
 Thermal correction to Gibbs Free Energy=         0.073941
 Sum of electronic and zero-point Energies=           -248.409207
 Sum of electronic and thermal Energies=              -248.403123
 Sum of electronic and thermal Enthalpies=            -248.402178
 Sum of electronic and thermal Free Energies=         -248.438305

                     E (Thermal)             CV                S
                      KCal/Mol        Cal/Mol-Kelvin    Cal/Mol-Kelvin
 Total                   68.476             19.863             76.034
 Electronic               0.000              0.000              0.000
 Translational            0.889              2.981             38.782
 Rotational               0.889              2.981             25.489
 Vibrational             66.698             13.901             11.763
 Vibration     1          0.609              1.933              3.103
 Vibration     2          0.628              1.870              2.358
 Vibration     3          0.653              1.792              1.862
 Vibration     4          0.708              1.628              1.292
 Vibration     5          0.717              1.602              1.228
 Vibration     6          0.762              1.481              0.981

 Optimization completed.
    -- Stationary point found.
 Normal termination of Gaussian 16 at Mon Aug 24 08:25:18 2020.
 Gaussian 16:  ES64L-G16RevA.03 25-Dec-2016

 ----------------------------------------------------------------------
 # TD(NStates=10, Root=1) B3LYP/6-31G* scf=qc volume pop=NPA density=cu
 rrent Geom=AllCheck Guess=Read
 ----------------------------------------------------------------------

 Structure from the checkpoint file:  "solvent_13.chk"
 -------------------
 Title Card Required
 -------------------
 Charge =  0 Multiplicity = 1

                         Standard orientation:
 ---------------------------------------------------------------------
 Center     Atomic      Atomic             Coordinates (Angstroms)
 Number     Number       Type             X           Y           Z
 ---------------------------------------------------------------------
      1          6           0       -0.863088   -0.650483   -0.000000
      2          8           0       -1.952234   -0.101127    0.000000
      3          7           0        0.348398   -0.019294   -0.000001
      4          6           0        1.595994   -0.755583    0.000000
      5          6           0        0.413246    1.431891    0.000000
      6          1           0       -0.752410   -1.752941   -0.000000
      7          1           0        1.388821   -1.829659   -0.000001
      8          1           0        2.195418   -0.518007    0.889291
      9          1           0        2.195420   -0.518006   -0.889288
     10          1           0       -0.608230    1.813755   -0.000003
     11          1           0        0.941579    1.796993   -0.890459
     12          1           0        0.941574    1.796992    0.890463
 ---------------------------------------------------------------------

 SCF Done:  E(RB3LYP) =  -248.512245500     a.u. after    1 cycles

 Excitation energies and oscillator strengths:

 Excited State   1:      Singlet-A      5.7805 eV  214.49 nm  f=0.0008  <S**2>=0.000
      19 -> 21         0.70608
 This state for optimization and/or second-order correction.
 Total Energy, E(TD-HF/TD-DFT) =  -248.299817425
 Copying the excited state density for this state as the 1-particle RhoCI density.

 Excited State   2:      Singlet-A      7.1928 eV  172.37 nm  f=0.2319  <S**2>=0.000
      19 -> 22        -0.14492
      19 -> 27        -0.10670
      20 -> 21         0.67041

 Excited State   3:      Singlet-A      7.8294 eV  158.36 nm  f=0.0295  <S**2>=0.000
      20 -> 22         0.70321

 Excited State   4:      Singlet-A      8.4128 eV  147.38 nm  f=0.0320  <S**2>=0.000
      19 -> 22         0.68735
      20 -> 21         0.12662

 Excited State   5:      Singlet-A      8.5703 eV  144.67 nm  f=0.0146  <S**2>=0.000
      20 -> 23         0.70147

 Excited State   6:      Singlet-A      9.1221 eV  135.92 nm  f=0.0661  <S**2>=0.000
      19 -> 23         0.68554

 Excited State   7:      Singlet-A      9.1989 eV  134.78 nm  f=0.0005  <S**2>=0.000
      20 -> 24         0.67302
      20 -> 25        -0.18818

 Excited State   8:      Singlet-A      9.4207 eV  131.61 nm  f=0.0000  <S**2>=0.000
      20 -> 24         0.18833
      20 -> 25         0.67980

 Excited State   9:      Singlet-A      9.6682 eV  128.24 nm  f=0.0010  <S**2>=0.000
      19 -> 24         0.69266

 Excited State  10:      Singlet-A      9.6874 eV  127.98 nm  f=0.0072  <S**2>=0.000
      20 -> 27         0.70040

 The electronic state is 1-A.
 Alpha  occ. eigenvalues --  -19.11121 -14.37009 -10.27900 -10.23181 -10.21769
 Alpha  occ. eigenvalues --   -1.02762  -0.93848  -0.73477  -0.70213  -0.57030
 Alpha  occ. eigenvalues --   -0.51540  -0.47922  -0.46602  -0.41294  -0.41207
 Alpha  occ. eigenvalues --   -0.40183  -0.38775  -0.37255  -0.25094  -0.24217
 Alpha virt. eigenvalues --    0.03219   0.08445   0.11610   0.13661   0.14924
 Alpha virt. eigenvalues --    0.15411   0.15528   0.17025   0.20317   0.23471
 Alpha virt. eigenvalues --    0.28983   0.37104   0.47876   0.48086   0.50535

 Mulliken charges:
               1
     1  C    0.160522
     2  O   -0.293068
     3  N   -0.345365
     4  C   -0.297887
     5  C   -0.307010
     6  H    0.151254
     7  H    0.159930
     8  H    0.151099
     9  H    0.151100
    10  H    0.178210
    11  H    0.145608
    12  H    0.145607
 Sum of Mulliken charges =  -0.00000

 Dipole moment (field-independent basis, Debye):
    X=              2.3504    Y=             -0.2444    Z=             -0.0000  Tot=              2.3631
 Quadrupole moment (field-independent basis, Debye-Ang):
   XX=            -33.3821   YY=            -27.1131   ZZ=            -32.3131
   XY=             -0.1289   XZ=             -0.0000   YZ=             -0.0000

 Summary of Natural Population Analysis:

                                       Natural Population
                Natural  -----------------------------------------------
    Atom  No    Charge         Core      Valence    Rydberg      Total
 -----------------------------------------------------------------------
      C    1    0.11328      1.99952     3.83876    0.04844     5.88672
      O    2   -0.27355      1.99984     6.25888    0.01484     8.27355
      N    3   -0.46415      1.99939     5.45334    0.01141     7.46415
      C    4   -0.45165      1.99948     4.44049    0.01168     6.45165
      C    5   -0.46041      1.99948     4.44878    0.01214     6.46041
      H    6    0.21632      0.00000     0.78309    0.00058     0.78368
      H    7    0.23059      0.00000     0.76881    0.00060     0.76941
      H    8    0.21467      0.00000     0.78284    0.00249     0.78533
      H    9    0.21467      0.00000     0.78284    0.00249     0.78533
      H   10    0.24000      0.00000     0.75891    0.00109     0.76000
      H   11    0.21011      0.00000     0.78669    0.00320     0.78989
      H   12    0.21011      0.00000     0.78669    0.00320     0.78989
 =======================================================================
   * Total *   -0.00000      9.99771    29.89013    0.11216    40.00000

 Normal termination of Gaussian 16 at Mon Aug 24 08:26:55 2020.
