 Gaussian 16, Revision A.03,

 ---------------------------------
 # opt=CalcAll B3LYP/6-31G* scf=qc
 ---------------------------------

 -------------------
 Title Card Required
 -------------------
 Symbolic Z-matrix:
 Charge =  0 Multiplicity = 1

 SCF Done:  E(RB3LYP) =  -569.285316386     a.u. after    8 cycles
 SCF Done:  E(RB3LYP) =  -569.286451161     a.u. after   13 cycles
 SCF Done:  E(RB3LYP) =  -569.286536557     a.u. after   13 cycles
 SCF Done:  E(RB3LYP) =  -569.286540357     a.u. after    3 cycles
 SCF Done:  E(RB3LYP) =  -569.286540361     a.u. after    2 cycles
 Optimization completed.
    -- Stationary point found.

 1\1\GINC-DELLA-R4C2N1\Freq\RB3LYP\6-31G(d)\C7H5F3\BJS4\24-Aug-2020\0\\
 # opt=CalcAll B3LYP/6-31G* scf=qc\\Title Card Required\\0,1\C,-1.38612
 25002,-0.0723918809,-0.1236973117\C,-0.758428068,1.1673451162,0.025851
 1852\C,0.6312714289,1.2325977048,0.1183622725\C,1.3924484929,0.0633064
 558,0.0625056248\C,0.7626217544,-1.173797752,-0.0879820629\C,-0.626788
 1551,-1.244334809,-0.1809459016\C,-2.8881786044,-0.1508394616,-0.16512
 59952\F,-3.437263449,0.9611864166,-0.7036259048\F,-3.3188357504,-1.207
 8038921,-0.8899997625\F,-3.4171570477,-0.2862397756,1.0744705718\H,-1.

 Normal termination of Gaussian 16 at Mon Aug 24 16:28:05 2020.

 ----------------------------------------------------------------------
 # freq B3LYP/6-31G* scf=qc volume NMR pop=NPA density=current Geom=All
 Check Guess=Read
 ----------------------------------------------------------------------

 Structure from the checkpoint file:  "solvent_42.chk"
 -------------------
 Title Card Required
 -------------------
 Charge =  0 Multiplicity = 1

 SCF Done:  E(RB3LYP) =  -569.286540361     a.u. after    1 cycles

      1  C    Isotropic =    63.2529   Anisotropy =   151.4332

      2  C    Isotropic =    69.8189   Anisotropy =   169.2349

      3  C    Isotropic =    68.0910   Anisotropy =   168.4806

      4  C    Isotropic =    65.6758   Anisotropy =   172.3816

      5  C    Isotropic =    68.0908   Anisotropy =   168.4811

      6  C    Isotropic =    69.8183   Anisotropy =   169.2355

      7  C    Isotropic =    62.8563   Anisotropy =    12.7022

      8  F    Isotropic =   273.8604   Anisotropy =   122.0170

      9  F    Isotropic =   273.8485   Anisotropy =   122.0228

     10  F    Isotropic =   248.6205   Anisotropy =   127.3533

     11  H    Isotropic =    24.6910   Anisotropy =     8.0821

     12  H    Isotropic =    24.8486   Anisotropy =     4.7185

     13  H    Isotropic =    24.8034   Anisotropy =     4.4215

     14  H    Isotropic =    24.8486   Anisotropy =     4.7185

     15  H    Isotropic =    24.6910   Anisotropy =     8.0820

  Exact polarizability:  89.227   0.000  78.862   0.651  -0.000  31.837
 Approx polarizability: 137.936   0.000 134.713   1.541  -0.000  48.820

                      1                      2                      3
                      A                      A                      A
 Frequencies --     21.3862               131.4822               201.5581
 Red. masses --      6.1259                 6.6320                 7.0145
 Frc consts  --      0.0017                 0.0676                 0.1679
 IR Inten    --      0.0188                 0.0158                 0.5122

                      4                      5                      6
                      A                      A                      A
 Frequencies --    320.1935               342.8218               394.7630
 Red. masses --      6.0048                 8.7681                 9.1585
 Frc consts  --      0.3627                 0.6071                 0.8409
 IR Inten    --      1.1386                 2.8729                 1.0950

                      7                      8                      9
                      A                      A                      A
 Frequencies --    415.5012               483.0793               572.5680
 Red. masses --      3.0287                 6.9619                13.2235
 Frc consts  --      0.3081                 0.9572                 2.5542
 IR Inten    --      0.0087                 0.2864                 0.0000

                     10                     11                     12
                      A                      A                      A
 Frequencies --    596.9581               633.0985               661.8143
 Red. masses --      5.1073                 6.4210                 8.8253
 Frc consts  --      1.0723                 1.5163                 2.2775
 IR Inten    --      6.1141                 0.0791                18.4601

                     13                     14                     15
                      A                      A                      A
 Frequencies --    711.2596               775.3061               784.9385
 Red. masses --      1.8766                 8.8151                 1.9349
 Frc consts  --      0.5593                 3.1219                 0.7024
 IR Inten    --     29.3102                 1.2727                35.1323

                     16                     17                     18
                      A                      A                      A
 Frequencies --    864.2517               941.5859               975.7289
 Red. masses --      1.2465                 1.3734                 1.3516
 Frc consts  --      0.5485                 0.7174                 0.7582
 IR Inten    --      0.1583                 5.1250                 0.0629

                     19                     20                     21
                      A                      A                      A
 Frequencies --   1003.9094              1019.5559              1051.4844
 Red. masses --      1.2594                 6.3382                 3.2809
 Frc consts  --      0.7478                 3.8819                 2.1373
 IR Inten    --      0.2455                 3.0624                28.0819

                     22                     23                     24
                      A                      A                      A
 Frequencies --   1093.8891              1107.7408              1185.1242
 Red. masses --      2.9383                 1.7152                11.2115
 Frc consts  --      2.0715                 1.2401                 9.2777
 IR Inten    --     66.9213                29.5332               258.0135

                     25                     26                     27
                      A                      A                      A
 Frequencies --   1196.2518              1212.9322              1215.8451
 Red. masses --      1.1073                 6.5493                 1.1493
 Frc consts  --      0.9336                 5.6770                 1.0010
 IR Inten    --      0.8488               163.7970                 6.2322

                     28                     29                     30
                      A                      A                      A
 Frequencies --   1343.3124              1355.9367              1368.5057
 Red. masses --      5.6506                 2.0411                 2.4996
 Frc consts  --      6.0075                 2.2111                 2.7581
 IR Inten    --    326.0697                 6.0694                 0.3355

                     31                     32                     33
                      A                      A                      A
 Frequencies --   1500.2813              1549.5468              1650.4012
 Red. masses --      2.2599                 2.3031                 5.7858
 Frc consts  --      2.9970                 3.2582                 9.2853
 IR Inten    --     18.1923                 0.0946                 0.1813

                     34                     35                     36
                      A                      A                      A
 Frequencies --   1669.9307              3189.1480              3200.3624
 Red. masses --      5.5400                 1.0857                 1.0893
 Frc consts  --      9.1025                 6.5060                 6.5735
 IR Inten    --      6.2259                 0.2413                10.1035

                     37                     38                     39
                      A                      A                      A
 Frequencies --   3209.8378              3222.1304              3224.0606
 Red. masses --      1.0935                 1.0931                 1.0956
 Frc consts  --      6.6380                 6.6867                 6.7096
 IR Inten    --     19.9718                12.2506                 1.0521

 - Thermochemistry -
 -------------------
 Temperature   298.150 Kelvin.  Pressure   1.00000 Atm.
 Atom     1 has atomic number  6 and mass  12.00000

 Molecular mass:   146.03433 amu.
 Principal axes and moments of inertia in atomic units:
                           1         2         3
     Eigenvalues --   638.781181917.458742236.78862
           X            1.00000   0.00000   0.00040
           Y           -0.00000   1.00000  -0.00000
           Z           -0.00040   0.00000   1.00000
 This molecule is an asymmetric top.
 Rotational symmetry number  1.
 Warning -- assumption of classical behavior for rotation
           may cause significant error
 Rotational temperatures (Kelvin)      0.13559     0.04517     0.03872
 Rotational constants (GHZ):           2.82529     0.94122     0.80684
 Zero-point vibrational energy     277524.5 (Joules/Mol)
                                   66.32996 (Kcal/Mol)
 Warning -- explicit consideration of  10 degrees of freedom as
           vibrations may cause significant error
 Vibrational temperatures:     30.77   189.17   290.00   460.69   493.24
          (Kelvin)            567.98   597.81   695.04   823.80   858.89
                              910.89   952.20  1023.34  1115.49  1129.35
                             1243.47  1354.73  1403.86  1444.40  1466.91
                             1512.85  1573.86  1593.79  1705.13  1721.14
                             1745.14  1749.33  1932.73  1950.89  1968.97
                             2158.57  2229.45  2374.56  2402.66  4588.47
                             4604.61  4618.24  4635.93  4638.70

 Zero-point correction=                           0.105704 (Hartree/Particle)
 Thermal correction to Energy=                    0.113569
 Thermal correction to Enthalpy=                  0.114513
 Thermal correction to Gibbs Free Energy=         0.071583
 Sum of electronic and zero-point Energies=           -569.180837
 Sum of electronic and thermal Energies=              -569.172971
 Sum of electronic and thermal Enthalpies=            -569.172027
 Sum of electronic and thermal Free Energies=         -569.214957

                     E (Thermal)             CV                S
                      KCal/Mol        Cal/Mol-Kelvin    Cal/Mol-Kelvin
 Total                   71.266             29.726             90.355
 Electronic               0.000              0.000              0.000
 Translational            0.889              2.981             40.847
 Rotational               0.889              2.981             29.395
 Vibrational             69.488             23.765             20.113
 Vibration     1          0.593              1.985              6.501
 Vibration     2          0.612              1.922              2.924
 Vibration     3          0.638              1.838              2.119
 Vibration     4          0.706              1.635              1.309
 Vibration     5          0.722              1.590              1.199
 Vibration     6          0.762              1.481              0.982
 Vibration     7          0.779              1.437              0.907
 Vibration     8          0.839              1.288              0.702
 Vibration     9          0.929              1.091              0.499
 Vibration    10          0.955              1.038              0.455

 Optimization completed.
    -- Stationary point found.

 1\1\GINC-DELLA-R4C2N1\Freq\RB3LYP\6-31G(d)\C7H5F3\BJS4\24-Aug-2020\0\\
 # freq B3LYP/6-31G* scf=qc volume NMR pop=NPA density=current Geom=All
 Check Guess=Read\\Title Card Required\\0,1\C,-1.3861225002,-0.07239188
 09,-0.1236973117\C,-0.758428068,1.1673451162,0.0258511852\C,0.63127142
 89,1.2325977048,0.1183622725\C,1.3924484929,0.0633064558,0.0625056248\
 C,0.7626217544,-1.173797752,-0.0879820629\C,-0.6267881551,-1.244334809
 ,-0.1809459016\C,-2.8881786044,-0.1508394616,-0.1651259952\F,-3.437263
 449,0.9611864166,-0.7036259048\F,-3.3188357504,-1.2078038921,-0.889999

 Normal termination of Gaussian 16 at Mon Aug 24 16:31:44 2020.
 Gaussian 16:  ES64L-G16RevA.03 25-Dec-2016

 ----------------------------------------------------------------------
 # TD(NStates=10, Root=1) B3LYP/6-31G* scf=qc volume pop=NPA density=cu
 rrent Geom=AllCheck Guess=Read
 ----------------------------------------------------------------------

 Structure from the checkpoint file:  "solvent_43.chk"
 -------------------
 Title Card Required
 -------------------
 Charge =  0 Multiplicity = 1

                         Standard orientation:
 ---------------------------------------------------------------------
 Center     Atomic      Atomic             Coordinates (Angstroms)
 Number     Number       Type             X           Y           Z
 ---------------------------------------------------------------------
      1          6           0        0.049323    0.000008   -0.034459
      2          6           0        0.745098    1.212058   -0.022341
      3          6           0        2.139182    1.209395    0.002208
      4          6           0        2.836985   -0.000006    0.015397
      5          6           0        2.139170   -1.209400    0.002208
      6          6           0        0.745087   -1.212049   -0.022341
      7          6           0       -1.455001    0.000004   -0.002020
      8          9           0       -1.973234    1.090211   -0.611086
      9          9           0       -1.973228   -1.089991   -0.611472
     10          9           0       -1.928741   -0.000226    1.266964
     11          1           0        0.197319    2.148567   -0.039940
     12          1           0        2.679875    2.151547    0.007630
     13          1           0        3.923418   -0.000011    0.033056
     14          1           0        2.679854   -2.151558    0.007630
     15          1           0        0.197299   -2.148553   -0.039939
 ---------------------------------------------------------------------

 SCF Done:  E(RB3LYP) =  -569.286540361     a.u. after    1 cycles

 Excitation energies and oscillator strengths:

 Excited State   1:      Singlet-A      5.4454 eV  227.69 nm  f=0.0033  <S**2>=0.000
      36 -> 39        -0.45495
      37 -> 38         0.54081
 This state for optimization and/or second-order correction.
 Total Energy, E(TD-HF/TD-DFT) =  -569.086426659
 Copying the excited state density for this state as the 1-particle RhoCI density.

 Excited State   2:      Singlet-A      6.1853 eV  200.45 nm  f=0.0200  <S**2>=0.000
      36 -> 38         0.55909
      37 -> 39         0.42917

 Excited State   3:      Singlet-A      7.2182 eV  171.76 nm  f=0.4628  <S**2>=0.000
      36 -> 39         0.53726
      37 -> 38         0.45268

 Excited State   4:      Singlet-A      7.2290 eV  171.51 nm  f=0.6541  <S**2>=0.000
      36 -> 38        -0.42814
      37 -> 39         0.55735

 Excited State   5:      Singlet-A      7.6777 eV  161.49 nm  f=0.0000  <S**2>=0.000
      34 -> 38         0.69359
      35 -> 39         0.12320

 Excited State   6:      Singlet-A      7.7072 eV  160.87 nm  f=0.0052  <S**2>=0.000
      35 -> 38         0.70165

 Excited State   7:      Singlet-A      7.9479 eV  156.00 nm  f=0.0010  <S**2>=0.000
      34 -> 38        -0.12568
      35 -> 39         0.68692

 Excited State   8:      Singlet-A      8.0156 eV  154.68 nm  f=0.0032  <S**2>=0.000
      34 -> 39         0.70521

 Excited State   9:      Singlet-A      8.4390 eV  146.92 nm  f=0.0000  <S**2>=0.000
      37 -> 40         0.70431

 Excited State  10:      Singlet-A      8.5071 eV  145.74 nm  f=0.0001  <S**2>=0.000
      36 -> 40         0.70336

 The electronic state is 1-A.
 Alpha  occ. eigenvalues --  -24.72180 -24.72180 -24.71553 -10.42966 -10.21650
 Alpha  occ. eigenvalues --  -10.20878 -10.20876 -10.20705 -10.20570 -10.20559
 Alpha  occ. eigenvalues --   -1.29707  -1.21199  -1.20677  -0.87349  -0.78490
 Alpha  occ. eigenvalues --   -0.76140  -0.69454  -0.62504  -0.62262  -0.57526
 Alpha  occ. eigenvalues --   -0.57266  -0.56452  -0.50735  -0.46577  -0.46423
 Alpha  occ. eigenvalues --   -0.45016  -0.44877  -0.43904  -0.41689  -0.40903
 Alpha  occ. eigenvalues --   -0.40074  -0.39364  -0.37677  -0.36032  -0.35558
 Alpha  occ. eigenvalues --   -0.26812  -0.26605
 Alpha virt. eigenvalues --   -0.02661  -0.01553   0.08494   0.12651   0.13117
 Alpha virt. eigenvalues --    0.14514   0.14651   0.17414   0.19175   0.21961
 Alpha virt. eigenvalues --    0.22233   0.24626   0.28661   0.29048   0.33865

 Mulliken charges:
               1
     1  C   -0.012858
     2  C   -0.156872
     3  C   -0.135081
     4  C   -0.129338
     5  C   -0.135081
     6  C   -0.156870
     7  C    0.774206
     8  F   -0.272060
     9  F   -0.272059
    10  F   -0.262281
    11  H    0.160772
    12  H    0.147891
    13  H    0.140967
    14  H    0.147892
    15  H    0.160771
 Sum of Mulliken charges =  -0.00000

 Dipole moment (field-independent basis, Debye):
    X=              2.7007    Y=              0.0000    Z=             -0.0606  Tot=              2.7014
 Quadrupole moment (field-independent basis, Debye-Ang):
   XX=            -53.2122   YY=            -49.8257   ZZ=            -57.8824
   XY=             -0.0001   XZ=              0.1960   YZ=             -0.0000

 Summary of Natural Population Analysis:

                                       Natural Population
                Natural  -----------------------------------------------
    Atom  No    Charge         Core      Valence    Rydberg      Total
 -----------------------------------------------------------------------
      C    1   -0.16669      1.99890     4.14993    0.01786     6.16669
      C    2   -0.19378      1.99909     4.17631    0.01838     6.19378
      C    3   -0.20285      1.99915     4.18583    0.01787     6.20285
      C    4   -0.24654      1.99916     4.22949    0.01789     6.24654
      C    5   -0.20284      1.99915     4.18582    0.01787     6.20284
      C    6   -0.19378      1.99909     4.17631    0.01838     6.19378
      C    7    1.10443      1.99908     2.82593    0.07056     4.89557
      F    8   -0.36553      1.99993     7.35941    0.00619     9.36553
      F    9   -0.36553      1.99993     7.35941    0.00619     9.36553
      F   10   -0.36449      1.99993     7.35828    0.00628     9.36449
      H   11    0.24509      0.00000     0.75345    0.00147     0.75491
      H   12    0.23628      0.00000     0.76289    0.00083     0.76372
      H   13    0.23488      0.00000     0.76430    0.00082     0.76512
      H   14    0.23628      0.00000     0.76289    0.00083     0.76372
      H   15    0.24508      0.00000     0.75345    0.00147     0.75492
 =======================================================================
   * Total *    0.00000     19.99341    53.80370    0.20289    74.00000

 Normal termination of Gaussian 16 at Mon Aug 24 16:36:48 2020.
