 Gaussian 16, Revision A.03,

 ---------------------------------
 # opt=CalcFc B3LYP/6-31G* scf=xqc
 ---------------------------------

 -------------------
 Title Card Required
 -------------------
 Symbolic Z-matrix:
 Charge =  0 Multiplicity = 1

 SCF Done:  E(RB3LYP) =  -1189.38063247     A.U. after   14 cycles
 Optimization completed.
    -- Stationary point found.
 Normal termination of Gaussian 16 at Thu Mar  7 11:38:18 2019.

 ----------------------------------------------------------------------
 # freq B3LYP/6-31G* volume NMR pop=NPA density=current Geom=AllCheck G
 uess=Read
 ----------------------------------------------------------------------

 Structure from the checkpoint file:  "direct_arylation_ligand_48_conf42.chk"
 -------------------
 Title Card Required
 -------------------
 Charge =  0 Multiplicity = 1

 SCF Done:  E(RB3LYP) =  -1189.38063247     A.U. after    1 cycles

      1  C    Isotropic =    93.5901   Anisotropy =    26.1976

      2  O    Isotropic =   210.4567   Anisotropy =    86.0915

      3  C    Isotropic =    93.9438   Anisotropy =    26.4290

      4  C    Isotropic =   154.4753   Anisotropy =    18.8005

      5  C    Isotropic =   112.5805   Anisotropy =    59.2486

      6  O    Isotropic =   219.3006   Anisotropy =    49.0651

      7  P    Isotropic =   381.1145   Anisotropy =   154.7277

      8  C    Isotropic =   111.8834   Anisotropy =    52.8701

      9  C    Isotropic =   145.7420   Anisotropy =    10.9372

     10  O    Isotropic =   229.5917   Anisotropy =    44.0030

     11  C    Isotropic =   162.6943   Anisotropy =    37.8727

     12  C    Isotropic =    57.3155   Anisotropy =   174.2704

     13  C    Isotropic =    63.3636   Anisotropy =   174.3736

     14  C    Isotropic =    68.5981   Anisotropy =   164.5638

     15  C    Isotropic =    67.3535   Anisotropy =   168.3644

     16  C    Isotropic =    68.7682   Anisotropy =   164.3069

     17  C    Isotropic =    58.5828   Anisotropy =   164.1480

     18  C    Isotropic =   161.9232   Anisotropy =    39.3195

     19  C    Isotropic =   161.6255   Anisotropy =    43.3277

     20  C    Isotropic =   162.0391   Anisotropy =    43.0356

     21  H    Isotropic =    30.3285   Anisotropy =     5.0121

     22  H    Isotropic =    30.7724   Anisotropy =     5.8067

     23  H    Isotropic =    30.3668   Anisotropy =     5.7759

     24  H    Isotropic =    30.3006   Anisotropy =     5.4317

     25  H    Isotropic =    31.0617   Anisotropy =     9.0020

     26  H    Isotropic =    30.8946   Anisotropy =     8.6221

     27  H    Isotropic =    30.2987   Anisotropy =     6.2398

     28  H    Isotropic =    23.8607   Anisotropy =    11.8308

     29  H    Isotropic =    24.9439   Anisotropy =     6.2196

     30  H    Isotropic =    24.9777   Anisotropy =     3.9407

     31  H    Isotropic =    24.9597   Anisotropy =     4.8073

     32  H    Isotropic =    24.6492   Anisotropy =     9.5716

     33  H    Isotropic =    31.0729   Anisotropy =     9.0937

     34  H    Isotropic =    30.5846   Anisotropy =     8.7755

     35  H    Isotropic =    31.2342   Anisotropy =     6.9733

     36  H    Isotropic =    31.0410   Anisotropy =     8.8526

     37  H    Isotropic =    30.9312   Anisotropy =     7.8505

     38  H    Isotropic =    30.6302   Anisotropy =     8.2618

     39  H    Isotropic =    30.7190   Anisotropy =     8.2074

     40  H    Isotropic =    31.0662   Anisotropy =     8.7444

     41  H    Isotropic =    30.9955   Anisotropy =     8.3605

  Exact polarizability: 243.775  -0.258 177.729   9.502   7.748 151.358
 Approx polarizability: 337.681  -1.860 297.677  14.441  22.070 231.579

                      1                      2                      3
                      A                      A                      A
 Frequencies --     47.5558                69.8308                77.4485
 Red. masses --      4.1118                 4.1198                 4.3179
 Frc consts  --      0.0055                 0.0118                 0.0153
 IR Inten    --      0.0821                 0.0596                 0.1375

                      4                      5                      6
                      A                      A                      A
 Frequencies --    168.8477               204.0955               210.7601
 Red. masses --      4.4696                 3.3458                 1.0789
 Frc consts  --      0.0751                 0.0821                 0.0282
 IR Inten    --      0.0540                 1.7283                 0.1457

                      7                      8                      9
                      A                      A                      A
 Frequencies --    213.8149               214.1035               231.7880
 Red. masses --      3.4645                 1.0464                 1.5410
 Frc consts  --      0.0933                 0.0283                 0.0488
 IR Inten    --      0.2043                 0.0467                 0.1034

                     10                     11                     12
                      A                      A                      A
 Frequencies --    232.2626               236.6752               244.3198
 Red. masses --      1.1162                 2.5739                 2.4257
 Frc consts  --      0.0355                 0.0849                 0.0853
 IR Inten    --      0.6663                 0.6538                 0.3708

                     13                     14                     15
                      A                      A                      A
 Frequencies --    246.9191               266.3532               271.7835
 Red. masses --      1.7262                 2.3991                 2.8627
 Frc consts  --      0.0620                 0.1003                 0.1246
 IR Inten    --      0.1839                 0.8057                 1.2463

                     16                     17                     18
                      A                      A                      A
 Frequencies --    276.4139               288.1351               342.5249
 Red. masses --      2.9817                 2.8979                 4.7546
 Frc consts  --      0.1342                 0.1417                 0.3287
 IR Inten    --      2.2067                 4.4728                 2.9593

                     19                     20                     21
                      A                      A                      A
 Frequencies --    376.2811               380.5997               416.2829
 Red. masses --      6.4959                 4.1476                 3.0294
 Frc consts  --      0.5419                 0.3540                 0.3093
 IR Inten    --      1.5851                 1.0557                 0.2265

                     22                     23                     24
                      A                      A                      A
 Frequencies --    425.6286               441.2666               457.7721
 Red. masses --      3.7282                 4.6128                 6.3868
 Frc consts  --      0.3979                 0.5292                 0.7886
 IR Inten    --      1.6121                 8.8494                 7.8343

                     25                     26                     27
                      A                      A                      A
 Frequencies --    458.9682               490.8240               499.6344
 Red. masses --      3.3932                 3.4668                 3.7284
 Frc consts  --      0.4211                 0.4921                 0.5484
 IR Inten    --      1.4323                 0.7632                 5.7543

                     28                     29                     30
                      A                      A                      A
 Frequencies --    505.6031               548.1247               573.1254
 Red. masses --      2.9464                 3.8661                 4.7721
 Frc consts  --      0.4438                 0.6844                 0.9236
 IR Inten    --      1.6406                 4.3009                 9.0212

                     31                     32                     33
                      A                      A                      A
 Frequencies --    587.6067               622.9081               634.0831
 Red. masses --      3.9208                 3.8407                 6.2842
 Frc consts  --      0.7976                 0.8780                 1.4886
 IR Inten    --      5.0099                 1.6364                 0.5540

                     34                     35                     36
                      A                      A                      A
 Frequencies --    657.6810               690.5757               704.5558
 Red. masses --      3.1099                 4.9259                 6.4157
 Frc consts  --      0.7925                 1.3841                 1.8764
 IR Inten    --      1.5262                 8.0458                 2.3660

                     37                     38                     39
                      A                      A                      A
 Frequencies --    718.6147               764.5057               802.4561
 Red. masses --      2.3324                 1.5414                 3.5343
 Frc consts  --      0.7096                 0.5308                 1.3409
 IR Inten    --     17.0834                29.6609                18.7364

                     40                     41                     42
                      A                      A                      A
 Frequencies --    836.3527               845.3396               862.6958
 Red. masses --      5.5070                 2.5153                 2.8985
 Frc consts  --      2.2696                 1.0590                 1.2710
 IR Inten    --      7.0238                 1.3213                13.7146

                     43                     44                     45
                      A                      A                      A
 Frequencies --    877.0245               909.4806               912.9779
 Red. masses --      1.2459                 3.5265                 2.7041
 Frc consts  --      0.5646                 1.7186                 1.3280
 IR Inten    --      0.0475                50.5560                30.2751

                     46                     47                     48
                      A                      A                      A
 Frequencies --    916.8389               947.5726               962.8951
 Red. masses --      2.3375                 1.3482                 2.2131
 Frc consts  --      1.1577                 0.7132                 1.2089
 IR Inten    --     13.9046                 1.3115                 4.4224

                     49                     50                     51
                      A                      A                      A
 Frequencies --    987.6420               987.8159               992.0541
 Red. masses --      1.7201                 1.7578                 1.3415
 Frc consts  --      0.9886                 1.0106                 0.7779
 IR Inten    --     14.8334                 9.4008                 0.8869

                     52                     53                     54
                      A                      A                      A
 Frequencies --   1003.2613              1005.9391              1015.2882
 Red. masses --      2.0084                 1.9604                 4.7313
 Frc consts  --      1.1911                 1.1688                 2.8735
 IR Inten    --     32.4952                66.9893                 0.9653

                     55                     56                     57
                      A                      A                      A
 Frequencies --   1017.7826              1053.5524              1063.8664
 Red. masses --      1.3284                 3.4499                 1.5409
 Frc consts  --      0.8108                 2.2561                 1.0275
 IR Inten    --      2.0052                 1.1158                 0.0160

                     58                     59                     60
                      A                      A                      A
 Frequencies --   1102.1543              1105.9099              1109.5965
 Red. masses --      2.3085                 2.0893                 2.1449
 Frc consts  --      1.6522                 1.5056                 1.5559
 IR Inten    --     18.4478                21.3964                 0.9929

                     61                     62                     63
                      A                      A                      A
 Frequencies --   1112.4740              1114.2188              1164.7511
 Red. masses --      2.1332                 1.9880                 2.3694
 Frc consts  --      1.5555                 1.4542                 1.8939
 IR Inten    --     11.6852                21.2217                41.7489

                     64                     65                     66
                      A                      A                      A
 Frequencies --   1169.8791              1194.3930              1197.5406
 Red. masses --      2.2453                 1.1197                 3.6057
 Frc consts  --      1.8105                 0.9411                 3.0466
 IR Inten    --     48.2103                 1.0086                24.2101

                     67                     68                     69
                      A                      A                      A
 Frequencies --   1217.4015              1223.0052              1232.0577
 Red. masses --      2.1083                 1.2801                 2.1262
 Frc consts  --      1.8410                 1.1281                 1.9016
 IR Inten    --    114.4527                 5.2393                69.2506

                     70                     71                     72
                      A                      A                      A
 Frequencies --   1246.5113              1249.7543              1263.1007
 Red. masses --      3.0764                 3.1419                 1.3880
 Frc consts  --      2.8163                 2.8913                 1.3047
 IR Inten    --     59.5611               107.2439                28.4659

                     73                     74                     75
                      A                      A                      A
 Frequencies --   1296.1288              1310.2527              1325.4342
 Red. masses --      3.2510                 1.5930                 4.0588
 Frc consts  --      3.2178                 1.6113                 4.2011
 IR Inten    --     27.8981                 3.5384                 2.4015

                     76                     77                     78
                      A                      A                      A
 Frequencies --   1368.7536              1381.5467              1388.0041
 Red. masses --      1.5459                 1.8969                 1.9086
 Frc consts  --      1.7064                 2.1332                 2.1665
 IR Inten    --      1.3631                35.3758                27.8057

                     79                     80                     81
                      A                      A                      A
 Frequencies --   1432.9727              1434.6687              1435.0496
 Red. masses --      1.2647                 1.2572                 1.3405
 Frc consts  --      1.5300                 1.5246                 1.6265
 IR Inten    --     10.3232                11.5433                24.8557

                     82                     83                     84
                      A                      A                      A
 Frequencies --   1443.7318              1479.6500              1493.9625
 Red. masses --      1.4827                 2.1003                 1.0952
 Frc consts  --      1.8209                 2.7092                 1.4402
 IR Inten    --     17.9699                 8.6134                 3.0566

                     85                     86                     87
                      A                      A                      A
 Frequencies --   1499.8772              1510.7370              1511.1709
 Red. masses --      1.0970                 1.0516                 1.0511
 Frc consts  --      1.4540                 1.4140                 1.4142
 IR Inten    --      1.0016                 0.6692                 0.5604

                     88                     89                     90
                      A                      A                      A
 Frequencies --   1513.3543              1514.0726              1517.0305
 Red. masses --      1.0503                 1.0504                 1.0461
 Frc consts  --      1.4172                 1.4188                 1.4184
 IR Inten    --      1.8020                 5.9623                 2.2605

                     91                     92                     93
                      A                      A                      A
 Frequencies --   1518.8597              1524.0965              1527.8935
 Red. masses --      1.0489                 1.0497                 1.0508
 Frc consts  --      1.4257                 1.4366                 1.4453
 IR Inten    --      2.4125                 2.5986                 2.4737

                     94                     95                     96
                      A                      A                      A
 Frequencies --   1530.7133              1627.1118              1646.4974
 Red. masses --      1.9520                 4.9923                 5.2160
 Frc consts  --      2.6948                 7.7872                 8.3313
 IR Inten    --      8.3640                 0.4885                 1.2725

                     97                     98                     99
                      A                      A                      A
 Frequencies --   3050.4159              3054.1302              3056.5412
 Red. masses --      1.0389                 1.0416                 1.0616
 Frc consts  --      5.6956                 5.7243                 5.8434
 IR Inten    --     12.7526                10.9224                36.2984

                    100                    101                    102
                      A                      A                      A
 Frequencies --   3058.5978              3073.0298              3074.0993
 Red. masses --      1.0555                 1.0352                 1.0352
 Frc consts  --      5.8175                 5.7599                 5.7637
 IR Inten    --     25.0147                14.2680                15.4946

                    103                    104                    105
                      A                      A                      A
 Frequencies --   3113.6161              3119.6843              3123.4015
 Red. masses --      1.1026                 1.1001                 1.0989
 Frc consts  --      6.2982                 6.3084                 6.3163
 IR Inten    --      6.3623                 6.1755                18.2033

                    106                    107                    108
                      A                      A                      A
 Frequencies --   3125.1957              3136.5250              3141.1511
 Red. masses --      1.1013                 1.1031                 1.1023
 Frc consts  --      6.3375                 6.3940                 6.4078
 IR Inten    --     22.2718                13.5060                14.1087

                    109                    110                    111
                      A                      A                      A
 Frequencies --   3150.0236              3152.5185              3154.7440
 Red. masses --      1.1035                 1.1038                 1.1037
 Frc consts  --      6.4511                 6.4632                 6.4716
 IR Inten    --     17.9585                16.0073                 1.7060

                    112                    113                    114
                      A                      A                      A
 Frequencies --   3154.9259              3176.0378              3182.8188
 Red. masses --      1.1037                 1.0855                 1.0880
 Frc consts  --      6.4724                 6.4512                 6.4938
 IR Inten    --     23.4754                 1.9279                 1.8681

                    115                    116                    117
                      A                      A                      A
 Frequencies --   3193.3065              3206.0387              3229.7282
 Red. masses --      1.0923                 1.0971                 1.0921
 Frc consts  --      6.5626                 6.6439                 6.7116
 IR Inten    --     26.7065                33.8318                 6.1269

 - Thermochemistry -
 -------------------
 Temperature   298.150 Kelvin.  Pressure   1.00000 Atm.
 Atom     1 has atomic number  6 and mass  12.00000

 Molecular mass:   292.12283 amu.
 Principal axes and moments of inertia in atomic units:
                           1         2         3
     Eigenvalues --  2942.041577159.335437566.91175
           X            0.99998   0.00115   0.00651
           Y           -0.00088   0.99916  -0.04087
           Z           -0.00655   0.04086   0.99914
 This molecule is an asymmetric top.
 Rotational symmetry number  1.
 Warning -- assumption of classical behavior for rotation
           may cause significant error
 Rotational temperatures (Kelvin)      0.02944     0.01210     0.01145
 Rotational constants (GHZ):           0.61343     0.25208     0.23850
 Zero-point vibrational energy     905931.7 (Joules/Mol)
                                  216.52288 (Kcal/Mol)
 Warning -- explicit consideration of  31 degrees of freedom as
           vibrations may cause significant error
 Vibrational temperatures:     68.42   100.47   111.43   242.93   293.65
          (Kelvin)            303.24   307.63   308.05   333.49   334.17
                              340.52   351.52   355.26   383.22   391.04
                              397.70   414.56   492.82   541.38   547.60
                              598.94   612.38   634.88   658.63   660.35
                              706.19   718.86   727.45   788.63   824.60
                              845.43   896.23   912.30   946.26   993.58
                             1013.70  1033.93  1099.95  1154.56  1203.33
                             1216.26  1241.23  1261.84  1308.54  1313.57
                             1319.13  1363.35  1385.39  1421.00  1421.25
                             1427.34  1443.47  1447.32  1460.77  1464.36
                             1515.83  1530.67  1585.75  1591.16  1596.46
                             1600.60  1603.11  1675.82  1683.20  1718.47
                             1722.99  1751.57  1759.63  1772.66  1793.45
                             1798.12  1817.32  1864.84  1885.16  1907.00
                             1969.33  1987.74  1997.03  2061.73  2064.17
                             2064.72  2077.21  2128.89  2149.48  2157.99
                             2173.61  2174.24  2177.38  2178.41  2182.67
                             2185.30  2192.83  2198.30  2202.36  2341.05
                             2368.94  4388.87  4394.21  4397.68  4400.64
                             4421.40  4422.94  4479.80  4488.53  4493.88
                             4496.46  4512.76  4519.42  4532.18  4535.77
                             4538.97  4539.23  4569.61  4579.37  4594.46
                             4612.77  4646.86

 Zero-point correction=                           0.345051 (Hartree/Particle)
 Thermal correction to Energy=                    0.363166
 Thermal correction to Enthalpy=                  0.364110
 Thermal correction to Gibbs Free Energy=         0.301452
 Sum of electronic and zero-point Energies=          -1189.035581
 Sum of electronic and thermal Energies=             -1189.017466
 Sum of electronic and thermal Enthalpies=           -1189.016522
 Sum of electronic and thermal Free Energies=        -1189.079180

                     E (Thermal)             CV                S
                      KCal/Mol        Cal/Mol-Kelvin    Cal/Mol-Kelvin
 Total                  227.890             75.344            131.875
 Electronic               0.000              0.000              0.000
 Translational            0.889              2.981             42.913
 Rotational               0.889              2.981             33.432
 Vibrational            226.113             69.382             55.529
 Vibration     1          0.595              1.979              4.917
 Vibration     2          0.598              1.969              4.158
 Vibration     3          0.599              1.964              3.955
 Vibration     4          0.625              1.881              2.448
 Vibration     5          0.640              1.834              2.096
 Vibration     6          0.643              1.824              2.037
 Vibration     7          0.644              1.820              2.011
 Vibration     8          0.644              1.819              2.008
 Vibration     9          0.653              1.792              1.865
 Vibration    10          0.653              1.792              1.861
 Vibration    11          0.656              1.785              1.828
 Vibration    12          0.660              1.772              1.771
 Vibration    13          0.661              1.768              1.752
 Vibration    14          0.672              1.735              1.620
 Vibration    15          0.675              1.725              1.585
 Vibration    16          0.678              1.717              1.556
 Vibration    17          0.685              1.696              1.485
 Vibration    18          0.722              1.590              1.200
 Vibration    19          0.747              1.521              1.054
 Vibration    20          0.750              1.512              1.037
 Vibration    21          0.780              1.435              0.905
 Vibration    22          0.787              1.414              0.873
 Vibration    23          0.801              1.380              0.823
 Vibration    24          0.816              1.344              0.773
 Vibration    25          0.817              1.341              0.769
 Vibration    26          0.847              1.270              0.681
 Vibration    27          0.855              1.251              0.659
 Vibration    28          0.861              1.238              0.644
 Vibration    29          0.903              1.144              0.548
 Vibration    30          0.929              1.089              0.498
 Vibration    31          0.945              1.058              0.471

 Optimization completed.
    -- Stationary point found.
 Normal termination of Gaussian 16 at Thu Mar  7 11:50:18 2019.
 Gaussian 16:  ES64L-G16RevA.03 25-Dec-2016

 ----------------------------------------------------------------------
 # TD(NStates=10, Root=1) B3LYP/6-31G* volume pop=NPA density=current G
 eom=AllCheck Guess=Read
 ----------------------------------------------------------------------

 Structure from the checkpoint file:  "direct_arylation_ligand_48_conf43.chk"
 -------------------
 Title Card Required
 -------------------
 Charge =  0 Multiplicity = 1

                         Standard orientation:
 ---------------------------------------------------------------------
 Center     Atomic      Atomic             Coordinates (Angstroms)
 Number     Number       Type             X           Y           Z
 ---------------------------------------------------------------------
      1          6           0        2.664085    0.402554    0.254172
      2          8           0        2.671811   -0.643237   -0.717108
      3          6           0        1.353607   -1.091343   -1.028698
      4          6           0        0.589192    0.096033   -1.633511
      5          6           0        0.572545    1.270994   -0.651091
      6          8           0        1.925881    1.531884   -0.215086
      7         15           0       -0.410731    0.874448    0.946459
      8          6           0        0.630254   -0.690074    1.266092
      9          6           0        2.053311   -0.169862    1.544297
     10          8           0        0.700133   -1.595386    0.138899
     11          6           0        0.086575   -1.510124    2.430085
     12          6           0       -2.062231    0.277798    0.351388
     13          6           0       -2.365710   -1.002124   -0.149333
     14          6           0       -3.669607   -1.327409   -0.527288
     15          6           0       -4.693033   -0.383010   -0.426207
     16          6           0       -4.408965    0.890227    0.068960
     17          6           0       -3.109553    1.210552    0.464341
     18          6           0        0.082962    2.561786   -1.290479
     19          6           0        1.499491   -2.268651   -1.974890
     20          6           0        4.097884    0.872086    0.415429
     21          1           0       -0.428301   -0.198493   -1.905687
     22          1           0        1.113785    0.403604   -2.546871
     23          1           0        2.677303   -1.008472    1.876701
     24          1           0        2.045037    0.591625    2.330760
     25          1           0        0.062005   -0.905187    3.342464
     26          1           0        0.732321   -2.379313    2.601104
     27          1           0       -0.926461   -1.868642    2.226059
     28          1           0       -1.578687   -1.742422   -0.238984
     29          1           0       -3.885081   -2.323601   -0.905867
     30          1           0       -5.705746   -0.640004   -0.725688
     31          1           0       -5.199502    1.630707    0.159621
     32          1           0       -2.903669    2.196272    0.875471
     33          1           0        0.703893    2.806788   -2.160402
     34          1           0        0.144589    3.389486   -0.577046
     35          1           0       -0.956233    2.458007   -1.620130
     36          1           0        2.034680   -1.959300   -2.876872
     37          1           0        0.514738   -2.653330   -2.255881
     38          1           0        2.064634   -3.062653   -1.479443
     39          1           0        4.469372    1.232757   -0.547449
     40          1           0        4.728965    0.045956    0.754529
     41          1           0        4.145864    1.686803    1.143482
 ---------------------------------------------------------------------

 SCF Done:  E(RB3LYP) =  -1189.38063247     A.U. after    1 cycles

 Excitation energies and oscillator strengths:

 Excited State   1:      Singlet-A      4.6845 eV  264.67 nm  f=0.0397  <S**2>=0.000
      77 -> 79         0.17609
      78 -> 79         0.67837
 This state for optimization and/or second-order correction.
 Total Energy, E(TD-HF/TD-DFT) =  -1189.20847979
 Copying the excited state density for this state as the 1-particle RhoCI density.

 Excited State   2:      Singlet-A      5.0589 eV  245.08 nm  f=0.0004  <S**2>=0.000
      76 -> 79         0.30167
      78 -> 80         0.62142

 Excited State   3:      Singlet-A      5.3054 eV  233.70 nm  f=0.1138  <S**2>=0.000
      76 -> 79        -0.18404
      77 -> 79         0.56832
      77 -> 80         0.25569
      78 -> 79        -0.12362
      78 -> 80         0.19539

 Excited State   4:      Singlet-A      5.3996 eV  229.62 nm  f=0.0539  <S**2>=0.000
      73 -> 80         0.11398
      76 -> 79        -0.34169
      77 -> 79        -0.34564
      77 -> 80         0.42032
      78 -> 79         0.11097
      78 -> 80         0.20641

 Excited State   5:      Singlet-A      5.7527 eV  215.52 nm  f=0.0033  <S**2>=0.000
      73 -> 79         0.17031
      75 -> 79         0.67287

 Excited State   6:      Singlet-A      6.0070 eV  206.40 nm  f=0.0327  <S**2>=0.000
      73 -> 80        -0.24716
      74 -> 80        -0.19964
      75 -> 80         0.20036
      76 -> 79         0.32805
      77 -> 80         0.46515
      78 -> 80        -0.15319

 Excited State   7:      Singlet-A      6.0201 eV  205.95 nm  f=0.0018  <S**2>=0.000
      74 -> 79         0.68101
      76 -> 80         0.10476

 Excited State   8:      Singlet-A      6.2181 eV  199.39 nm  f=0.0017  <S**2>=0.000
      73 -> 79         0.51444
      75 -> 79        -0.12010
      75 -> 80         0.23100
      76 -> 80         0.37568

 Excited State   9:      Singlet-A      6.2539 eV  198.25 nm  f=0.0045  <S**2>=0.000
      73 -> 79        -0.22056
      73 -> 80         0.23533
      75 -> 80         0.59392
      76 -> 79        -0.12001

 Excited State  10:      Singlet-A      6.5518 eV  189.24 nm  f=0.0049  <S**2>=0.000
      73 -> 80        -0.19609
      74 -> 80         0.56747
      78 -> 81        -0.32609

 The electronic state is 1-A.
 Alpha  occ. eigenvalues --  -77.07148 -19.15462 -19.15223 -19.14937 -10.28961
 Alpha  occ. eigenvalues --  -10.28928 -10.25032 -10.24858 -10.19711 -10.19427
 Alpha  occ. eigenvalues --  -10.19395 -10.19266 -10.19233 -10.19012 -10.18660
 Alpha  occ. eigenvalues --  -10.18393 -10.17966 -10.17732 -10.17717 -10.17558
 Alpha  occ. eigenvalues --   -6.54057  -4.70328  -4.70243  -4.69817  -1.08683
 Alpha  occ. eigenvalues --   -1.03157  -0.99247  -0.85281  -0.82816  -0.78785
 Alpha  occ. eigenvalues --   -0.74791  -0.74513  -0.74454  -0.73734  -0.70135
 Alpha  occ. eigenvalues --   -0.69578  -0.64626  -0.61076  -0.60702  -0.60192
 Alpha  occ. eigenvalues --   -0.58452  -0.57708  -0.52238  -0.50968  -0.49848
 Alpha  occ. eigenvalues --   -0.48589  -0.46331  -0.45896  -0.45700  -0.44766
 Alpha  occ. eigenvalues --   -0.44343  -0.43129  -0.42432  -0.42127  -0.41628
 Alpha  occ. eigenvalues --   -0.40916  -0.40091  -0.40047  -0.39949  -0.38354
 Alpha  occ. eigenvalues --   -0.38096  -0.37743  -0.37472  -0.36741  -0.36281
 Alpha  occ. eigenvalues --   -0.36183  -0.34503  -0.34184  -0.33892  -0.32692
 Alpha  occ. eigenvalues --   -0.31970  -0.31260  -0.27412  -0.26434  -0.25872
 Alpha  occ. eigenvalues --   -0.25186  -0.23707  -0.22075
 Alpha virt. eigenvalues --   -0.01969  -0.00424   0.04985   0.05890   0.08569
 Alpha virt. eigenvalues --    0.10035   0.10956   0.11349   0.11694   0.12184
 Alpha virt. eigenvalues --    0.12743   0.12839   0.13743   0.14032   0.15059

 Mulliken charges:
               1
     1  C    0.497575
     2  O   -0.503803
     3  C    0.485441
     4  C   -0.278939
     5  C    0.110501
     6  O   -0.523589
     7  P    0.529060
     8  C    0.102153
     9  C   -0.290920
    10  O   -0.470660
    11  C   -0.472060
    12  C   -0.157788
    13  C   -0.225972
    14  C   -0.112774
    15  C   -0.192997
    16  C   -0.133473
    17  C   -0.184301
    18  C   -0.475659
    19  C   -0.471411
    20  C   -0.464130
    21  H    0.203350
    22  H    0.166427
    23  H    0.162020
    24  H    0.163663
    25  H    0.157812
    26  H    0.163239
    27  H    0.205951
    28  H    0.114940
    29  H    0.099742
    30  H    0.087037
    31  H    0.095254
    32  H    0.090368
    33  H    0.161397
    34  H    0.165273
    35  H    0.188749
    36  H    0.167082
    37  H    0.174861
    38  H    0.173517
    39  H    0.173435
    40  H    0.159930
    41  H    0.159703
 Sum of Mulliken charges =  -0.00000

 Dipole moment (field-independent basis, Debye):
    X=              6.3444    Y=              0.4297    Z=              0.8260  Tot=              6.4124
 Quadrupole moment (field-independent basis, Debye-Ang):
   XX=           -144.7695   YY=           -122.4662   ZZ=           -118.2019
   XY=             -2.3475   XZ=              2.9337   YZ=              1.5779

 Summary of Natural Population Analysis:

                                       Natural Population
                Natural  -----------------------------------------------
    Atom  No    Charge         Core      Valence    Rydberg      Total
 -----------------------------------------------------------------------
      C    1    0.58557      1.99904     3.37891    0.03648     5.41443
      O    2   -0.60688      1.99973     6.59385    0.01329     8.60688
      C    3    0.58461      1.99903     3.38048    0.03588     5.41539
      C    4   -0.52434      1.99907     4.50932    0.01595     6.52434
      C    5   -0.02782      1.99907     3.99629    0.03246     6.02782
      O    6   -0.60228      1.99974     6.58551    0.01703     8.60228
      P    7    1.24112      9.99750     3.71479    0.04658    13.75888
      C    8   -0.01233      1.99901     3.98302    0.03030     6.01233
      C    9   -0.53271      1.99910     4.51838    0.01523     6.53271
      O   10   -0.52222      1.99974     6.50687    0.01561     8.52222
      C   11   -0.69674      1.99932     4.68467    0.01275     6.69674
      C   12   -0.57878      1.99885     4.55599    0.02393     6.57878
      C   13   -0.33035      1.99901     4.31061    0.02073     6.33035
      C   14   -0.21745      1.99908     4.20386    0.01450     6.21745
      C   15   -0.34702      1.99910     4.33010    0.01783     6.34702
      C   16   -0.26539      1.99909     4.25035    0.01594     6.26539
      C   17   -0.24175      1.99904     4.22622    0.01649     6.24175
      C   18   -0.69819      1.99931     4.68613    0.01276     6.69819
      C   19   -0.69346      1.99927     4.68368    0.01051     6.69346
      C   20   -0.69113      1.99928     4.68135    0.01051     6.69113
      H   21    0.28564      0.00000     0.71276    0.00160     0.71436
      H   22    0.26296      0.00000     0.73430    0.00274     0.73704
      H   23    0.25873      0.00000     0.73852    0.00276     0.74127
      H   24    0.25736      0.00000     0.74132    0.00132     0.74264
      H   25    0.24389      0.00000     0.75550    0.00061     0.75611
      H   26    0.24646      0.00000     0.75196    0.00158     0.75354
      H   27    0.27144      0.00000     0.72742    0.00114     0.72856
      H   28    0.22415      0.00000     0.77443    0.00142     0.77585
      H   29    0.22351      0.00000     0.77563    0.00086     0.77649
      H   30    0.21626      0.00000     0.78297    0.00077     0.78374
      H   31    0.22116      0.00000     0.77797    0.00087     0.77884
      H   32    0.21011      0.00000     0.78881    0.00107     0.78989
      H   33    0.24497      0.00000     0.75335    0.00168     0.75503
      H   34    0.24586      0.00000     0.75295    0.00119     0.75414
      H   35    0.26157      0.00000     0.73747    0.00095     0.73843
      H   36    0.25050      0.00000     0.74877    0.00073     0.74950
      H   37    0.25259      0.00000     0.74648    0.00093     0.74741
      H   38    0.25469      0.00000     0.74387    0.00143     0.74531
      H   39    0.25516      0.00000     0.74332    0.00152     0.74484
      H   40    0.24516      0.00000     0.75406    0.00078     0.75484
      H   41    0.24536      0.00000     0.75382    0.00082     0.75464
 =======================================================================
   * Total *   -0.00000     47.98237   107.57608    0.44156   156.00000

 Normal termination of Gaussian 16 at Thu Mar  7 12:03:14 2019.
