 Gaussian 16, Revision A.03,

 ---------------------------------
 # opt=CalcFc B3LYP/6-31G* scf=xqc
 ---------------------------------

 -------------------
 Title Card Required
 -------------------
 Symbolic Z-matrix:
 Charge =  0 Multiplicity = 1

 SCF Done:  E(RB3LYP) =  -1189.37147565     A.U. after   14 cycles
 SCF Done:  E(RB3LYP) =  -1189.37987854     A.U. after   12 cycles
 SCF Done:  E(RB3LYP) =  -1189.38060288     A.U. after   12 cycles
 SCF Done:  E(RB3LYP) =  -1189.38063003     A.U. after   10 cycles
 SCF Done:  E(RB3LYP) =  -1189.38063241     A.U. after    9 cycles
 SCF Done:  E(RB3LYP) =  -1189.38063250     A.U. after    6 cycles
 Optimization completed.
    -- Stationary point found.
 Normal termination of Gaussian 16 at Wed Feb 27 00:42:29 2019.

 ----------------------------------------------------------------------
 # freq B3LYP/6-31G* volume NMR pop=NPA density=current Geom=AllCheck G
 uess=Read
 ----------------------------------------------------------------------

 Structure from the checkpoint file:  "direct_arylation_ligand_48_conf52.chk"
 -------------------
 Title Card Required
 -------------------
 Charge =  0 Multiplicity = 1

 SCF Done:  E(RB3LYP) =  -1189.38063250     A.U. after    1 cycles

      1  C    Isotropic =    93.5924   Anisotropy =    26.1965

      2  O    Isotropic =   210.4726   Anisotropy =    86.0793

      3  C    Isotropic =    93.9461   Anisotropy =    26.4285

      4  C    Isotropic =   154.4758   Anisotropy =    18.8006

      5  C    Isotropic =   112.5791   Anisotropy =    59.2487

      6  O    Isotropic =   219.2979   Anisotropy =    49.0637

      7  P    Isotropic =   381.1021   Anisotropy =   154.7048

      8  C    Isotropic =   111.8818   Anisotropy =    52.8668

      9  C    Isotropic =   145.7402   Anisotropy =    10.9351

     10  O    Isotropic =   229.5956   Anisotropy =    43.9849

     11  C    Isotropic =   162.6926   Anisotropy =    37.8746

     12  C    Isotropic =    57.3193   Anisotropy =   174.2706

     13  C    Isotropic =    63.3645   Anisotropy =   174.3733

     14  C    Isotropic =    68.5984   Anisotropy =   164.5624

     15  C    Isotropic =    67.3530   Anisotropy =   168.3660

     16  C    Isotropic =    68.7687   Anisotropy =   164.3057

     17  C    Isotropic =    58.5795   Anisotropy =   164.1479

     18  C    Isotropic =   161.9213   Anisotropy =    39.3234

     19  C    Isotropic =   161.6249   Anisotropy =    43.3282

     20  C    Isotropic =   162.0391   Anisotropy =    43.0353

     21  H    Isotropic =    30.3281   Anisotropy =     5.0119

     22  H    Isotropic =    30.7723   Anisotropy =     5.8066

     23  H    Isotropic =    30.3670   Anisotropy =     5.7759

     24  H    Isotropic =    30.3005   Anisotropy =     5.4314

     25  H    Isotropic =    31.0617   Anisotropy =     9.0018

     26  H    Isotropic =    30.8948   Anisotropy =     8.6218

     27  H    Isotropic =    30.2993   Anisotropy =     6.2400

     28  H    Isotropic =    23.8609   Anisotropy =    11.8308

     29  H    Isotropic =    24.9439   Anisotropy =     6.2198

     30  H    Isotropic =    24.9778   Anisotropy =     3.9406

     31  H    Isotropic =    24.9598   Anisotropy =     4.8071

     32  H    Isotropic =    24.6490   Anisotropy =     9.5713

     33  H    Isotropic =    31.0727   Anisotropy =     9.0930

     34  H    Isotropic =    30.5846   Anisotropy =     8.7757

     35  H    Isotropic =    31.2347   Anisotropy =     6.9735

     36  H    Isotropic =    31.0409   Anisotropy =     8.8525

     37  H    Isotropic =    30.9310   Anisotropy =     7.8507

     38  H    Isotropic =    30.6301   Anisotropy =     8.2617

     39  H    Isotropic =    30.7191   Anisotropy =     8.2071

     40  H    Isotropic =    31.0661   Anisotropy =     8.7445

     41  H    Isotropic =    30.9955   Anisotropy =     8.3606

  Exact polarizability: 243.780  -0.258 177.724   9.497   7.753 151.360
 Approx polarizability: 337.687  -1.860 297.666  14.432  22.079 231.579

                      1                      2                      3
                      A                      A                      A
 Frequencies --     47.5249                69.8125                77.4381
 Red. masses --      4.1114                 4.1200                 4.3181
 Frc consts  --      0.0055                 0.0118                 0.0153
 IR Inten    --      0.0820                 0.0595                 0.1376

                      4                      5                      6
                      A                      A                      A
 Frequencies --    168.8433               204.0716               210.7682
 Red. masses --      4.4697                 3.3454                 1.0790
 Frc consts  --      0.0751                 0.0821                 0.0282
 IR Inten    --      0.0540                 1.7294                 0.1455

                      7                      8                      9
                      A                      A                      A
 Frequencies --    213.8113               214.1140               231.7525
 Red. masses --      3.4881                 1.0441                 1.5388
 Frc consts  --      0.0940                 0.0282                 0.0487
 IR Inten    --      0.2063                 0.0446                 0.1061

                     10                     11                     12
                      A                      A                      A
 Frequencies --    232.2199               236.6667               244.3135
 Red. masses --      1.1165                 2.5754                 2.4267
 Frc consts  --      0.0355                 0.0850                 0.0853
 IR Inten    --      0.6620                 0.6537                 0.3718

                     13                     14                     15
                      A                      A                      A
 Frequencies --    246.9000               266.3526               271.7768
 Red. masses --      1.7270                 2.3998                 2.8627
 Frc consts  --      0.0620                 0.1003                 0.1246
 IR Inten    --      0.1827                 0.8056                 1.2472

                     16                     17                     18
                      A                      A                      A
 Frequencies --    276.4108               288.1346               342.5296
 Red. masses --      2.9819                 2.8978                 4.7543
 Frc consts  --      0.1342                 0.1417                 0.3287
 IR Inten    --      2.2056                 4.4750                 2.9598

                     19                     20                     21
                      A                      A                      A
 Frequencies --    376.2817               380.6056               416.2810
 Red. masses --      6.4944                 4.1479                 3.0293
 Frc consts  --      0.5418                 0.3540                 0.3093
 IR Inten    --      1.5826                 1.0584                 0.2263

                     22                     23                     24
                      A                      A                      A
 Frequencies --    425.6216               441.2643               457.7739
 Red. masses --      3.7290                 4.6127                 6.3888
 Frc consts  --      0.3980                 0.5292                 0.7888
 IR Inten    --      1.6138                 8.8487                 7.8428

                     25                     26                     27
                      A                      A                      A
 Frequencies --    458.9725               490.8244               499.6284
 Red. masses --      3.3926                 3.4670                 3.7280
 Frc consts  --      0.4211                 0.4921                 0.5483
 IR Inten    --      1.4291                 0.7635                 5.7522

                     28                     29                     30
                      A                      A                      A
 Frequencies --    505.6010               548.1245               573.1299
 Red. masses --      2.9464                 3.8661                 4.7720
 Frc consts  --      0.4438                 0.6844                 0.9235
 IR Inten    --      1.6417                 4.3019                 9.0228

                     31                     32                     33
                      A                      A                      A
 Frequencies --    587.6036               622.9080               634.0846
 Red. masses --      3.9211                 3.8405                 6.2843
 Frc consts  --      0.7977                 0.8780                 1.4887
 IR Inten    --      5.0103                 1.6358                 0.5537

                     34                     35                     36
                      A                      A                      A
 Frequencies --    657.6913               690.5793               704.5598
 Red. masses --      3.1099                 4.9258                 6.4153
 Frc consts  --      0.7926                 1.3840                 1.8763
 IR Inten    --      1.5269                 8.0437                 2.3684

                     37                     38                     39
                      A                      A                      A
 Frequencies --    718.6084               764.5066               802.4545
 Red. masses --      2.3324                 1.5414                 3.5341
 Frc consts  --      0.7096                 0.5308                 1.3408
 IR Inten    --     17.0825                29.6555                18.7460

                     40                     41                     42
                      A                      A                      A
 Frequencies --    836.3554               845.3486               862.6977
 Red. masses --      5.5036                 2.5160                 2.8986
 Frc consts  --      2.2682                 1.0593                 1.2710
 IR Inten    --      7.0183                 1.3278                13.7086

                     43                     44                     45
                      A                      A                      A
 Frequencies --    877.0186               909.5027               913.0018
 Red. masses --      1.2458                 3.5221                 2.7001
 Frc consts  --      0.5646                 1.7165                 1.3261
 IR Inten    --      0.0474                50.5586                30.1663

                     46                     47                     48
                      A                      A                      A
 Frequencies --    916.8441               947.5775               962.8961
 Red. masses --      2.3420                 1.3482                 2.2134
 Frc consts  --      1.1599                 0.7132                 1.2091
 IR Inten    --     14.0033                 1.3093                 4.4324

                     49                     50                     51
                      A                      A                      A
 Frequencies --    987.6437               987.8217               992.0564
 Red. masses --      1.7202                 1.7576                 1.3415
 Frc consts  --      0.9886                 1.0105                 0.7779
 IR Inten    --     14.6719                 9.5520                 0.8858

                     52                     53                     54
                      A                      A                      A
 Frequencies --   1003.2733              1005.9400              1015.2875
 Red. masses --      2.0082                 1.9605                 4.7027
 Frc consts  --      1.1909                 1.1689                 2.8561
 IR Inten    --     32.5046                66.9805                 0.9668

                     55                     56                     57
                      A                      A                      A
 Frequencies --   1017.7751              1053.5594              1063.8645
 Red. masses --      1.3307                 3.4498                 1.5410
 Frc consts  --      0.8122                 2.2561                 1.0276
 IR Inten    --      1.9997                 1.1154                 0.0161

                     58                     59                     60
                      A                      A                      A
 Frequencies --   1102.1493              1105.9062              1109.5979
 Red. masses --      2.3085                 2.0889                 2.1468
 Frc consts  --      1.6522                 1.5052                 1.5573
 IR Inten    --     18.4702                21.3861                 0.9991

                     61                     62                     63
                      A                      A                      A
 Frequencies --   1112.4822              1114.2133              1164.7516
 Red. masses --      2.1338                 1.9866                 2.3694
 Frc consts  --      1.5559                 1.4531                 1.8939
 IR Inten    --     11.6940                21.2136                41.7610

                     64                     65                     66
                      A                      A                      A
 Frequencies --   1169.8828              1194.3949              1197.5384
 Red. masses --      2.2454                 1.1197                 3.6046
 Frc consts  --      1.8106                 0.9412                 3.0457
 IR Inten    --     48.1753                 1.0125                24.2154

                     67                     68                     69
                      A                      A                      A
 Frequencies --   1217.3995              1223.0051              1232.0566
 Red. masses --      2.1090                 1.2799                 2.1261
 Frc consts  --      1.8416                 1.1280                 1.9015
 IR Inten    --    114.4765                 5.2221                69.2269

                     70                     71                     72
                      A                      A                      A
 Frequencies --   1246.5255              1249.7609              1263.1080
 Red. masses --      3.0762                 3.1415                 1.3881
 Frc consts  --      2.8162                 2.8909                 1.3048
 IR Inten    --     59.5671               107.2355                28.5029

                     73                     74                     75
                      A                      A                      A
 Frequencies --   1296.1251              1310.2615              1325.4428
 Red. masses --      3.2506                 1.5932                 4.0576
 Frc consts  --      3.2174                 1.6115                 4.1999
 IR Inten    --     27.9052                 3.5399                 2.4027

                     76                     77                     78
                      A                      A                      A
 Frequencies --   1368.7488              1381.5578              1388.0144
 Red. masses --      1.5461                 1.8969                 1.9086
 Frc consts  --      1.7066                 2.1332                 2.1665
 IR Inten    --      1.3610                35.3779                27.8049

                     79                     80                     81
                      A                      A                      A
 Frequencies --   1432.9689              1434.6671              1435.0518
 Red. masses --      1.2646                 1.2571                 1.3406
 Frc consts  --      1.5300                 1.5245                 1.6267
 IR Inten    --     10.3191                11.5125                24.8815

                     82                     83                     84
                      A                      A                      A
 Frequencies --   1443.7334              1479.6463              1493.9666
 Red. masses --      1.4828                 2.1002                 1.0952
 Frc consts  --      1.8210                 2.7091                 1.4402
 IR Inten    --     17.9760                 8.6144                 3.0555

                     85                     86                     87
                      A                      A                      A
 Frequencies --   1499.8820              1510.7368              1511.1691
 Red. masses --      1.0970                 1.0516                 1.0511
 Frc consts  --      1.4540                 1.4140                 1.4142
 IR Inten    --      1.0009                 0.6660                 0.5649

                     88                     89                     90
                      A                      A                      A
 Frequencies --   1513.3542              1514.0693              1517.0308
 Red. masses --      1.0503                 1.0504                 1.0461
 Frc consts  --      1.4172                 1.4188                 1.4184
 IR Inten    --      1.8018                 5.9617                 2.2615

                     91                     92                     93
                      A                      A                      A
 Frequencies --   1518.8594              1524.0953              1527.8901
 Red. masses --      1.0489                 1.0497                 1.0508
 Frc consts  --      1.4257                 1.4366                 1.4452
 IR Inten    --      2.4122                 2.5998                 2.4742

                     94                     95                     96
                      A                      A                      A
 Frequencies --   1530.7194              1627.1263              1646.5008
 Red. masses --      1.9522                 4.9925                 5.2162
 Frc consts  --      2.6950                 7.7877                 8.3317
 IR Inten    --      8.3617                 0.4879                 1.2707

                     97                     98                     99
                      A                      A                      A
 Frequencies --   3050.4290              3054.1358              3056.5326
 Red. masses --      1.0389                 1.0417                 1.0616
 Frc consts  --      5.6958                 5.7247                 5.8432
 IR Inten    --     12.7106                10.8723                36.3752

                    100                    101                    102
                      A                      A                      A
 Frequencies --   3058.5904              3073.0225              3074.0949
 Red. masses --      1.0554                 1.0352                 1.0352
 Frc consts  --      5.8172                 5.7599                 5.7637
 IR Inten    --     25.0435                14.2642                15.4965

                    103                    104                    105
                      A                      A                      A
 Frequencies --   3113.6052              3119.6877              3123.3952
 Red. masses --      1.1026                 1.1001                 1.0989
 Frc consts  --      6.2981                 6.3084                 6.3164
 IR Inten    --      6.3651                 6.1092                18.2742

                    106                    107                    108
                      A                      A                      A
 Frequencies --   3125.2006              3136.5503              3141.1809
 Red. masses --      1.1013                 1.1031                 1.1022
 Frc consts  --      6.3375                 6.3941                 6.4079
 IR Inten    --     22.2566                13.5079                14.1128

                    109                    110                    111
                      A                      A                      A
 Frequencies --   3150.0139              3152.5115              3154.7399
 Red. masses --      1.1035                 1.1038                 1.1037
 Frc consts  --      6.4510                 6.4632                 6.4716
 IR Inten    --     17.9641                16.0060                 1.6221

                    112                    113                    114
                      A                      A                      A
 Frequencies --   3154.9203              3176.0452              3182.8251
 Red. masses --      1.1037                 1.0855                 1.0880
 Frc consts  --      6.4724                 6.4512                 6.4938
 IR Inten    --     23.5608                 1.9230                 1.8710

                    115                    116                    117
                      A                      A                      A
 Frequencies --   3193.3098              3206.0374              3229.7670
 Red. masses --      1.0923                 1.0971                 1.0921
 Frc consts  --      6.5626                 6.6439                 6.7118
 IR Inten    --     26.7116                33.8353                 6.1191

 - Thermochemistry -
 -------------------
 Temperature   298.150 Kelvin.  Pressure   1.00000 Atm.
 Atom     1 has atomic number  6 and mass  12.00000

 Molecular mass:   292.12283 amu.
 Principal axes and moments of inertia in atomic units:
                           1         2         3
     Eigenvalues --  2942.008207159.586417567.07220
           X            0.99998   0.00115   0.00650
           Y           -0.00088   0.99916  -0.04087
           Z           -0.00655   0.04086   0.99914
 This molecule is an asymmetric top.
 Rotational symmetry number  1.
 Warning -- assumption of classical behavior for rotation
           may cause significant error
 Rotational temperatures (Kelvin)      0.02944     0.01210     0.01145
 Rotational constants (GHZ):           0.61344     0.25207     0.23850
 Zero-point vibrational energy     905932.0 (Joules/Mol)
                                  216.52293 (Kcal/Mol)
 Warning -- explicit consideration of  31 degrees of freedom as
           vibrations may cause significant error
 Vibrational temperatures:     68.38   100.44   111.42   242.93   293.61
          (Kelvin)            303.25   307.63   308.06   333.44   334.11
                              340.51   351.51   355.23   383.22   391.03
                              397.69   414.56   492.82   541.39   547.61
                              598.94   612.37   634.88   658.63   660.36
                              706.19   718.85   727.45   788.63   824.61
                              845.43   896.23   912.31   946.27   993.59
                             1013.70  1033.92  1099.95  1154.55  1203.33
                             1216.27  1241.23  1261.83  1308.57  1313.61
                             1319.13  1363.35  1385.39  1421.00  1421.26
                             1427.35  1443.49  1447.32  1460.77  1464.35
                             1515.84  1530.66  1585.75  1591.15  1596.46
                             1600.61  1603.10  1675.82  1683.20  1718.47
                             1722.99  1751.57  1759.63  1772.65  1793.47
                             1798.13  1817.33  1864.83  1885.17  1907.02
                             1969.32  1987.75  1997.04  2061.72  2064.17
                             2064.72  2077.21  2128.88  2149.48  2158.00
                             2173.61  2174.24  2177.38  2178.41  2182.67
                             2185.30  2192.83  2198.29  2202.36  2341.07
                             2368.95  4388.89  4394.22  4397.67  4400.63
                             4421.39  4422.94  4479.78  4488.53  4493.87
                             4496.47  4512.80  4519.46  4532.17  4535.76
                             4538.97  4539.23  4569.62  4579.38  4594.46
                             4612.77  4646.91

 Zero-point correction=                           0.345051 (Hartree/Particle)
 Thermal correction to Energy=                    0.363167
 Thermal correction to Enthalpy=                  0.364111
 Thermal correction to Gibbs Free Energy=         0.301451
 Sum of electronic and zero-point Energies=          -1189.035581
 Sum of electronic and thermal Energies=             -1189.017466
 Sum of electronic and thermal Enthalpies=           -1189.016522
 Sum of electronic and thermal Free Energies=        -1189.079181

                     E (Thermal)             CV                S
                      KCal/Mol        Cal/Mol-Kelvin    Cal/Mol-Kelvin
 Total                  227.890             75.344            131.878
 Electronic               0.000              0.000              0.000
 Translational            0.889              2.981             42.913
 Rotational               0.889              2.981             33.432
 Vibrational            226.113             69.382             55.532
 Vibration     1          0.595              1.979              4.918
 Vibration     2          0.598              1.969              4.159
 Vibration     3          0.599              1.964              3.955
 Vibration     4          0.625              1.881              2.448
 Vibration     5          0.640              1.834              2.096
 Vibration     6          0.643              1.824              2.037
 Vibration     7          0.644              1.820              2.011
 Vibration     8          0.644              1.819              2.008
 Vibration     9          0.653              1.792              1.865
 Vibration    10          0.653              1.792              1.862
 Vibration    11          0.656              1.785              1.828
 Vibration    12          0.660              1.772              1.771
 Vibration    13          0.661              1.768              1.753
 Vibration    14          0.672              1.735              1.620
 Vibration    15          0.675              1.725              1.585
 Vibration    16          0.678              1.717              1.556
 Vibration    17          0.685              1.696              1.485
 Vibration    18          0.722              1.590              1.200
 Vibration    19          0.747              1.521              1.054
 Vibration    20          0.750              1.512              1.037
 Vibration    21          0.779              1.435              0.905
 Vibration    22          0.787              1.414              0.873
 Vibration    23          0.801              1.380              0.823
 Vibration    24          0.816              1.344              0.773
 Vibration    25          0.817              1.341              0.769
 Vibration    26          0.847              1.270              0.681
 Vibration    27          0.855              1.251              0.659
 Vibration    28          0.861              1.238              0.644
 Vibration    29          0.903              1.144              0.548
 Vibration    30          0.929              1.089              0.498
 Vibration    31          0.945              1.058              0.471

 Optimization completed.
    -- Stationary point found.
 Normal termination of Gaussian 16 at Wed Feb 27 00:56:08 2019.
 Gaussian 16:  ES64L-G16RevA.03 25-Dec-2016

 ----------------------------------------------------------------------
 # TD(NStates=10, Root=1) B3LYP/6-31G* volume pop=NPA density=current G
 eom=AllCheck Guess=Read
 ----------------------------------------------------------------------

 Structure from the checkpoint file:  "direct_arylation_ligand_48_conf53.chk"
 -------------------
 Title Card Required
 -------------------
 Charge =  0 Multiplicity = 1

                         Standard orientation:
 ---------------------------------------------------------------------
 Center     Atomic      Atomic             Coordinates (Angstroms)
 Number     Number       Type             X           Y           Z
 ---------------------------------------------------------------------
      1          6           0        2.664110    0.402518    0.254225
      2          8           0        2.671850   -0.643381   -0.716911
      3          6           0        1.353668   -1.091494   -1.028511
      4          6           0        0.589335    0.095791   -1.633575
      5          6           0        0.572603    1.270898   -0.651330
      6          8           0        1.925897    1.531806   -0.215136
      7         15           0       -0.410792    0.874633    0.946198
      8          6           0        0.630193   -0.689841    1.266174
      9          6           0        2.053262   -0.169669    1.544393
     10          8           0        0.700059   -1.595307    0.139108
     11          6           0        0.086518   -1.509716    2.430296
     12          6           0       -2.062276    0.277862    0.351240
     13          6           0       -2.365746   -1.002026   -0.149559
     14          6           0       -3.669656   -1.327364   -0.527426
     15          6           0       -4.693137   -0.383054   -0.426131
     16          6           0       -4.409107    0.890130    0.069179
     17          6           0       -3.109670    1.210506    0.464437
     18          6           0        0.083255    2.561627   -1.291024
     19          6           0        1.499573   -2.268972   -1.974488
     20          6           0        4.097906    0.872070    0.415449
     21          1           0       -0.428140   -0.198763   -1.905794
     22          1           0        1.114001    0.403211   -2.546946
     23          1           0        2.677173   -1.008263    1.876996
     24          1           0        2.044971    0.591956    2.330723
     25          1           0        0.061763   -0.904572    3.342533
     26          1           0        0.732393   -2.378755    2.601581
     27          1           0       -0.926435   -1.868454    2.226272
     28          1           0       -1.578734   -1.742319   -0.239297
     29          1           0       -3.885094   -2.323534   -0.906083
     30          1           0       -5.705862   -0.640083   -0.725542
     31          1           0       -5.199689    1.630537    0.160042
     32          1           0       -2.903842    2.196182    0.875696
     33          1           0        0.704522    2.806499   -2.160743
     34          1           0        0.144629    3.389421   -0.577680
     35          1           0       -0.955804    2.457811   -1.621079
     36          1           0        2.034849   -1.959810   -2.876485
     37          1           0        0.514825   -2.653659   -2.255487
     38          1           0        2.064637   -3.062914   -1.478854
     39          1           0        4.469427    1.232583   -0.547476
     40          1           0        4.728978    0.045996    0.754704
     41          1           0        4.145863    1.686906    1.143371
 ---------------------------------------------------------------------

 SCF Done:  E(RB3LYP) =  -1189.38063250     A.U. after    2 cycles

 Excitation energies and oscillator strengths:

 Excited State   1:      Singlet-A      4.6843 eV  264.68 nm  f=0.0397  <S**2>=0.000
      77 -> 79         0.17600
      78 -> 79         0.67840
 This state for optimization and/or second-order correction.
 Total Energy, E(TD-HF/TD-DFT) =  -1189.20848711
 Copying the excited state density for this state as the 1-particle RhoCI density.

 Excited State   2:      Singlet-A      5.0590 eV  245.08 nm  f=0.0004  <S**2>=0.000
      76 -> 79         0.30164
      78 -> 80         0.62141

 Excited State   3:      Singlet-A      5.3053 eV  233.70 nm  f=0.1137  <S**2>=0.000
      76 -> 79        -0.18421
      77 -> 79         0.56812
      77 -> 80         0.25588
      78 -> 79        -0.12348
      78 -> 80         0.19562

 Excited State   4:      Singlet-A      5.3995 eV  229.62 nm  f=0.0540  <S**2>=0.000
      73 -> 80         0.11392
      76 -> 79        -0.34168
      77 -> 79        -0.34597
      77 -> 80         0.42011
      78 -> 79         0.11100
      78 -> 80         0.20629

 Excited State   5:      Singlet-A      5.7526 eV  215.53 nm  f=0.0033  <S**2>=0.000
      73 -> 79         0.17033
      75 -> 79         0.67287

 Excited State   6:      Singlet-A      6.0070 eV  206.40 nm  f=0.0327  <S**2>=0.000
      73 -> 80        -0.24710
      74 -> 80        -0.19946
      75 -> 80         0.20060
      76 -> 79         0.32805
      77 -> 80         0.46519
      78 -> 80        -0.15311

 Excited State   7:      Singlet-A      6.0202 eV  205.95 nm  f=0.0018  <S**2>=0.000
      74 -> 79         0.68103
      76 -> 80         0.10474

 Excited State   8:      Singlet-A      6.2181 eV  199.39 nm  f=0.0017  <S**2>=0.000
      73 -> 79         0.51460
      75 -> 79        -0.12012
      75 -> 80         0.23053
      76 -> 80         0.37576

 Excited State   9:      Singlet-A      6.2539 eV  198.25 nm  f=0.0045  <S**2>=0.000
      73 -> 79        -0.22014
      73 -> 80         0.23550
      75 -> 80         0.59401
      76 -> 79        -0.12010

 Excited State  10:      Singlet-A      6.5519 eV  189.23 nm  f=0.0049  <S**2>=0.000
      73 -> 80        -0.19638
      74 -> 80         0.56832
      78 -> 81        -0.32461

 The electronic state is 1-A.
 Alpha  occ. eigenvalues --  -77.07148 -19.15461 -19.15223 -19.14938 -10.28961
 Alpha  occ. eigenvalues --  -10.28927 -10.25032 -10.24858 -10.19711 -10.19427
 Alpha  occ. eigenvalues --  -10.19395 -10.19265 -10.19233 -10.19012 -10.18659
 Alpha  occ. eigenvalues --  -10.18393 -10.17966 -10.17732 -10.17717 -10.17558
 Alpha  occ. eigenvalues --   -6.54057  -4.70327  -4.70243  -4.69817  -1.08683
 Alpha  occ. eigenvalues --   -1.03157  -0.99248  -0.85281  -0.82817  -0.78785
 Alpha  occ. eigenvalues --   -0.74791  -0.74513  -0.74454  -0.73734  -0.70135
 Alpha  occ. eigenvalues --   -0.69578  -0.64626  -0.61077  -0.60702  -0.60192
 Alpha  occ. eigenvalues --   -0.58452  -0.57708  -0.52238  -0.50968  -0.49848
 Alpha  occ. eigenvalues --   -0.48589  -0.46330  -0.45895  -0.45701  -0.44766
 Alpha  occ. eigenvalues --   -0.44343  -0.43129  -0.42432  -0.42127  -0.41628
 Alpha  occ. eigenvalues --   -0.40916  -0.40091  -0.40047  -0.39949  -0.38354
 Alpha  occ. eigenvalues --   -0.38096  -0.37743  -0.37472  -0.36741  -0.36281
 Alpha  occ. eigenvalues --   -0.36183  -0.34503  -0.34184  -0.33892  -0.32692
 Alpha  occ. eigenvalues --   -0.31970  -0.31260  -0.27413  -0.26435  -0.25872
 Alpha  occ. eigenvalues --   -0.25185  -0.23706  -0.22075
 Alpha virt. eigenvalues --   -0.01969  -0.00423   0.04986   0.05891   0.08569
 Alpha virt. eigenvalues --    0.10035   0.10956   0.11349   0.11694   0.12184
 Alpha virt. eigenvalues --    0.12743   0.12839   0.13743   0.14032   0.15059

 Mulliken charges:
               1
     1  C    0.497581
     2  O   -0.503796
     3  C    0.485439
     4  C   -0.278943
     5  C    0.110501
     6  O   -0.523616
     7  P    0.529087
     8  C    0.102147
     9  C   -0.290905
    10  O   -0.470655
    11  C   -0.472051
    12  C   -0.157772
    13  C   -0.225988
    14  C   -0.112764
    15  C   -0.192999
    16  C   -0.133469
    17  C   -0.184309
    18  C   -0.475641
    19  C   -0.471412
    20  C   -0.464128
    21  H    0.203348
    22  H    0.166424
    23  H    0.162011
    24  H    0.163662
    25  H    0.157814
    26  H    0.163236
    27  H    0.205951
    28  H    0.114926
    29  H    0.099737
    30  H    0.087031
    31  H    0.095249
    32  H    0.090361
    33  H    0.161402
    34  H    0.165274
    35  H    0.188737
    36  H    0.167083
    37  H    0.174863
    38  H    0.173517
    39  H    0.173432
    40  H    0.159929
    41  H    0.159704
 Sum of Mulliken charges =  -0.00000

 Dipole moment (field-independent basis, Debye):
    X=              6.3453    Y=              0.4298    Z=              0.8259  Tot=              6.4133
 Quadrupole moment (field-independent basis, Debye-Ang):
   XX=           -144.7723   YY=           -122.4655   ZZ=           -118.2008
   XY=             -2.3473   XZ=              2.9320   YZ=              1.5790

 Summary of Natural Population Analysis:

                                       Natural Population
                Natural  -----------------------------------------------
    Atom  No    Charge         Core      Valence    Rydberg      Total
 -----------------------------------------------------------------------
      C    1    0.58557      1.99904     3.37891    0.03648     5.41443
      O    2   -0.60687      1.99973     6.59384    0.01329     8.60687
      C    3    0.58461      1.99903     3.38048    0.03588     5.41539
      C    4   -0.52434      1.99907     4.50932    0.01595     6.52434
      C    5   -0.02783      1.99907     3.99631    0.03245     6.02783
      O    6   -0.60231      1.99974     6.58554    0.01703     8.60231
      P    7    1.24118      9.99750     3.71473    0.04659    13.75882
      C    8   -0.01233      1.99901     3.98302    0.03030     6.01233
      C    9   -0.53271      1.99910     4.51838    0.01523     6.53271
      O   10   -0.52221      1.99974     6.50685    0.01561     8.52221
      C   11   -0.69674      1.99932     4.68467    0.01275     6.69674
      C   12   -0.57881      1.99885     4.55602    0.02393     6.57881
      C   13   -0.33036      1.99901     4.31062    0.02073     6.33036
      C   14   -0.21744      1.99908     4.20386    0.01450     6.21744
      C   15   -0.34703      1.99910     4.33010    0.01783     6.34703
      C   16   -0.26539      1.99909     4.25036    0.01594     6.26539
      C   17   -0.24174      1.99904     4.22621    0.01649     6.24174
      C   18   -0.69819      1.99931     4.68612    0.01276     6.69819
      C   19   -0.69346      1.99927     4.68368    0.01051     6.69346
      C   20   -0.69113      1.99928     4.68134    0.01051     6.69113
      H   21    0.28564      0.00000     0.71276    0.00160     0.71436
      H   22    0.26296      0.00000     0.73430    0.00274     0.73704
      H   23    0.25872      0.00000     0.73852    0.00276     0.74128
      H   24    0.25737      0.00000     0.74132    0.00132     0.74263
      H   25    0.24389      0.00000     0.75550    0.00061     0.75611
      H   26    0.24646      0.00000     0.75196    0.00158     0.75354
      H   27    0.27144      0.00000     0.72742    0.00114     0.72856
      H   28    0.22414      0.00000     0.77444    0.00142     0.77586
      H   29    0.22351      0.00000     0.77563    0.00086     0.77649
      H   30    0.21625      0.00000     0.78297    0.00077     0.78375
      H   31    0.22116      0.00000     0.77797    0.00087     0.77884
      H   32    0.21011      0.00000     0.78882    0.00107     0.78989
      H   33    0.24497      0.00000     0.75334    0.00168     0.75503
      H   34    0.24586      0.00000     0.75295    0.00119     0.75414
      H   35    0.26157      0.00000     0.73748    0.00095     0.73843
      H   36    0.25050      0.00000     0.74877    0.00073     0.74950
      H   37    0.25259      0.00000     0.74648    0.00093     0.74741
      H   38    0.25469      0.00000     0.74387    0.00143     0.74531
      H   39    0.25516      0.00000     0.74332    0.00152     0.74484
      H   40    0.24516      0.00000     0.75406    0.00078     0.75484
      H   41    0.24536      0.00000     0.75382    0.00082     0.75464
 =======================================================================
   * Total *   -0.00000     47.98237   107.57608    0.44156   156.00000

 Normal termination of Gaussian 16 at Wed Feb 27 01:10:35 2019.
