 Gaussian 16, Revision A.03,

 ---------------------------------
 # opt=CalcFc B3LYP/6-31G* scf=xqc
 ---------------------------------

 -------------------
 Title Card Required
 -------------------
 Symbolic Z-matrix:
 Charge =  0 Multiplicity = 1

 SCF Done:  E(RB3LYP) =  -1189.37327559     A.U. after   14 cycles
 Optimization completed.
    -- Stationary point found.
 Normal termination of Gaussian 16 at Thu Mar  7 11:37:37 2019.

 ----------------------------------------------------------------------
 # freq B3LYP/6-31G* volume NMR pop=NPA density=current Geom=AllCheck G
 uess=Read
 ----------------------------------------------------------------------

 Structure from the checkpoint file:  "direct_arylation_ligand_48_conf12.chk"
 -------------------
 Title Card Required
 -------------------
 Charge =  0 Multiplicity = 1

 SCF Done:  E(RB3LYP) =  -1189.37327559     A.U. after    1 cycles

      1  C    Isotropic =    93.4755   Anisotropy =    26.1867

      2  O    Isotropic =   210.3576   Anisotropy =    83.5954

      3  C    Isotropic =    94.5204   Anisotropy =    26.2412

      4  C    Isotropic =   152.5635   Anisotropy =    19.4276

      5  C    Isotropic =   113.1494   Anisotropy =    58.0941

      6  O    Isotropic =   211.1227   Anisotropy =    50.8084

      7  P    Isotropic =   372.0234   Anisotropy =   157.2115

      8  C    Isotropic =   111.0731   Anisotropy =    49.2562

      9  C    Isotropic =   145.6489   Anisotropy =    11.7844

     10  O    Isotropic =   228.3456   Anisotropy =    44.8599

     11  C    Isotropic =   162.2942   Anisotropy =    33.7638

     12  C    Isotropic =    56.7173   Anisotropy =   174.1538

     13  C    Isotropic =    67.4862   Anisotropy =   163.3081

     14  C    Isotropic =    68.4759   Anisotropy =   164.3677

     15  C    Isotropic =    69.0453   Anisotropy =   165.9882

     16  C    Isotropic =    69.1374   Anisotropy =   164.0630

     17  C    Isotropic =    61.0655   Anisotropy =   166.6601

     18  C    Isotropic =   160.5196   Anisotropy =    40.6456

     19  C    Isotropic =   161.8024   Anisotropy =    43.4179

     20  C    Isotropic =   162.0311   Anisotropy =    42.9519

     21  H    Isotropic =    29.8783   Anisotropy =     6.3802

     22  H    Isotropic =    30.4816   Anisotropy =     5.4400

     23  H    Isotropic =    30.3816   Anisotropy =     6.0640

     24  H    Isotropic =    30.1598   Anisotropy =     5.1039

     25  H    Isotropic =    30.9465   Anisotropy =     8.9252

     26  H    Isotropic =    31.0002   Anisotropy =     8.5301

     27  H    Isotropic =    30.4243   Anisotropy =     7.2172

     28  H    Isotropic =    24.9523   Anisotropy =    11.1979

     29  H    Isotropic =    25.0097   Anisotropy =     5.8135

     30  H    Isotropic =    25.0695   Anisotropy =     3.7240

     31  H    Isotropic =    24.9500   Anisotropy =     5.1306

     32  H    Isotropic =    24.8124   Anisotropy =    10.2047

     33  H    Isotropic =    30.7670   Anisotropy =     8.6757

     34  H    Isotropic =    30.4624   Anisotropy =     8.3494

     35  H    Isotropic =    30.5880   Anisotropy =     7.8443

     36  H    Isotropic =    31.1169   Anisotropy =     8.8344

     37  H    Isotropic =    31.1635   Anisotropy =     7.5318

     38  H    Isotropic =    30.8129   Anisotropy =     8.4438

     39  H    Isotropic =    30.7218   Anisotropy =     8.1688

     40  H    Isotropic =    31.0759   Anisotropy =     8.7812

     41  H    Isotropic =    30.9865   Anisotropy =     8.2236

  Exact polarizability: 244.575  -1.091 181.137 -12.057 -12.879 149.897
 Approx polarizability: 337.124  -5.512 294.730 -22.502 -28.505 239.075

                      1                      2                      3
                      A                      A                      A
 Frequencies --     44.3600                62.9052               101.0024
 Red. masses --      3.9919                 4.5160                 3.9995
 Frc consts  --      0.0046                 0.0105                 0.0240
 IR Inten    --      0.0814                 0.0497                 0.1016

                      4                      5                      6
                      A                      A                      A
 Frequencies --    160.7505               202.2185               205.0191
 Red. masses --      4.5217                 1.9717                 2.8590
 Frc consts  --      0.0688                 0.0475                 0.0708
 IR Inten    --      0.3653                 1.0552                 0.7170

                      7                      8                      9
                      A                      A                      A
 Frequencies --    210.5208               213.4689               223.5621
 Red. masses --      1.1140                 1.0409                 1.8886
 Frc consts  --      0.0291                 0.0279                 0.0556
 IR Inten    --      0.2302                 0.0248                 0.5876

                     10                     11                     12
                      A                      A                      A
 Frequencies --    235.7200               239.4333               248.2991
 Red. masses --      2.1875                 2.1810                 2.3520
 Frc consts  --      0.0716                 0.0737                 0.0854
 IR Inten    --      1.1651                 0.1926                 0.0903

                     13                     14                     15
                      A                      A                      A
 Frequencies --    261.7545               263.6038               274.7377
 Red. masses --      2.2825                 2.1744                 3.0591
 Frc consts  --      0.0921                 0.0890                 0.1360
 IR Inten    --      0.5087                 1.2399                 1.8364

                     16                     17                     18
                      A                      A                      A
 Frequencies --    280.6345               293.7194               332.3580
 Red. masses --      2.2106                 1.7439                 4.2215
 Frc consts  --      0.1026                 0.0886                 0.2747
 IR Inten    --      0.9618                 3.0737                 1.3841

                     19                     20                     21
                      A                      A                      A
 Frequencies --    367.0631               393.1411               415.0731
 Red. masses --      6.6751                 4.4891                 3.0396
 Frc consts  --      0.5299                 0.4088                 0.3085
 IR Inten    --      1.3770                 3.8453                 0.1201

                     22                     23                     24
                      A                      A                      A
 Frequencies --    417.5323               434.3283               449.3377
 Red. masses --      5.2687                 3.3668                 4.3883
 Frc consts  --      0.5412                 0.3742                 0.5220
 IR Inten    --      2.1913                 2.3037                 7.9811

                     25                     26                     27
                      A                      A                      A
 Frequencies --    466.1352               480.1436               499.0340
 Red. masses --      4.9584                 3.1887                 2.7989
 Frc consts  --      0.6348                 0.4331                 0.4107
 IR Inten    --      1.5636                 4.6896                 0.6055

                     28                     29                     30
                      A                      A                      A
 Frequencies --    515.2196               545.2277               573.8088
 Red. masses --      3.9327                 3.7302                 5.3741
 Frc consts  --      0.6151                 0.6533                 1.0425
 IR Inten    --      3.8006                 4.5154                10.3673

                     31                     32                     33
                      A                      A                      A
 Frequencies --    581.7019               619.1196               634.7713
 Red. masses --      3.6600                 3.8485                 6.0931
 Frc consts  --      0.7297                 0.8691                 1.4465
 IR Inten    --      6.9449                 0.4816                 0.1021

                     34                     35                     36
                      A                      A                      A
 Frequencies --    656.4791               691.4099               699.4401
 Red. masses --      3.2390                 4.8293                 6.1641
 Frc consts  --      0.8224                 1.3602                 1.7767
 IR Inten    --      1.3765                 8.8216                 1.0763

                     37                     38                     39
                      A                      A                      A
 Frequencies --    716.4078               758.0084               802.0530
 Red. masses --      2.0924                 1.6830                 3.5184
 Frc consts  --      0.6327                 0.5697                 1.3335
 IR Inten    --     24.3007                24.3178                17.7966

                     40                     41                     42
                      A                      A                      A
 Frequencies --    836.6571               846.3745               862.0146
 Red. masses --      5.0722                 2.5795                 1.8298
 Frc consts  --      2.0919                 1.0887                 0.8011
 IR Inten    --      9.5608                 2.2321                 6.4352

                     43                     44                     45
                      A                      A                      A
 Frequencies --    863.6676               911.9153               915.5355
 Red. masses --      1.6789                 2.9796                 2.1232
 Frc consts  --      0.7378                 1.4599                 1.0486
 IR Inten    --      3.4724                38.2717                21.7055

                     46                     47                     48
                      A                      A                      A
 Frequencies --    916.8484               928.4406               963.2700
 Red. masses --      3.3143                 1.3681                 2.2273
 Frc consts  --      1.6415                 0.6948                 1.2176
 IR Inten    --     30.7557                 3.9359                 3.5454

                     49                     50                     51
                      A                      A                      A
 Frequencies --    975.0419               986.7403               990.3310
 Red. masses --      1.3730                 1.7111                 1.6990
 Frc consts  --      0.7691                 0.9816                 0.9818
 IR Inten    --      0.2981                 9.9390                 6.8345

                     52                     53                     54
                      A                      A                      A
 Frequencies --    998.2466              1004.6590              1007.1872
 Red. masses --      1.2647                 2.1405                 2.0002
 Frc consts  --      0.7426                 1.2729                 1.1955
 IR Inten    --      0.3998                46.5706                62.6772

                     55                     56                     57
                      A                      A                      A
 Frequencies --   1015.5327              1054.0727              1064.2834
 Red. masses --      5.6429                 3.5690                 1.5491
 Frc consts  --      3.4288                 2.3364                 1.0338
 IR Inten    --      0.4751                 1.2433                 0.0862

                     58                     59                     60
                      A                      A                      A
 Frequencies --   1100.3683              1106.7395              1111.4127
 Red. masses --      2.2671                 2.5812                 2.5707
 Frc consts  --      1.6173                 1.8628                 1.8709
 IR Inten    --     25.9651                19.3960                 0.7205

                     61                     62                     63
                      A                      A                      A
 Frequencies --   1113.8512              1115.3115              1163.9066
 Red. masses --      1.7097                 1.8267                 2.3915
 Frc consts  --      1.2498                 1.3388                 1.9088
 IR Inten    --      1.6766                19.5234                34.1387

                     64                     65                     66
                      A                      A                      A
 Frequencies --   1169.3001              1195.1053              1197.9389
 Red. masses --      2.2396                 1.0977                 3.9750
 Frc consts  --      1.8042                 0.9237                 3.3609
 IR Inten    --     62.8180                 0.1408                26.7453

                     67                     68                     69
                      A                      A                      A
 Frequencies --   1217.1105              1224.2832              1233.1388
 Red. masses --      2.3832                 1.2828                 1.8906
 Frc consts  --      2.0800                 1.1328                 1.6939
 IR Inten    --    101.0050                15.6511                64.7409

                     70                     71                     72
                      A                      A                      A
 Frequencies --   1248.9252              1250.8834              1265.4976
 Red. masses --      3.0832                 3.0517                 1.3772
 Frc consts  --      2.8335                 2.8134                 1.2995
 IR Inten    --     46.1696               102.6199                36.3401

                     73                     74                     75
                      A                      A                      A
 Frequencies --   1294.7995              1312.3795              1323.8626
 Red. masses --      3.2615                 1.6641                 3.4645
 Frc consts  --      3.2216                 1.6887                 3.5774
 IR Inten    --     26.7784                 1.8570                 2.4225

                     76                     77                     78
                      A                      A                      A
 Frequencies --   1368.6134              1382.7503              1388.7976
 Red. masses --      1.5964                 1.8935                 1.8548
 Frc consts  --      1.7618                 2.1330                 2.1077
 IR Inten    --      2.4093                29.8942                31.6326

                     79                     80                     81
                      A                      A                      A
 Frequencies --   1432.8631              1434.9685              1435.5628
 Red. masses --      1.2607                 1.3430                 1.2640
 Frc consts  --      1.5250                 1.6293                 1.5348
 IR Inten    --      8.6818                24.3330                12.6257

                     82                     83                     84
                      A                      A                      A
 Frequencies --   1443.9088              1477.8333              1494.1787
 Red. masses --      1.4836                 2.0790                 1.0964
 Frc consts  --      1.8224                 2.6752                 1.4423
 IR Inten    --     18.4990                 6.2724                 3.6384

                     85                     86                     87
                      A                      A                      A
 Frequencies --   1496.2002              1509.3525              1510.5671
 Red. masses --      1.1020                 1.0499                 1.0511
 Frc consts  --      1.4535                 1.4093                 1.4131
 IR Inten    --      0.0960                 1.7283                 0.9231

                     88                     89                     90
                      A                      A                      A
 Frequencies --   1512.3407              1512.9939              1517.3389
 Red. masses --      1.0521                 1.0499                 1.0459
 Frc consts  --      1.4178                 1.4161                 1.4187
 IR Inten    --      2.9383                 5.3154                 2.5322

                     91                     92                     93
                      A                      A                      A
 Frequencies --   1518.9997              1524.0760              1530.6300
 Red. masses --      1.0489                 1.0682                 1.0482
 Frc consts  --      1.4260                 1.4619                 1.4469
 IR Inten    --      2.9984                 0.8713                 4.4100

                     94                     95                     96
                      A                      A                      A
 Frequencies --   1534.9199              1628.5640              1648.1842
 Red. masses --      1.8933                 4.9175                 5.2611
 Frc consts  --      2.6281                 7.6843                 8.4206
 IR Inten    --      9.5171                 1.0966                 4.6020

                     97                     98                     99
                      A                      A                      A
 Frequencies --   3053.3783              3054.5356              3058.3032
 Red. masses --      1.0405                 1.0429                 1.0581
 Frc consts  --      5.7155                 5.7328                 5.8307
 IR Inten    --      9.3552                10.5655                44.0090

                    100                    101                    102
                      A                      A                      A
 Frequencies --   3059.3662              3073.3542              3074.1121
 Red. masses --      1.0608                 1.0353                 1.0352
 Frc consts  --      5.8499                 5.7615                 5.7639
 IR Inten    --     19.1131                15.0673                15.6269

                    103                    104                    105
                      A                      A                      A
 Frequencies --   3114.5929              3122.1515              3126.0247
 Red. masses --      1.1023                 1.1016                 1.1004
 Frc consts  --      6.3000                 6.3266                 6.3355
 IR Inten    --      4.2205                24.7937                19.3147

                    106                    107                    108
                      A                      A                      A
 Frequencies --   3141.9043              3145.4289              3148.0855
 Red. masses --      1.1025                 1.1018                 1.0969
 Frc consts  --      6.4126                 6.4227                 6.4048
 IR Inten    --     12.6558                12.6095                 2.3965

                    109                    110                    111
                      A                      A                      A
 Frequencies --   3152.5858              3153.4528              3154.2387
 Red. masses --      1.1037                 1.1007                 1.1030
 Frc consts  --      6.4631                 6.4490                 6.4659
 IR Inten    --     14.8935                23.0264                16.7149

                    112                    113                    114
                      A                      A                      A
 Frequencies --   3154.7268              3178.8391              3185.6660
 Red. masses --      1.1035                 1.0848                 1.0879
 Frc consts  --      6.4706                 6.4586                 6.5048
 IR Inten    --     15.1745                 2.5024                 2.4755

                    115                    116                    117
                      A                      A                      A
 Frequencies --   3195.5834              3207.7569              3227.6566
 Red. masses --      1.0924                 1.0968                 1.0904
 Frc consts  --      6.5723                 6.6492                 6.6925
 IR Inten    --     23.3732                34.7923                12.9033

 - Thermochemistry -
 -------------------
 Temperature   298.150 Kelvin.  Pressure   1.00000 Atm.
 Atom     1 has atomic number  6 and mass  12.00000

 Molecular mass:   292.12283 amu.
 Principal axes and moments of inertia in atomic units:
                           1         2         3
     Eigenvalues --  2941.362697396.807867641.17985
           X            0.99998   0.00081  -0.00559
           Y           -0.00122   0.99740  -0.07203
           Z            0.00552   0.07204   0.99739
 This molecule is an asymmetric top.
 Rotational symmetry number  1.
 Warning -- assumption of classical behavior for rotation
           may cause significant error
 Rotational temperatures (Kelvin)      0.02945     0.01171     0.01134
 Rotational constants (GHZ):           0.61357     0.24399     0.23619
 Zero-point vibrational energy     905815.5 (Joules/Mol)
                                  216.49510 (Kcal/Mol)
 Warning -- explicit consideration of  32 degrees of freedom as
           vibrations may cause significant error
 Vibrational temperatures:     63.82    90.51   145.32   231.28   290.95
          (Kelvin)            294.98   302.89   307.13   321.66   339.15
                              344.49   357.25   376.61   379.27   395.29
                              403.77   422.60   478.19   528.12   565.64
                              597.20   600.74   624.90   646.50   670.66
                              690.82   718.00   741.29   784.46   825.58
                              836.94   890.78   913.29   944.53   994.78
                             1006.34  1030.75  1090.61  1153.98  1203.76
                             1217.74  1240.25  1242.63  1312.04  1317.25
                             1319.14  1335.82  1385.93  1402.87  1419.70
                             1424.87  1436.25  1445.48  1449.12  1461.13
                             1516.58  1531.27  1583.18  1592.35  1599.07
                             1602.58  1604.68  1674.60  1682.36  1719.49
                             1723.57  1751.15  1761.47  1774.21  1796.92
                             1799.74  1820.77  1862.93  1888.22  1904.74
                             1969.13  1989.47  1998.17  2061.57  2064.60
                             2065.45  2077.46  2126.27  2149.79  2152.70
                             2171.62  2173.37  2175.92  2176.86  2183.11
                             2185.50  2192.81  2202.24  2208.41  2343.14
                             2371.37  4393.13  4394.80  4400.22  4401.75
                             4421.87  4422.96  4481.20  4492.08  4497.65
                             4520.50  4525.57  4529.39  4535.87  4537.12
                             4538.25  4538.95  4573.64  4583.46  4597.73
                             4615.25  4643.88

 Zero-point correction=                           0.345007 (Hartree/Particle)
 Thermal correction to Energy=                    0.363139
 Thermal correction to Enthalpy=                  0.364083
 Thermal correction to Gibbs Free Energy=         0.301402
 Sum of electronic and zero-point Energies=          -1189.028269
 Sum of electronic and thermal Energies=             -1189.010136
 Sum of electronic and thermal Enthalpies=           -1189.009192
 Sum of electronic and thermal Free Energies=        -1189.071874

                     E (Thermal)             CV                S
                      KCal/Mol        Cal/Mol-Kelvin    Cal/Mol-Kelvin
 Total                  227.873             75.480            131.925
 Electronic               0.000              0.000              0.000
 Translational            0.889              2.981             42.913
 Rotational               0.889              2.981             33.474
 Vibrational            226.096             69.519             55.537
 Vibration     1          0.595              1.980              5.054
 Vibration     2          0.597              1.972              4.364
 Vibration     3          0.604              1.948              3.435
 Vibration     4          0.622              1.890              2.541
 Vibration     5          0.639              1.837              2.113
 Vibration     6          0.640              1.833              2.088
 Vibration     7          0.643              1.825              2.039
 Vibration     8          0.644              1.820              2.014
 Vibration     9          0.649              1.805              1.930
 Vibration    10          0.655              1.786              1.835
 Vibration    11          0.657              1.780              1.807
 Vibration    12          0.662              1.766              1.743
 Vibration    13          0.669              1.743              1.650
 Vibration    14          0.670              1.740              1.638
 Vibration    15          0.677              1.720              1.566
 Vibration    16          0.680              1.709              1.530
 Vibration    17          0.689              1.685              1.452
 Vibration    18          0.714              1.611              1.249
 Vibration    19          0.740              1.540              1.092
 Vibration    20          0.760              1.485              0.988
 Vibration    21          0.778              1.438              0.909
 Vibration    22          0.781              1.432              0.900
 Vibration    23          0.795              1.395              0.845
 Vibration    24          0.808              1.362              0.798
 Vibration    25          0.823              1.325              0.748
 Vibration    26          0.837              1.294              0.710
 Vibration    27          0.854              1.252              0.661
 Vibration    28          0.870              1.216              0.621
 Vibration    29          0.900              1.150              0.554
 Vibration    30          0.930              1.088              0.497
 Vibration    31          0.938              1.071              0.482
 Vibration    32          0.979              0.992              0.418

 Optimization completed.
    -- Stationary point found.
 Normal termination of Gaussian 16 at Thu Mar  7 11:49:19 2019.
 Gaussian 16:  ES64L-G16RevA.03 25-Dec-2016

 ----------------------------------------------------------------------
 # TD(NStates=10, Root=1) B3LYP/6-31G* volume pop=NPA density=current G
 eom=AllCheck Guess=Read
 ----------------------------------------------------------------------

 Structure from the checkpoint file:  "direct_arylation_ligand_48_conf13.chk"
 -------------------
 Title Card Required
 -------------------
 Charge =  0 Multiplicity = 1

                         Standard orientation:
 ---------------------------------------------------------------------
 Center     Atomic      Atomic             Coordinates (Angstroms)
 Number     Number       Type             X           Y           Z
 ---------------------------------------------------------------------
      1          6           0        2.668690    0.180107   -0.468377
      2          8           0        2.723036   -0.065289    0.935286
      3          6           0        1.420098   -0.226275    1.496155
      4          6           0        0.782700   -1.457891    0.839122
      5          6           0        0.701122   -1.266517   -0.681089
      6          8           0        2.018909   -0.893071   -1.155206
      7         15           0       -0.422250    0.183721   -1.225319
      8          6           0        0.508248    1.402542   -0.065910
      9          6           0        1.920913    1.505751   -0.671025
     10          8           0        0.619963    0.935785    1.291555
     11          6           0       -0.165955    2.764276    0.030731
     12          6           0       -2.093774   -0.021431   -0.442897
     13          6           0       -2.582631   -1.158031    0.222193
     14          6           0       -3.904494   -1.223050    0.668820
     15          6           0       -4.773852   -0.152999    0.462613
     16          6           0       -4.316016    0.975951   -0.218749
     17          6           0       -3.001376    1.030448   -0.678995
     18          6           0        0.368367   -2.551458   -1.429978
     19          6           0        1.596969   -0.361707    2.997040
     20          6           0        4.098316    0.199201   -0.976107
     21          1           0       -0.198665   -1.638738    1.280341
     22          1           0        1.421520   -2.324856    1.049626
     23          1           0        2.474618    2.294429   -0.147070
     24          1           0        1.873476    1.760152   -1.734541
     25          1           0       -0.297414    3.206772   -0.962508
     26          1           0        0.458165    3.434610    0.632996
     27          1           0       -1.142195    2.681556    0.515890
     28          1           0       -1.944608   -2.017355    0.391863
     29          1           0       -4.251879   -2.117195    1.180300
     30          1           0       -5.800713   -0.203812    0.814292
     31          1           0       -4.986623    1.810442   -0.406898
     32          1           0       -2.678704    1.900529   -1.244980
     33          1           0        1.107736   -3.322769   -1.184091
     34          1           0        0.396134   -2.377647   -2.509986
     35          1           0       -0.626153   -2.923377   -1.165249
     36          1           0        2.216151   -1.233469    3.226435
     37          1           0        0.622437   -0.471781    3.481155
     38          1           0        2.087053    0.535592    3.384325
     39          1           0        4.568965   -0.764858   -0.765553
     40          1           0        4.664520    0.989352   -0.475249
     41          1           0        4.110719    0.373717   -2.055679
 ---------------------------------------------------------------------

 SCF Done:  E(RB3LYP) =  -1189.37327559     A.U. after    1 cycles

 Excitation energies and oscillator strengths:

 Excited State   1:      Singlet-A      4.7605 eV  260.44 nm  f=0.1522  <S**2>=0.000
      78 -> 79         0.69037
 This state for optimization and/or second-order correction.
 Total Energy, E(TD-HF/TD-DFT) =  -1189.19833127
 Copying the excited state density for this state as the 1-particle RhoCI density.

 Excited State   2:      Singlet-A      4.8705 eV  254.56 nm  f=0.0063  <S**2>=0.000
      76 -> 79        -0.24797
      78 -> 80         0.65619

 Excited State   3:      Singlet-A      5.6156 eV  220.79 nm  f=0.0292  <S**2>=0.000
      77 -> 79         0.69269

 Excited State   4:      Singlet-A      5.6359 eV  219.99 nm  f=0.0128  <S**2>=0.000
      73 -> 80         0.24657
      74 -> 80         0.18699
      75 -> 80         0.23644
      76 -> 79         0.49863
      77 -> 80        -0.22076
      78 -> 80         0.21618

 Excited State   5:      Singlet-A      5.9203 eV  209.42 nm  f=0.0023  <S**2>=0.000
      73 -> 79        -0.19118
      74 -> 79        -0.19495
      75 -> 79         0.61339
      78 -> 81        -0.13489

 Excited State   6:      Singlet-A      5.9951 eV  206.81 nm  f=0.0037  <S**2>=0.000
      75 -> 80         0.22206
      77 -> 80         0.64681

 Excited State   7:      Singlet-A      6.0717 eV  204.20 nm  f=0.0267  <S**2>=0.000
      74 -> 79        -0.27595
      78 -> 81         0.63280

 Excited State   8:      Singlet-A      6.1258 eV  202.40 nm  f=0.0143  <S**2>=0.000
      74 -> 79         0.57130
      75 -> 79         0.19128
      76 -> 80        -0.25436
      78 -> 81         0.23564

 Excited State   9:      Singlet-A      6.2422 eV  198.62 nm  f=0.0014  <S**2>=0.000
      73 -> 79         0.56532
      74 -> 79        -0.15143
      75 -> 80         0.14465
      76 -> 80        -0.32867

 Excited State  10:      Singlet-A      6.2904 eV  197.10 nm  f=0.0029  <S**2>=0.000
      73 -> 79        -0.17478
      73 -> 80        -0.29792
      74 -> 80        -0.26520
      75 -> 80         0.53042
      77 -> 80        -0.10598

 The electronic state is 1-A.
 Alpha  occ. eigenvalues --  -77.07384 -19.15339 -19.15084 -19.14889 -10.28919
 Alpha  occ. eigenvalues --  -10.28823 -10.25273 -10.25028 -10.20051 -10.19518
 Alpha  occ. eigenvalues --  -10.19410 -10.19358 -10.19319 -10.19265 -10.18581
 Alpha  occ. eigenvalues --  -10.18546 -10.18042 -10.17876 -10.17568 -10.17534
 Alpha  occ. eigenvalues --   -6.54281  -4.70552  -4.70470  -4.70039  -1.08654
 Alpha  occ. eigenvalues --   -1.03104  -0.99248  -0.85407  -0.82880  -0.78740
 Alpha  occ. eigenvalues --   -0.74881  -0.74743  -0.74450  -0.73678  -0.70195
 Alpha  occ. eigenvalues --   -0.69661  -0.64799  -0.61025  -0.60808  -0.60327
 Alpha  occ. eigenvalues --   -0.58534  -0.57885  -0.52381  -0.50958  -0.49815
 Alpha  occ. eigenvalues --   -0.48780  -0.46691  -0.46157  -0.45592  -0.44534
 Alpha  occ. eigenvalues --   -0.44377  -0.43209  -0.42669  -0.42200  -0.41790
 Alpha  occ. eigenvalues --   -0.40864  -0.40198  -0.40133  -0.39937  -0.38396
 Alpha  occ. eigenvalues --   -0.38161  -0.37818  -0.37594  -0.36718  -0.36326
 Alpha  occ. eigenvalues --   -0.36196  -0.34771  -0.34039  -0.33870  -0.32697
 Alpha  occ. eigenvalues --   -0.31868  -0.31288  -0.27118  -0.26214  -0.25910
 Alpha  occ. eigenvalues --   -0.25241  -0.24792  -0.21334
 Alpha virt. eigenvalues --   -0.01538  -0.00510   0.03942   0.06079   0.08523
 Alpha virt. eigenvalues --    0.09663   0.10857   0.11181   0.11417   0.11970
 Alpha virt. eigenvalues --    0.12688   0.12794   0.13384   0.13977   0.14718

 Mulliken charges:
               1
     1  C    0.496131
     2  O   -0.504585
     3  C    0.487098
     4  C   -0.276096
     5  C    0.103352
     6  O   -0.528254
     7  P    0.509578
     8  C    0.115451
     9  C   -0.290866
    10  O   -0.464538
    11  C   -0.474926
    12  C   -0.143446
    13  C   -0.180440
    14  C   -0.126694
    15  C   -0.187651
    16  C   -0.113743
    17  C   -0.202920
    18  C   -0.474095
    19  C   -0.469393
    20  C   -0.464125
    21  H    0.188538
    22  H    0.165900
    23  H    0.156884
    24  H    0.163409
    25  H    0.154592
    26  H    0.158198
    27  H    0.201936
    28  H    0.089739
    29  H    0.099661
    30  H    0.092923
    31  H    0.102678
    32  H    0.092701
    33  H    0.163229
    34  H    0.173085
    35  H    0.182390
    36  H    0.164240
    37  H    0.174012
    38  H    0.174171
    39  H    0.170810
    40  H    0.160684
    41  H    0.160384
 Sum of Mulliken charges =  -0.00000

 Dipole moment (field-independent basis, Debye):
    X=              5.6311    Y=              0.0951    Z=             -0.3378  Tot=              5.6420
 Quadrupole moment (field-independent basis, Debye-Ang):
   XX=           -142.7047   YY=           -117.4757   ZZ=           -123.8683
   XY=              0.8931   XZ=             -0.6285   YZ=             -4.3607

 Summary of Natural Population Analysis:

                                       Natural Population
                Natural  -----------------------------------------------
    Atom  No    Charge         Core      Valence    Rydberg      Total
 -----------------------------------------------------------------------
      C    1    0.58638      1.99903     3.37821    0.03638     5.41362
      O    2   -0.60769      1.99973     6.59476    0.01320     8.60769
      C    3    0.58552      1.99902     3.37932    0.03613     5.41448
      C    4   -0.51868      1.99907     4.50342    0.01619     6.51868
      C    5   -0.01128      1.99909     3.98329    0.02891     6.01128
      O    6   -0.60386      1.99974     6.58797    0.01615     8.60386
      P    7    1.17005      9.99769     3.78442    0.04784    13.82995
      C    8   -0.00816      1.99901     3.97590    0.03324     6.00816
      C    9   -0.53751      1.99909     4.52335    0.01507     6.53751
      O   10   -0.51216      1.99974     6.49576    0.01667     8.51216
      C   11   -0.69931      1.99931     4.68717    0.01283     6.69931
      C   12   -0.55947      1.99883     4.53459    0.02604     6.55947
      C   13   -0.24354      1.99901     4.22675    0.01778     6.24354
      C   14   -0.25483      1.99909     4.24000    0.01574     6.25483
      C   15   -0.33347      1.99909     4.31580    0.01858     6.33347
      C   16   -0.22936      1.99909     4.21525    0.01502     6.22936
      C   17   -0.27838      1.99904     4.26029    0.01904     6.27838
      C   18   -0.69195      1.99932     4.68013    0.01250     6.69195
      C   19   -0.69307      1.99928     4.68330    0.01049     6.69307
      C   20   -0.69102      1.99928     4.68131    0.01043     6.69102
      H   21    0.27132      0.00000     0.72702    0.00166     0.72868
      H   22    0.26230      0.00000     0.73513    0.00257     0.73770
      H   23    0.25589      0.00000     0.74093    0.00318     0.74411
      H   24    0.25777      0.00000     0.74078    0.00145     0.74223
      H   25    0.24125      0.00000     0.75793    0.00082     0.75875
      H   26    0.24324      0.00000     0.75493    0.00184     0.75676
      H   27    0.26897      0.00000     0.72946    0.00157     0.73103
      H   28    0.20173      0.00000     0.79709    0.00118     0.79827
      H   29    0.22304      0.00000     0.77607    0.00089     0.77696
      H   30    0.21890      0.00000     0.78019    0.00091     0.78110
      H   31    0.22413      0.00000     0.77495    0.00092     0.77587
      H   32    0.21221      0.00000     0.78629    0.00150     0.78779
      H   33    0.24596      0.00000     0.75230    0.00174     0.75404
      H   34    0.25102      0.00000     0.74781    0.00117     0.74898
      H   35    0.25275      0.00000     0.74644    0.00082     0.74725
      H   36    0.24838      0.00000     0.75090    0.00072     0.75162
      H   37    0.25262      0.00000     0.74661    0.00077     0.74738
      H   38    0.25524      0.00000     0.74332    0.00144     0.74476
      H   39    0.25328      0.00000     0.74514    0.00158     0.74672
      H   40    0.24598      0.00000     0.75324    0.00078     0.75402
      H   41    0.24579      0.00000     0.75339    0.00081     0.75421
 =======================================================================
   * Total *   -0.00000     47.98255   107.57089    0.44656   156.00000

 Normal termination of Gaussian 16 at Thu Mar  7 12:03:04 2019.
