 Gaussian 16, Revision A.03,

 ---------------------------------
 # opt=CalcFc B3LYP/6-31G* scf=xqc
 ---------------------------------

 -------------------
 Title Card Required
 -------------------
 Symbolic Z-matrix:
 Charge =  0 Multiplicity = 1

 SCF Done:  E(RB3LYP) =  -1029.62487564     A.U. after   14 cycles
 SCF Done:  E(RB3LYP) =  -1029.62487399     A.U. after    7 cycles
 SCF Done:  E(RB3LYP) =  -1029.62487568     A.U. after    7 cycles
 SCF Done:  E(RB3LYP) =  -1029.62487451     A.U. after    7 cycles
 Optimization completed.
    -- Stationary point found.
 Normal termination of Gaussian 16 at Wed Mar  6 01:55:29 2019.

 ----------------------------------------------------------------------
 # freq B3LYP/6-31G* volume NMR pop=NPA density=current Geom=AllCheck G
 uess=Read
 ----------------------------------------------------------------------

 Structure from the checkpoint file:  "direct_arylation_ligand_53_conf132.chk"
 -------------------
 Title Card Required
 -------------------
 Charge =  0 Multiplicity = 1

 SCF Done:  E(RB3LYP) =  -1029.62487451     A.U. after    1 cycles

      1  P    Isotropic =   433.0110   Anisotropy =    38.1582

      2  C    Isotropic =    43.3701   Anisotropy =    89.1683

      3  O    Isotropic =    39.7934   Anisotropy =   300.7164

      4  C    Isotropic =    50.6398   Anisotropy =    98.8208

      5  C    Isotropic =    84.7178   Anisotropy =   121.0587

      6  C    Isotropic =    75.8158   Anisotropy =   132.5542

      7  C    Isotropic =    43.4053   Anisotropy =    89.2363

      8  O    Isotropic =    39.8098   Anisotropy =   300.8692

      9  C    Isotropic =    50.6686   Anisotropy =    98.8620

     10  C    Isotropic =    84.7160   Anisotropy =   121.0477

     11  C    Isotropic =    75.8448   Anisotropy =   132.7028

     12  C    Isotropic =    43.4061   Anisotropy =    89.2368

     13  O    Isotropic =    39.8132   Anisotropy =   300.8708

     14  C    Isotropic =    50.6677   Anisotropy =    98.8933

     15  C    Isotropic =    84.7242   Anisotropy =   121.0968

     16  C    Isotropic =    75.8541   Anisotropy =   132.6694

     17  H    Isotropic =    24.7870   Anisotropy =     3.5195

     18  H    Isotropic =    26.0630   Anisotropy =     2.3678

     19  H    Isotropic =    25.9768   Anisotropy =     7.4796

     20  H    Isotropic =    24.7882   Anisotropy =     3.5200

     21  H    Isotropic =    26.0665   Anisotropy =     2.3654

     22  H    Isotropic =    25.9728   Anisotropy =     7.4839

     23  H    Isotropic =    24.7875   Anisotropy =     3.5181

     24  H    Isotropic =    26.0642   Anisotropy =     2.3642

     25  H    Isotropic =    25.9761   Anisotropy =     7.4760

  Exact polarizability: 162.538   0.010 162.514   0.002  -0.012 116.216
 Approx polarizability: 231.372   0.027 231.331  -0.005  -0.032 223.250

                      1                      2                      3
                      A                      A                      A
 Frequencies --     37.4075                37.5657                55.2732
 Red. masses --      4.8400                 4.8442                 4.5714
 Frc consts  --      0.0040                 0.0040                 0.0082
 IR Inten    --      0.1542                 0.1533                 0.1397

                      4                      5                      6
                      A                      A                      A
 Frequencies --     58.5681                58.7075                77.3515
 Red. masses --      5.3918                 5.3943                 5.3519
 Frc consts  --      0.0109                 0.0110                 0.0189
 IR Inten    --      0.3694                 0.3710                 0.4485

                      7                      8                      9
                      A                      A                      A
 Frequencies --    201.8441               222.0383               222.3192
 Red. masses --      5.6707                 5.6170                 5.6185
 Frc consts  --      0.1361                 0.1632                 0.1636
 IR Inten    --      0.5765                 2.6619                 2.6636

                     10                     11                     12
                      A                      A                      A
 Frequencies --    279.8867               294.4886               294.5538
 Red. masses --      8.1147                 6.4479                 6.4489
 Frc consts  --      0.3745                 0.3295                 0.3297
 IR Inten    --      2.9392                 2.5701                 2.5717

                     13                     14                     15
                      A                      A                      A
 Frequencies --    479.9252               495.4500               495.4636
 Red. masses --     10.9388                13.6839                13.6862
 Frc consts  --      1.4845                 1.9791                 1.9795
 IR Inten    --     22.5492                38.2033                38.2011

                     16                     17                     18
                      A                      A                      A
 Frequencies --    611.4780               611.4922               612.0977
 Red. masses --      3.2803                 3.2810                 3.2707
 Frc consts  --      0.7226                 0.7228                 0.7220
 IR Inten    --      9.0177                 9.0349                 3.6190

                     19                     20                     21
                      A                      A                      A
 Frequencies --    658.8293               658.9339               664.2267
 Red. masses --      6.1352                 6.1363                 6.4742
 Frc consts  --      1.5690                 1.5698                 1.6829
 IR Inten    --      5.8215                 5.8160                 0.6532

                     22                     23                     24
                      A                      A                      A
 Frequencies --    755.6573               756.0264               756.1159
 Red. masses --      1.2878                 1.2875                 1.2872
 Frc consts  --      0.4333                 0.4336                 0.4336
 IR Inten    --     34.0652                45.9099                46.0712

                     25                     26                     27
                      A                      A                      A
 Frequencies --    826.8106               826.9585               829.5585
 Red. masses --      1.2422                 1.2421                 1.2354
 Frc consts  --      0.5003                 0.5005                 0.5009
 IR Inten    --     12.0087                11.9712                 4.8129

                     28                     29                     30
                      A                      A                      A
 Frequencies --    878.8470               879.0000               882.3900
 Red. masses --      1.3008                 1.3007                 1.2980
 Frc consts  --      0.5920                 0.5921                 0.5955
 IR Inten    --      1.6045                 1.6207                 0.1993

                     31                     32                     33
                      A                      A                      A
 Frequencies --    900.0938               900.1000               900.1554
 Red. masses --      6.2461                 6.2528                 6.1239
 Frc consts  --      2.9815                 2.9847                 2.9236
 IR Inten    --      3.4380                 3.4382                 3.7688

                     34                     35                     36
                      A                      A                      A
 Frequencies --    924.1984               925.9235               925.9395
 Red. masses --      4.7030                 4.7158                 4.7158
 Frc consts  --      2.3668                 2.3821                 2.3821
 IR Inten    --     14.9081                 3.5917                 3.5887

                     37                     38                     39
                      A                      A                      A
 Frequencies --   1035.6142              1035.9249              1037.8452
 Red. masses --      1.4143                 1.4144                 1.3870
 Frc consts  --      0.8937                 0.8943                 0.8802
 IR Inten    --     14.0004                14.2439                51.8228

                     40                     41                     42
                      A                      A                      A
 Frequencies --   1103.9548              1104.0263              1106.1972
 Red. masses --      2.1997                 2.2024                 2.1800
 Frc consts  --      1.5795                 1.5817                 1.5717
 IR Inten    --      1.1676                 1.1586                 1.5365

                     43                     44                     45
                      A                      A                      A
 Frequencies --   1140.7194              1140.7235              1147.5363
 Red. masses --      5.6092                 5.6082                 4.7360
 Frc consts  --      4.3004                 4.2997                 3.6745
 IR Inten    --      2.4497                 2.4488                24.8477

                     46                     47                     48
                      A                      A                      A
 Frequencies --   1197.1867              1197.1925              1200.8688
 Red. masses --      2.2397                 2.2391                 2.4374
 Frc consts  --      1.8914                 1.8908                 2.0710
 IR Inten    --      9.3440                 9.3392                 1.1835

                     49                     50                     51
                      A                      A                      A
 Frequencies --   1249.3134              1249.5608              1250.2023
 Red. masses --      1.6668                 1.6664                 1.7056
 Frc consts  --      1.5328                 1.5330                 1.5707
 IR Inten    --     19.1339                18.6386                 4.9153

                     52                     53                     54
                      A                      A                      A
 Frequencies --   1417.8436              1417.8692              1419.6240
 Red. masses --      2.5693                 2.5691                 2.5352
 Frc consts  --      3.0431                 3.0430                 3.0103
 IR Inten    --      1.0890                 1.0912                 3.8888

                     55                     56                     57
                      A                      A                      A
 Frequencies --   1490.2852              1496.6236              1496.6384
 Red. masses --      5.5373                 5.4220                 5.4218
 Frc consts  --      7.2458                 7.1554                 7.1553
 IR Inten    --     15.7811                11.2352                11.2110

                     58                     59                     60
                      A                      A                      A
 Frequencies --   1605.0394              1607.2963              1607.3302
 Red. masses --      4.8349                 4.8717                 4.8698
 Frc consts  --      7.3385                 7.4152                 7.4127
 IR Inten    --      3.4953                 1.6367                 1.6308

                     61                     62                     63
                      A                      A                      A
 Frequencies --   3264.4490              3264.4997              3264.6617
 Red. masses --      1.0904                 1.0904                 1.0904
 Frc consts  --      6.8461                 6.8463                 6.8470
 IR Inten    --      5.2815                 5.0540                 1.7525

                     64                     65                     66
                      A                      A                      A
 Frequencies --   3280.0959              3280.1448              3280.2217
 Red. masses --      1.0971                 1.0972                 1.0972
 Frc consts  --      6.9548                 6.9552                 6.9556
 IR Inten    --      0.9297                 0.5821                 0.6152

                     67                     68                     69
                      A                      A                      A
 Frequencies --   3299.1037              3299.1398              3299.1719
 Red. masses --      1.1046                 1.1045                 1.1046
 Frc consts  --      7.0833                 7.0833                 7.0836
 IR Inten    --      3.0049                 3.3312                 0.3344

 - Thermochemistry -
 -------------------
 Temperature   298.150 Kelvin.  Pressure   1.00000 Atm.
 Atom     1 has atomic number 15 and mass  30.97376

 Molecular mass:   232.02893 amu.
 Principal axes and moments of inertia in atomic units:
                           1         2         3
     Eigenvalues --  3613.459653613.979246126.88678
           X            0.99990   0.01417  -0.00012
           Y           -0.01417   0.99990   0.00005
           Z            0.00012  -0.00005   1.00000
 This molecule is an asymmetric top.
 Rotational symmetry number  1.
 Warning -- assumption of classical behavior for rotation
           may cause significant error
 Rotational temperatures (Kelvin)      0.02397     0.02397     0.01414
 Rotational constants (GHZ):           0.49945     0.49938     0.29456
 Zero-point vibrational energy     480196.5 (Joules/Mol)
                                  114.76971 (Kcal/Mol)
 Warning -- explicit consideration of  18 degrees of freedom as
           vibrations may cause significant error
 Vibrational temperatures:     53.82    54.05    79.53    84.27    84.47
          (Kelvin)            111.29   290.41   319.46   319.87   402.69
                              423.70   423.80   690.51   712.84   712.86
                              879.78   879.80   880.67   947.91   948.06
                              955.67  1087.22  1087.75  1087.88  1189.60
                             1189.81  1193.55  1264.46  1264.69  1269.56
                             1295.03  1295.04  1295.12  1329.72  1332.20
                             1332.22  1490.02  1490.46  1493.23  1588.34
                             1588.45  1591.57  1641.24  1641.25  1651.05
                             1722.48  1722.49  1727.78  1797.48  1797.84
                             1798.76  2039.96  2040.00  2042.52  2144.19
                             2153.31  2153.33  2309.29  2312.54  2312.59
                             4696.81  4696.89  4697.12  4719.33  4719.40
                             4719.51  4746.67  4746.73  4746.77

 Zero-point correction=                           0.182897 (Hartree/Particle)
 Thermal correction to Energy=                    0.196486
 Thermal correction to Enthalpy=                  0.197430
 Thermal correction to Gibbs Free Energy=         0.139639
 Sum of electronic and zero-point Energies=          -1029.441977
 Sum of electronic and thermal Energies=             -1029.428389
 Sum of electronic and thermal Enthalpies=           -1029.427444
 Sum of electronic and thermal Free Energies=        -1029.485236

                     E (Thermal)             CV                S
                      KCal/Mol        Cal/Mol-Kelvin    Cal/Mol-Kelvin
 Total                  123.297             50.781            121.632
 Electronic               0.000              0.000              0.000
 Translational            0.889              2.981             42.227
 Rotational               0.889              2.981             32.748
 Vibrational            121.519             44.819             46.658
 Vibration     1          0.594              1.982              5.392
 Vibration     2          0.594              1.982              5.383
 Vibration     3          0.596              1.975              4.619
 Vibration     4          0.596              1.974              4.505
 Vibration     5          0.596              1.974              4.500
 Vibration     6          0.599              1.964              3.957
 Vibration     7          0.639              1.837              2.116
 Vibration     8          0.648              1.808              1.942
 Vibration     9          0.648              1.807              1.940
 Vibration    10          0.680              1.711              1.534
 Vibration    11          0.689              1.684              1.448
 Vibration    12          0.689              1.684              1.448
 Vibration    13          0.836              1.295              0.710
 Vibration    14          0.851              1.260              0.670
 Vibration    15          0.851              1.260              0.670
 Vibration    16          0.971              1.008              0.430
 Vibration    17          0.971              1.008              0.430
 Vibration    18          0.971              1.006              0.429

 Optimization completed.
    -- Stationary point found.
 Normal termination of Gaussian 16 at Wed Mar  6 02:00:38 2019.
 Gaussian 16:  ES64L-G16RevA.03 25-Dec-2016

 ----------------------------------------------------------------------
 # TD(NStates=10, Root=1) B3LYP/6-31G* volume pop=NPA density=current G
 eom=AllCheck Guess=Read
 ----------------------------------------------------------------------

 Structure from the checkpoint file:  "direct_arylation_ligand_53_conf133.chk"
 -------------------
 Title Card Required
 -------------------
 Charge =  0 Multiplicity = 1

                         Standard orientation:
 ---------------------------------------------------------------------
 Center     Atomic      Atomic             Coordinates (Angstroms)
 Number     Number       Type             X           Y           Z
 ---------------------------------------------------------------------
      1         15           0        0.000065   -0.000055   -1.070644
      2          6           0        0.825761   -1.386498   -0.213893
      3          8           0        1.934071   -1.894070   -0.853956
      4          6           0        2.382449   -2.942325   -0.114761
      5          6           0        1.589096   -3.136048    0.975713
      6          6           0        0.576800   -2.126769    0.911480
      7          6           0       -1.613613   -0.021946   -0.214187
      8          8           0       -2.607671   -0.726698   -0.855165
      9          6           0       -3.739673   -0.591084   -0.115946
     10          6           0       -3.510437    0.191428    0.975480
     11          6           0       -2.130022    0.562761    0.911824
     12          6           0        0.787800    1.408297   -0.213921
     13          8           0        0.674575    2.621608   -0.854796
     14          6           0        1.357839    3.534095   -0.115340
     15          6           0        1.920698    2.944223    0.976137
     16          6           0        1.552148    1.563071    0.912254
     17          1           0        3.262227   -3.440165   -0.494352
     18          1           0        1.706708   -3.901597    1.730238
     19          1           0       -0.236833   -1.966717    1.604633
     20          1           0       -4.610963   -1.103109   -0.496248
     21          1           0       -4.232158    0.471887    1.730242
     22          1           0       -1.584301    1.186239    1.605753
     23          1           0        1.350085    4.544708   -0.495533
     24          1           0        2.524273    3.428965    1.731073
     25          1           0        1.819112    0.778655    1.606154
 ---------------------------------------------------------------------

 SCF Done:  E(RB3LYP) =  -1029.62487451     A.U. after    1 cycles

 Excitation energies and oscillator strengths:

 Excited State   1:      Singlet-A      4.7326 eV  261.98 nm  f=0.1417  <S**2>=0.000
      60 -> 61         0.69349
 This state for optimization and/or second-order correction.
 Total Energy, E(TD-HF/TD-DFT) =  -1029.45095552
 Copying the excited state density for this state as the 1-particle RhoCI density.

 Excited State   2:      Singlet-A      4.7333 eV  261.94 nm  f=0.1419  <S**2>=0.000
      60 -> 62         0.69348

 Excited State   3:      Singlet-A      5.3047 eV  233.73 nm  f=0.0000  <S**2>=0.000
      58 -> 61         0.27054
      58 -> 62        -0.41542
      59 -> 61         0.41751
      59 -> 62         0.27049

 Excited State   4:      Singlet-A      5.4000 eV  229.60 nm  f=0.0002  <S**2>=0.000
      58 -> 61        -0.24044
      58 -> 62        -0.14192
      59 -> 61         0.14379
      59 -> 62        -0.24173
      60 -> 63         0.58160

 Excited State   5:      Singlet-A      5.4658 eV  226.83 nm  f=0.1683  <S**2>=0.000
      58 -> 61         0.48746
      59 -> 62        -0.48686

 Excited State   6:      Singlet-A      5.4661 eV  226.82 nm  f=0.1686  <S**2>=0.000
      58 -> 62         0.48824
      59 -> 61         0.48607

 Excited State   7:      Singlet-A      6.0315 eV  205.56 nm  f=0.0118  <S**2>=0.000
      58 -> 61         0.32836
      58 -> 62         0.22359
      59 -> 61        -0.22317
      59 -> 62         0.32844
      60 -> 63         0.39005

 Excited State   8:      Singlet-A      6.1711 eV  200.91 nm  f=0.0557  <S**2>=0.000
      54 -> 61        -0.12543
      57 -> 61        -0.47002
      59 -> 63         0.48160
      60 -> 64        -0.10167

 Excited State   9:      Singlet-A      6.1715 eV  200.90 nm  f=0.0556  <S**2>=0.000
      54 -> 62         0.12535
      57 -> 62         0.46979
      58 -> 63         0.48173
      60 -> 65         0.10157

 Excited State  10:      Singlet-A      6.2520 eV  198.31 nm  f=0.0685  <S**2>=0.000
      57 -> 61         0.31509
      58 -> 63        -0.17989
      59 -> 63         0.37278
      60 -> 64         0.42819

 The electronic state is 1-A.
 Alpha  occ. eigenvalues --  -77.10442 -19.21552 -19.21551 -19.21551 -10.23919
 Alpha  occ. eigenvalues --  -10.23918 -10.23918 -10.23693 -10.23693 -10.23692
 Alpha  occ. eigenvalues --  -10.19077 -10.19076 -10.19075 -10.18942 -10.18942
 Alpha  occ. eigenvalues --  -10.18941  -6.57105  -4.73366  -4.73366  -4.72863
 Alpha  occ. eigenvalues --   -1.10749  -1.10667  -1.10666  -0.80185  -0.79752
 Alpha  occ. eigenvalues --   -0.79751  -0.77541  -0.73926  -0.73925  -0.64938
 Alpha  occ. eigenvalues --   -0.60003  -0.59870  -0.59870  -0.55795  -0.55795
 Alpha  occ. eigenvalues --   -0.54788  -0.53287  -0.53286  -0.48932  -0.45120
 Alpha  occ. eigenvalues --   -0.45120  -0.44656  -0.42744  -0.42744  -0.42348
 Alpha  occ. eigenvalues --   -0.40363  -0.40312  -0.40312  -0.38831  -0.38830
 Alpha  occ. eigenvalues --   -0.37510  -0.36230  -0.36230  -0.28133  -0.27887
 Alpha  occ. eigenvalues --   -0.27886  -0.27313  -0.23487  -0.23485  -0.20895
 Alpha virt. eigenvalues --   -0.01046  -0.01044   0.01545   0.05283   0.05285
 Alpha virt. eigenvalues --    0.07048   0.07977   0.07980   0.11849   0.11905
 Alpha virt. eigenvalues --    0.12866   0.12866   0.15040   0.15041   0.15578

 Mulliken charges:
               1
     1  P    0.397547
     2  C    0.116272
     3  O   -0.403572
     4  C    0.113362
     5  C   -0.174622
     6  C   -0.156387
     7  C    0.051710
     8  O   -0.435894
     9  C    0.058137
    10  C   -0.176319
    11  C   -0.192206
    12  C    0.099825
    13  O   -0.416234
    14  C    0.092909
    15  C   -0.174299
    16  C   -0.179581
    17  H    0.179978
    18  H    0.163254
    19  H    0.185557
    20  H    0.138005
    21  H    0.127504
    22  H    0.129129
    23  H    0.163219
    24  H    0.146386
    25  H    0.146319
 Sum of Mulliken charges =   0.00000

 Dipole moment (field-independent basis, Debye):
    X=              3.3690    Y=             -1.6930    Z=              2.6718  Tot=              4.6211
 Quadrupole moment (field-independent basis, Debye-Ang):
   XX=            -91.7177   YY=            -81.0601   ZZ=            -96.8544
   XY=             -3.1228   XZ=              0.5674   YZ=             -0.8245

 Summary of Natural Population Analysis:

                                       Natural Population
                Natural  -----------------------------------------------
    Atom  No    Charge         Core      Valence    Rydberg      Total
 -----------------------------------------------------------------------
      P    1    1.01114      9.99757     3.92504    0.06626    13.98886
      C    2   -0.02231      1.99892     3.98619    0.03720     6.02231
      O    3   -0.45666      1.99974     6.43765    0.01927     8.45666
      C    4    0.15989      1.99905     3.81845    0.02260     5.84011
      C    5   -0.31826      1.99910     4.30614    0.01302     6.31826
      C    6   -0.27155      1.99893     4.25810    0.01452     6.27155
      C    7   -0.15093      1.99886     4.11348    0.03859     6.15093
      O    8   -0.48424      1.99975     6.47061    0.01389     8.48424
      C    9    0.06871      1.99905     3.90651    0.02573     5.93129
      C   10   -0.32939      1.99908     4.31708    0.01323     6.32939
      C   11   -0.34558      1.99890     4.32906    0.01761     6.34558
      C   12   -0.06432      1.99886     4.02850    0.03696     6.06432
      O   13   -0.46143      1.99974     6.44845    0.01324     8.46143
      C   14    0.12153      1.99905     3.85492    0.02450     5.87847
      C   15   -0.32142      1.99909     4.30938    0.01295     6.32142
      C   16   -0.31911      1.99891     4.30382    0.01637     6.31911
      H   17    0.23346      0.00000     0.76601    0.00052     0.76654
      H   18    0.25674      0.00000     0.74277    0.00049     0.74326
      H   19    0.27097      0.00000     0.72828    0.00075     0.72903
      H   20    0.21556      0.00000     0.78386    0.00058     0.78444
      H   21    0.24026      0.00000     0.75926    0.00047     0.75974
      H   22    0.24137      0.00000     0.75767    0.00096     0.75863
      H   23    0.22698      0.00000     0.77253    0.00049     0.77302
      H   24    0.24876      0.00000     0.75072    0.00052     0.75124
      H   25    0.24983      0.00000     0.74945    0.00073     0.75017
 =======================================================================
   * Total *   -0.00000     39.98461    79.62392    0.39146   120.00000

 Normal termination of Gaussian 16 at Wed Mar  6 02:07:52 2019.
