 Gaussian 16, Revision A.03,

 ---------------------------------
 # opt=CalcFc B3LYP/6-31G* scf=xqc
 ---------------------------------

 -------------------
 Title Card Required
 -------------------
 Symbolic Z-matrix:
 Charge =  0 Multiplicity = 1

 SCF Done:  E(RB3LYP) =  -1029.62487733     A.U. after   14 cycles
 SCF Done:  E(RB3LYP) =  -1029.62487325     A.U. after    7 cycles
 SCF Done:  E(RB3LYP) =  -1029.62487411     A.U. after    7 cycles
 SCF Done:  E(RB3LYP) =  -1029.62487542     A.U. after    7 cycles
 Optimization completed.
    -- Stationary point found.
 Normal termination of Gaussian 16 at Thu Mar  7 03:03:45 2019.

 ----------------------------------------------------------------------
 # freq B3LYP/6-31G* volume NMR pop=NPA density=current Geom=AllCheck G
 uess=Read
 ----------------------------------------------------------------------

 Structure from the checkpoint file:  "direct_arylation_ligand_53_conf52.chk"
 -------------------
 Title Card Required
 -------------------
 Charge =  0 Multiplicity = 1

 SCF Done:  E(RB3LYP) =  -1029.62487542     A.U. after    1 cycles

      1  P    Isotropic =   433.0188   Anisotropy =    38.1079

      2  C    Isotropic =    43.3645   Anisotropy =    89.1523

      3  O    Isotropic =    39.7540   Anisotropy =   300.7099

      4  C    Isotropic =    50.6402   Anisotropy =    98.7906

      5  C    Isotropic =    84.6752   Anisotropy =   120.9529

      6  C    Isotropic =    75.8113   Anisotropy =   132.6179

      7  C    Isotropic =    43.3997   Anisotropy =    89.2305

      8  O    Isotropic =    39.8202   Anisotropy =   300.8610

      9  C    Isotropic =    50.6740   Anisotropy =    98.8565

     10  C    Isotropic =    84.7128   Anisotropy =   121.0547

     11  C    Isotropic =    75.8520   Anisotropy =   132.6781

     12  C    Isotropic =    43.3948   Anisotropy =    89.2235

     13  O    Isotropic =    39.8230   Anisotropy =   300.8481

     14  C    Isotropic =    50.6581   Anisotropy =    98.8859

     15  C    Isotropic =    84.7257   Anisotropy =   121.0924

     16  C    Isotropic =    75.8443   Anisotropy =   132.6600

     17  H    Isotropic =    24.7882   Anisotropy =     3.5191

     18  H    Isotropic =    26.0653   Anisotropy =     2.3633

     19  H    Isotropic =    25.9742   Anisotropy =     7.4830

     20  H    Isotropic =    24.7883   Anisotropy =     3.5198

     21  H    Isotropic =    26.0659   Anisotropy =     2.3647

     22  H    Isotropic =    25.9763   Anisotropy =     7.4826

     23  H    Isotropic =    24.7865   Anisotropy =     3.5184

     24  H    Isotropic =    26.0634   Anisotropy =     2.3646

     25  H    Isotropic =    25.9763   Anisotropy =     7.4791

  Exact polarizability: 162.527   0.009 162.501  -0.013  -0.000 116.223
 Approx polarizability: 231.364   0.022 231.313  -0.031   0.006 223.271

                      1                      2                      3
                      A                      A                      A
 Frequencies --     37.3433                37.8769                55.3352
 Red. masses --      4.8332                 4.8397                 4.5708
 Frc consts  --      0.0040                 0.0041                 0.0082
 IR Inten    --      0.1571                 0.1537                 0.1407

                      4                      5                      6
                      A                      A                      A
 Frequencies --     58.4245                58.5262                77.2562
 Red. masses --      5.4017                 5.3956                 5.3503
 Frc consts  --      0.0109                 0.0109                 0.0188
 IR Inten    --      0.3661                 0.3698                 0.4462

                      7                      8                      9
                      A                      A                      A
 Frequencies --    201.9267               222.2994               222.4670
 Red. masses --      5.6717                 5.6182                 5.6209
 Frc consts  --      0.1363                 0.1636                 0.1639
 IR Inten    --      0.5744                 2.6661                 2.6661

                     10                     11                     12
                      A                      A                      A
 Frequencies --    279.9196               294.4450               294.5771
 Red. masses --      8.1129                 6.4484                 6.4497
 Frc consts  --      0.3745                 0.3294                 0.3298
 IR Inten    --      2.9431                 2.5664                 2.5647

                     13                     14                     15
                      A                      A                      A
 Frequencies --    479.9620               495.3789               495.4458
 Red. masses --     10.9409                13.6841                13.6923
 Frc consts  --      1.4850                 1.9785                 1.9802
 IR Inten    --     22.5487                38.1852                38.2029

                     16                     17                     18
                      A                      A                      A
 Frequencies --    611.4662               611.4840               612.0973
 Red. masses --      3.2806                 3.2813                 3.2711
 Frc consts  --      0.7227                 0.7229                 0.7221
 IR Inten    --      9.0224                 9.0201                 3.6128

                     19                     20                     21
                      A                      A                      A
 Frequencies --    658.9559               659.0795               664.3775
 Red. masses --      6.1370                 6.1386                 6.4758
 Frc consts  --      1.5701                 1.5711                 1.6841
 IR Inten    --      5.8183                 5.8309                 0.6543

                     22                     23                     24
                      A                      A                      A
 Frequencies --    755.6374               756.0335               756.0435
 Red. masses --      1.2880                 1.2876                 1.2876
 Frc consts  --      0.4333                 0.4336                 0.4336
 IR Inten    --     33.7163                46.0715                46.1542

                     25                     26                     27
                      A                      A                      A
 Frequencies --    826.8666               826.9964               829.5983
 Red. masses --      1.2421                 1.2418                 1.2353
 Frc consts  --      0.5004                 0.5004                 0.5009
 IR Inten    --     12.0160                12.0235                 4.8122

                     28                     29                     30
                      A                      A                      A
 Frequencies --    878.9210               879.0477               882.4499
 Red. masses --      1.3008                 1.3005                 1.2980
 Frc consts  --      0.5920                 0.5921                 0.5955
 IR Inten    --      1.6083                 1.6187                 0.1959

                     31                     32                     33
                      A                      A                      A
 Frequencies --    900.0630               900.0693               900.1195
 Red. masses --      6.2479                 6.2503                 6.1203
 Frc consts  --      2.9821                 2.9833                 2.9216
 IR Inten    --      3.4392                 3.4483                 3.7554

                     34                     35                     36
                      A                      A                      A
 Frequencies --    924.2062               925.9283               925.9409
 Red. masses --      4.7032                 4.7170                 4.7162
 Frc consts  --      2.3669                 2.3827                 2.3824
 IR Inten    --     14.9052                 3.5881                 3.5811

                     37                     38                     39
                      A                      A                      A
 Frequencies --   1035.7225              1036.0688              1037.7980
 Red. masses --      1.4148                 1.4145                 1.3872
 Frc consts  --      0.8942                 0.8946                 0.8803
 IR Inten    --     13.9926                14.2026                51.9207

                     40                     41                     42
                      A                      A                      A
 Frequencies --   1103.9908              1104.0685              1106.1933
 Red. masses --      2.2010                 2.2038                 2.1801
 Frc consts  --      1.5805                 1.5828                 1.5718
 IR Inten    --      1.1578                 1.1677                 1.5452

                     43                     44                     45
                      A                      A                      A
 Frequencies --   1140.7117              1140.7454              1147.5385
 Red. masses --      5.6050                 5.6072                 4.7321
 Frc consts  --      4.2971                 4.2991                 3.6714
 IR Inten    --      2.4404                 2.4505                24.8339

                     46                     47                     48
                      A                      A                      A
 Frequencies --   1197.1633              1197.1894              1200.8581
 Red. masses --      2.2392                 2.2389                 2.4376
 Frc consts  --      1.8908                 1.8907                 2.0711
 IR Inten    --      9.3359                 9.3430                 1.1843

                     49                     50                     51
                      A                      A                      A
 Frequencies --   1249.4398              1249.5941              1250.1565
 Red. masses --      1.6659                 1.6651                 1.7063
 Frc consts  --      1.5323                 1.5319                 1.5712
 IR Inten    --     19.1377                18.8573                 4.7596

                     52                     53                     54
                      A                      A                      A
 Frequencies --   1417.8646              1417.8820              1419.6297
 Red. masses --      2.5685                 2.5685                 2.5345
 Frc consts  --      3.0423                 3.0424                 3.0095
 IR Inten    --      1.0912                 1.0936                 3.8827

                     55                     56                     57
                      A                      A                      A
 Frequencies --   1490.2631              1496.5933              1496.6287
 Red. masses --      5.5394                 5.4233                 5.4236
 Frc consts  --      7.2484                 7.1569                 7.1576
 IR Inten    --     15.7752                11.2319                11.2093

                     58                     59                     60
                      A                      A                      A
 Frequencies --   1605.0148              1607.2948              1607.3003
 Red. masses --      4.8348                 4.8695                 4.8699
 Frc consts  --      7.3382                 7.4119                 7.4126
 IR Inten    --      3.5028                 1.6324                 1.6375

                     61                     62                     63
                      A                      A                      A
 Frequencies --   3264.5173              3264.5202              3264.6877
 Red. masses --      1.0904                 1.0904                 1.0904
 Frc consts  --      6.8463                 6.8463                 6.8471
 IR Inten    --      5.2952                 5.3032                 1.4816

                     64                     65                     66
                      A                      A                      A
 Frequencies --   3280.1525              3280.1815              3280.3169
 Red. masses --      1.0971                 1.0972                 1.0971
 Frc consts  --      6.9550                 6.9555                 6.9558
 IR Inten    --      0.9876                 0.5107                 0.6281

                     67                     68                     69
                      A                      A                      A
 Frequencies --   3299.0799              3299.1284              3299.1597
 Red. masses --      1.1046                 1.1046                 1.1046
 Frc consts  --      7.0832                 7.0833                 7.0836
 IR Inten    --      2.8988                 3.3376                 0.4399

 - Thermochemistry -
 -------------------
 Temperature   298.150 Kelvin.  Pressure   1.00000 Atm.
 Atom     1 has atomic number 15 and mass  30.97376

 Molecular mass:   232.02893 amu.
 Principal axes and moments of inertia in atomic units:
                           1         2         3
     Eigenvalues --  3613.333023613.757336126.22584
           X            0.99974   0.02289  -0.00000
           Y           -0.02289   0.99974   0.00000
           Z            0.00000  -0.00000   1.00000
 This molecule is an asymmetric top.
 Rotational symmetry number  1.
 Warning -- assumption of classical behavior for rotation
           may cause significant error
 Rotational temperatures (Kelvin)      0.02397     0.02397     0.01414
 Rotational constants (GHZ):           0.49947     0.49941     0.29459
 Zero-point vibrational energy     480205.1 (Joules/Mol)
                                  114.77177 (Kcal/Mol)
 Warning -- explicit consideration of  18 degrees of freedom as
           vibrations may cause significant error
 Vibrational temperatures:     53.73    54.50    79.62    84.06    84.21
          (Kelvin)            111.15   290.53   319.84   320.08   402.74
                              423.64   423.83   690.56   712.74   712.84
                              879.76   879.79   880.67   948.09   948.27
                              955.89  1087.19  1087.76  1087.78  1189.68
                             1189.86  1193.61  1264.57  1264.75  1269.65
                             1294.99  1295.00  1295.07  1329.73  1332.20
                             1332.22  1490.17  1490.67  1493.16  1588.40
                             1588.51  1591.57  1641.23  1641.28  1651.05
                             1722.45  1722.49  1727.77  1797.67  1797.89
                             1798.70  2039.99  2040.02  2042.53  2144.16
                             2153.26  2153.31  2309.26  2312.54  2312.55
                             4696.91  4696.92  4697.16  4719.41  4719.45
                             4719.64  4746.64  4746.71  4746.75

 Zero-point correction=                           0.182900 (Hartree/Particle)
 Thermal correction to Energy=                    0.196488
 Thermal correction to Enthalpy=                  0.197433
 Thermal correction to Gibbs Free Energy=         0.139644
 Sum of electronic and zero-point Energies=          -1029.441975
 Sum of electronic and thermal Energies=             -1029.428387
 Sum of electronic and thermal Enthalpies=           -1029.427443
 Sum of electronic and thermal Free Energies=        -1029.485231

                     E (Thermal)             CV                S
                      KCal/Mol        Cal/Mol-Kelvin    Cal/Mol-Kelvin
 Total                  123.298             50.779            121.626
 Electronic               0.000              0.000              0.000
 Translational            0.889              2.981             42.227
 Rotational               0.889              2.981             32.747
 Vibrational            121.521             44.817             46.651
 Vibration     1          0.594              1.982              5.395
 Vibration     2          0.594              1.982              5.367
 Vibration     3          0.596              1.975              4.617
 Vibration     4          0.596              1.974              4.510
 Vibration     5          0.596              1.974              4.506
 Vibration     6          0.599              1.964              3.959
 Vibration     7          0.639              1.837              2.115
 Vibration     8          0.648              1.807              1.940
 Vibration     9          0.648              1.807              1.939
 Vibration    10          0.680              1.711              1.534
 Vibration    11          0.689              1.684              1.448
 Vibration    12          0.689              1.684              1.448
 Vibration    13          0.836              1.294              0.710
 Vibration    14          0.851              1.260              0.670
 Vibration    15          0.851              1.260              0.670
 Vibration    16          0.971              1.008              0.430
 Vibration    17          0.971              1.008              0.430
 Vibration    18          0.971              1.006              0.429

 Optimization completed.
    -- Stationary point found.
 Normal termination of Gaussian 16 at Thu Mar  7 03:09:33 2019.
 Gaussian 16:  ES64L-G16RevA.03 25-Dec-2016

 ----------------------------------------------------------------------
 # TD(NStates=10, Root=1) B3LYP/6-31G* volume pop=NPA density=current G
 eom=AllCheck Guess=Read
 ----------------------------------------------------------------------

 Structure from the checkpoint file:  "direct_arylation_ligand_53_conf53.chk"
 -------------------
 Title Card Required
 -------------------
 Charge =  0 Multiplicity = 1

                         Standard orientation:
 ---------------------------------------------------------------------
 Center     Atomic      Atomic             Coordinates (Angstroms)
 Number     Number       Type             X           Y           Z
 ---------------------------------------------------------------------
      1         15           0        0.000020    0.000031   -1.071054
      2          6           0        1.454049    0.699773   -0.214199
      3          8           0        2.059063    1.757609   -0.854995
      4          6           0        3.142401    2.111626   -0.115172
      5          6           0        3.263514    1.305543    0.976448
      6          6           0        2.168054    0.387219    0.912283
      7          6           0       -0.121083   -1.609086   -0.214255
      8          8           0        0.493811   -2.661623   -0.854367
      9          6           0        0.258459   -3.776977   -0.114845
     10          6           0       -0.501633   -3.479253    0.975882
     11          6           0       -0.749853   -2.071515    0.911470
     12          6           0       -1.333042    0.909459   -0.214344
     13          8           0       -2.551936    0.903388   -0.854606
     14          6           0       -3.400229    1.664815   -0.115065
     15          6           0       -2.762448    2.173992    0.975825
     16          6           0       -1.419220    1.685023    0.911502
     17          1           0        3.717119    2.942993   -0.495268
     18          1           0        4.035771    1.355352    1.731659
     19          1           0        1.935288   -0.407979    1.606212
     20          1           0        0.692038   -4.690137   -0.494441
     21          1           0       -0.845137   -4.173149    1.730679
     22          1           0       -1.323267   -1.472671    1.604756
     23          1           0       -4.407779    1.746044   -0.494787
     24          1           0       -3.191684    2.818331    1.730669
     25          1           0       -0.613962    1.882053    1.604900
 ---------------------------------------------------------------------

 SCF Done:  E(RB3LYP) =  -1029.62487542     A.U. after    1 cycles

 Excitation energies and oscillator strengths:

 Excited State   1:      Singlet-A      4.7328 eV  261.97 nm  f=0.1416  <S**2>=0.000
      60 -> 61         0.69272
 This state for optimization and/or second-order correction.
 Total Energy, E(TD-HF/TD-DFT) =  -1029.45094726
 Copying the excited state density for this state as the 1-particle RhoCI density.

 Excited State   2:      Singlet-A      4.7334 eV  261.93 nm  f=0.1418  <S**2>=0.000
      60 -> 62         0.69271

 Excited State   3:      Singlet-A      5.3046 eV  233.73 nm  f=0.0000  <S**2>=0.000
      58 -> 61         0.26000
      58 -> 62         0.42219
      59 -> 61         0.42394
      59 -> 62        -0.26013

 Excited State   4:      Singlet-A      5.4000 eV  229.60 nm  f=0.0002  <S**2>=0.000
      58 -> 61         0.24384
      58 -> 62        -0.13613
      59 -> 61        -0.13752
      59 -> 62        -0.24531
      60 -> 63         0.58159

 Excited State   5:      Singlet-A      5.4658 eV  226.84 nm  f=0.1683  <S**2>=0.000
      58 -> 62         0.48717
      59 -> 61        -0.48542

 Excited State   6:      Singlet-A      5.4661 eV  226.83 nm  f=0.1685  <S**2>=0.000
      58 -> 61         0.48666
      59 -> 62         0.48593

 Excited State   7:      Singlet-A      6.0315 eV  205.56 nm  f=0.0118  <S**2>=0.000
      58 -> 61        -0.33383
      58 -> 62         0.21530
      59 -> 61         0.21496
      59 -> 62         0.33386
      60 -> 63         0.39007

 Excited State   8:      Singlet-A      6.1711 eV  200.91 nm  f=0.0559  <S**2>=0.000
      54 -> 61         0.12439
      57 -> 61         0.46610
      59 -> 63         0.48318
      60 -> 64        -0.10072

 Excited State   9:      Singlet-A      6.1714 eV  200.90 nm  f=0.0558  <S**2>=0.000
      54 -> 62         0.12431
      57 -> 62         0.46603
      58 -> 63         0.48313
      60 -> 65         0.10072

 Excited State  10:      Singlet-A      6.2519 eV  198.31 nm  f=0.0684  <S**2>=0.000
      57 -> 61        -0.31566
      58 -> 63        -0.18977
      59 -> 63         0.36700
      60 -> 64         0.42905

 The electronic state is 1-A.
 Alpha  occ. eigenvalues --  -77.10443 -19.21552 -19.21552 -19.21551 -10.23919
 Alpha  occ. eigenvalues --  -10.23918 -10.23918 -10.23693 -10.23693 -10.23693
 Alpha  occ. eigenvalues --  -10.19076 -10.19076 -10.19075 -10.18942 -10.18942
 Alpha  occ. eigenvalues --  -10.18941  -6.57106  -4.73366  -4.73366  -4.72864
 Alpha  occ. eigenvalues --   -1.10749  -1.10667  -1.10666  -0.80185  -0.79752
 Alpha  occ. eigenvalues --   -0.79751  -0.77541  -0.73926  -0.73925  -0.64938
 Alpha  occ. eigenvalues --   -0.60003  -0.59870  -0.59870  -0.55795  -0.55795
 Alpha  occ. eigenvalues --   -0.54788  -0.53286  -0.53286  -0.48933  -0.45120
 Alpha  occ. eigenvalues --   -0.45120  -0.44656  -0.42744  -0.42744  -0.42348
 Alpha  occ. eigenvalues --   -0.40363  -0.40312  -0.40312  -0.38831  -0.38831
 Alpha  occ. eigenvalues --   -0.37510  -0.36230  -0.36230  -0.28134  -0.27887
 Alpha  occ. eigenvalues --   -0.27886  -0.27313  -0.23486  -0.23485  -0.20896
 Alpha virt. eigenvalues --   -0.01046  -0.01044   0.01545   0.05283   0.05284
 Alpha virt. eigenvalues --    0.07047   0.07976   0.07979   0.11849   0.11905
 Alpha virt. eigenvalues --    0.12866   0.12866   0.15040   0.15041   0.15578

 Mulliken charges:
               1
     1  P    0.397521
     2  C    0.063669
     3  O   -0.432976
     4  C    0.063950
     5  C   -0.175478
     6  C   -0.195342
     7  C    0.127246
     8  O   -0.400901
     9  C    0.118680
    10  C   -0.173842
    11  C   -0.159254
    12  C    0.076865
    13  O   -0.421819
    14  C    0.081775
    15  C   -0.175911
    16  C   -0.173553
    17  H    0.141579
    18  H    0.128746
    19  H    0.122323
    20  H    0.183249
    21  H    0.164383
    22  H    0.179299
    23  H    0.156378
    24  H    0.144016
    25  H    0.159398
 Sum of Mulliken charges =   0.00000

 Dipole moment (field-independent basis, Debye):
    X=             -1.8222    Y=             -3.3002    Z=              2.6723  Tot=              4.6209
 Quadrupole moment (field-independent basis, Debye-Ang):
   XX=            -92.2846   YY=            -80.4973   ZZ=            -96.8550
   XY=             -1.8426   XZ=             -0.8442   YZ=             -0.5348

 Summary of Natural Population Analysis:

                                       Natural Population
                Natural  -----------------------------------------------
    Atom  No    Charge         Core      Valence    Rydberg      Total
 -----------------------------------------------------------------------
      P    1    1.01104      9.99757     3.92512    0.06627    13.98896
      C    2   -0.13310      1.99884     4.09676    0.03750     6.13310
      O    3   -0.47879      1.99974     6.46547    0.01358     8.47879
      C    4    0.07569      1.99905     3.89987    0.02539     5.92431
      C    5   -0.32757      1.99908     4.31537    0.01312     6.32757
      C    6   -0.35191      1.99890     4.33533    0.01768     6.35191
      C    7   -0.00568      1.99890     3.97078    0.03600     6.00568
      O    8   -0.45167      1.99974     6.43294    0.01898     8.45167
      C    9    0.16636      1.99905     3.81240    0.02219     5.83364
      C   10   -0.31659      1.99910     4.30460    0.01290     6.31659
      C   11   -0.27731      1.99893     4.26378    0.01459     6.27731
      C   12   -0.09869      1.99889     4.06055    0.03925     6.09869
      O   13   -0.47188      1.99975     6.45826    0.01388     8.47188
      C   14    0.10809      1.99905     3.86761    0.02525     5.89191
      C   15   -0.32491      1.99909     4.31263    0.01319     6.32491
      C   16   -0.30704      1.99892     4.29189    0.01623     6.30704
      H   17    0.21755      0.00000     0.78192    0.00052     0.78245
      H   18    0.24070      0.00000     0.75882    0.00048     0.75930
      H   19    0.23741      0.00000     0.76179    0.00080     0.76259
      H   20    0.23529      0.00000     0.76426    0.00045     0.76471
      H   21    0.25713      0.00000     0.74237    0.00050     0.74287
      H   22    0.26733      0.00000     0.73202    0.00065     0.73267
      H   23    0.22317      0.00000     0.77621    0.00062     0.77683
      H   24    0.24794      0.00000     0.75156    0.00050     0.75206
      H   25    0.25744      0.00000     0.74157    0.00099     0.74256
 =======================================================================
   * Total *    0.00000     39.98461    79.62389    0.39149   120.00000

 Normal termination of Gaussian 16 at Thu Mar  7 03:16:36 2019.
