 Gaussian 16, Revision A.03,

 ---------------------------------
 # opt=CalcFc B3LYP/6-31G* scf=xqc
 ---------------------------------

 -------------------
 Title Card Required
 -------------------
 Symbolic Z-matrix:
 Charge =  0 Multiplicity = 1

 SCF Done:  E(RB3LYP) =  -1029.60636264     A.U. after   15 cycles
 SCF Done:  E(RB3LYP) =  -1029.61977455     A.U. after   15 cycles
 SCF Done:  E(RB3LYP) =  -1029.62175809     A.U. after   16 cycles
 SCF Done:  E(RB3LYP) =  -1029.62401297     A.U. after   15 cycles
 SCF Done:  E(RB3LYP) =  -1029.61210285     A.U. after   15 cycles
 SCF Done:  E(RB3LYP) =  -1029.62581438     A.U. after   12 cycles
 SCF Done:  E(RB3LYP) =  -1029.62618593     A.U. after   12 cycles
 SCF Done:  E(RB3LYP) =  -1029.62627171     A.U. after   11 cycles
 SCF Done:  E(RB3LYP) =  -1029.62632477     A.U. after   12 cycles
 SCF Done:  E(RB3LYP) =  -1029.62643993     A.U. after   13 cycles
 SCF Done:  E(RB3LYP) =  -1029.62652628     A.U. after   11 cycles
 SCF Done:  E(RB3LYP) =  -1029.62652683     A.U. after   11 cycles
 SCF Done:  E(RB3LYP) =  -1029.62652645     A.U. after   11 cycles
 SCF Done:  E(RB3LYP) =  -1029.62652683     A.U. after   11 cycles
 SCF Done:  E(RB3LYP) =  -1029.62652683     A.U. after    7 cycles
 SCF Done:  E(RB3LYP) =  -1029.62651983     A.U. after    9 cycles
 SCF Done:  E(RB3LYP) =  -1029.62652683     A.U. after    9 cycles
 SCF Done:  E(RB3LYP) =  -1029.62652683     A.U. after    7 cycles
 Optimization completed.
    -- Stationary point found.
 Normal termination of Gaussian 16 at Wed Feb 27 03:56:18 2019.

 ----------------------------------------------------------------------
 # freq B3LYP/6-31G* volume NMR pop=NPA density=current Geom=AllCheck G
 uess=Read
 ----------------------------------------------------------------------

 Structure from the checkpoint file:  "direct_arylation_ligand_53_conf302.chk"
 -------------------
 Title Card Required
 -------------------
 Charge =  0 Multiplicity = 1

 SCF Done:  E(RB3LYP) =  -1029.62652683     A.U. after    1 cycles

      1  P    Isotropic =   455.7789   Anisotropy =    30.8476

      2  C    Isotropic =    44.5172   Anisotropy =    90.9046

      3  O    Isotropic =    39.6655   Anisotropy =   298.8462

      4  C    Isotropic =    50.8609   Anisotropy =    98.7090

      5  C    Isotropic =    85.3575   Anisotropy =   118.3462

      6  C    Isotropic =    73.4584   Anisotropy =   124.0340

      7  C    Isotropic =    44.1481   Anisotropy =    85.3128

      8  O    Isotropic =    35.5327   Anisotropy =   287.8681

      9  C    Isotropic =    52.8356   Anisotropy =    98.4006

     10  C    Isotropic =    84.4934   Anisotropy =   119.2575

     11  C    Isotropic =    73.0229   Anisotropy =   130.3483

     12  C    Isotropic =    44.5173   Anisotropy =    90.9045

     13  O    Isotropic =    39.6650   Anisotropy =   298.8482

     14  C    Isotropic =    50.8610   Anisotropy =    98.7093

     15  C    Isotropic =    85.3574   Anisotropy =   118.3452

     16  C    Isotropic =    73.4580   Anisotropy =   124.0344

     17  H    Isotropic =    24.7666   Anisotropy =     4.1205

     18  H    Isotropic =    26.2048   Anisotropy =     2.5721

     19  H    Isotropic =    25.7058   Anisotropy =     5.0006

     20  H    Isotropic =    24.9922   Anisotropy =     3.5992

     21  H    Isotropic =    26.0002   Anisotropy =     2.2746

     22  H    Isotropic =    24.7457   Anisotropy =     6.4576

     23  H    Isotropic =    24.7666   Anisotropy =     4.1205

     24  H    Isotropic =    26.2048   Anisotropy =     2.5721

     25  H    Isotropic =    25.7058   Anisotropy =     5.0006

  Exact polarizability: 153.336  -0.000 151.661   1.755   0.001 138.769
 Approx polarizability: 210.769  -0.001 210.574   2.216   0.003 260.645

                      1                      2                      3
                      A                      A                      A
 Frequencies --     10.8028                41.4932                49.1187
 Red. masses --      4.5585                 4.7163                 4.8605
 Frc consts  --      0.0003                 0.0048                 0.0069
 IR Inten    --      0.3188                 0.1243                 0.7553

                      4                      5                      6
                      A                      A                      A
 Frequencies --     57.8082                58.2556                83.2231
 Red. masses --      5.6540                 5.5185                 5.7222
 Frc consts  --      0.0111                 0.0110                 0.0234
 IR Inten    --      0.4697                 0.0072                 0.6055

                      7                      8                      9
                      A                      A                      A
 Frequencies --    175.4980               215.9192               234.9940
 Red. masses --      5.7754                 6.1810                 5.6446
 Frc consts  --      0.1048                 0.1698                 0.1837
 IR Inten    --      0.0005                 0.3353                 1.1704

                     10                     11                     12
                      A                      A                      A
 Frequencies --    288.9849               295.9940               301.2349
 Red. masses --      7.0020                 5.8891                 5.7612
 Frc consts  --      0.3445                 0.3040                 0.3080
 IR Inten    --      4.5608                 7.2893                 4.7482

                     13                     14                     15
                      A                      A                      A
 Frequencies --    488.0546               491.8404               501.0228
 Red. masses --     14.5278                14.8908                13.1981
 Frc consts  --      2.0389                 2.1224                 1.9520
 IR Inten    --     58.8379                55.8792                21.2493

                     16                     17                     18
                      A                      A                      A
 Frequencies --    610.4431               610.5135               612.3195
 Red. masses --      3.1964                 3.2471                 3.2578
 Frc consts  --      0.7018                 0.7131                 0.7197
 IR Inten    --      7.1473                 4.1505                10.3956

                     19                     20                     21
                      A                      A                      A
 Frequencies --    644.5978               666.3718               673.6850
 Red. masses --      5.8884                 5.7823                 6.1911
 Frc consts  --      1.4415                 1.5128                 1.6555
 IR Inten    --      0.0631                 4.7652                 4.2065

                     22                     23                     24
                      A                      A                      A
 Frequencies --    755.6735               757.4053               757.7195
 Red. masses --      1.2897                 1.2865                 1.2887
 Frc consts  --      0.4339                 0.4348                 0.4359
 IR Inten    --     14.1849                53.7733                61.3905

                     25                     26                     27
                      A                      A                      A
 Frequencies --    825.2268               828.2693               829.4296
 Red. masses --      1.2523                 1.2483                 1.2518
 Frc consts  --      0.5025                 0.5046                 0.5074
 IR Inten    --      6.4648                 6.4075                11.7339

                     28                     29                     30
                      A                      A                      A
 Frequencies --    878.6048               879.1688               879.8258
 Red. masses --      1.3113                 1.3072                 1.3082
 Frc consts  --      0.5964                 0.5953                 0.5966
 IR Inten    --      1.1940                 0.5890                 0.9176

                     31                     32                     33
                      A                      A                      A
 Frequencies --    899.2543               900.2508               900.8076
 Red. masses --      6.2520                 6.3611                 6.2760
 Frc consts  --      2.9788                 3.0375                 3.0005
 IR Inten    --      5.5945                 1.1475                 5.5151

                     34                     35                     36
                      A                      A                      A
 Frequencies --    922.2616               923.2678               925.8611
 Red. masses --      4.7825                 4.7940                 4.6801
 Frc consts  --      2.3967                 2.4077                 2.3637
 IR Inten    --      5.2649                 7.9537                17.1816

                     37                     38                     39
                      A                      A                      A
 Frequencies --   1036.9740              1037.6283              1038.1710
 Red. masses --      1.4011                 1.4147                 1.4228
 Frc consts  --      0.8877                 0.8974                 0.9035
 IR Inten    --     42.9074                 3.2678                51.5343

                     40                     41                     42
                      A                      A                      A
 Frequencies --   1100.6416              1101.4479              1104.3344
 Red. masses --      2.4121                 2.3695                 2.1798
 Frc consts  --      1.7216                 1.6937                 1.5663
 IR Inten    --      0.2242                 2.0720                 2.4490

                     43                     44                     45
                      A                      A                      A
 Frequencies --   1140.6032              1149.4963              1152.2946
 Red. masses --      5.5184                 5.2621                 6.0951
 Frc consts  --      4.2299                 4.0966                 4.7683
 IR Inten    --      8.9231                22.1401                12.6369

                     46                     47                     48
                      A                      A                      A
 Frequencies --   1191.7012              1192.1958              1198.2621
 Red. masses --      2.1796                 2.1123                 2.1870
 Frc consts  --      1.8237                 1.7689                 1.8501
 IR Inten    --      4.5687                 9.1144                 4.6070

                     49                     50                     51
                      A                      A                      A
 Frequencies --   1247.4847              1249.8886              1255.9780
 Red. masses --      1.6511                 1.6274                 1.6650
 Frc consts  --      1.5139                 1.4979                 1.5475
 IR Inten    --      7.4958                 1.2218                20.2593

                     52                     53                     54
                      A                      A                      A
 Frequencies --   1419.3379              1419.9973              1422.6887
 Red. masses --      2.5024                 2.5524                 2.6291
 Frc consts  --      2.9701                 3.0323                 3.1353
 IR Inten    --      0.4080                 1.2038                10.2086

                     55                     56                     57
                      A                      A                      A
 Frequencies --   1487.0985              1491.2953              1502.2237
 Red. masses --      5.2765                 5.5439                 5.4801
 Frc consts  --      6.8750                 7.2643                 7.2863
 IR Inten    --     21.7202                 0.7418                18.6000

                     58                     59                     60
                      A                      A                      A
 Frequencies --   1606.7944              1608.2842              1611.5404
 Red. masses --      4.8604                 4.7836                 4.9098
 Frc consts  --      7.3934                 7.2901                 7.5128
 IR Inten    --      2.7458                 2.9329                 4.1723

                     61                     62                     63
                      A                      A                      A
 Frequencies --   3263.8541              3264.3545              3264.4042
 Red. masses --      1.0907                 1.0903                 1.0903
 Frc consts  --      6.8457                 6.8451                 6.8454
 IR Inten    --      4.6446                 3.7808                 1.9935

                     64                     65                     66
                      A                      A                      A
 Frequencies --   3275.8197              3275.9316              3288.7611
 Red. masses --      1.0968                 1.0968                 1.0966
 Frc consts  --      6.9342                 6.9352                 6.9881
 IR Inten    --      0.7625                 1.8948                 0.3581

                     67                     68                     69
                      A                      A                      A
 Frequencies --   3296.5079              3296.5909              3297.8318
 Red. masses --      1.1055                 1.1055                 1.1049
 Frc consts  --      7.0778                 7.0782                 7.0802
 IR Inten    --      2.5321                 2.8373                 2.5113

 - Thermochemistry -
 -------------------
 Temperature   298.150 Kelvin.  Pressure   1.00000 Atm.
 Atom     1 has atomic number 15 and mass  30.97376

 Molecular mass:   232.02893 amu.
 Principal axes and moments of inertia in atomic units:
                           1         2         3
     Eigenvalues --  3529.982273711.232855768.17814
           X            0.99994   0.00000   0.01057
           Y           -0.00000   1.00000   0.00000
           Z           -0.01057  -0.00000   0.99994
 This molecule is an asymmetric top.
 Rotational symmetry number  1.
 Warning -- assumption of classical behavior for rotation
           may cause significant error
 Rotational temperatures (Kelvin)      0.02454     0.02334     0.01502
 Rotational constants (GHZ):           0.51126     0.48629     0.31288
 Zero-point vibrational energy     480095.0 (Joules/Mol)
                                  114.74546 (Kcal/Mol)
 Warning -- explicit consideration of  18 degrees of freedom as
           vibrations may cause significant error
 Vibrational temperatures:     15.54    59.70    70.67    83.17    83.82
          (Kelvin)            119.74   252.50   310.66   338.10   415.78
                              425.87   433.41   702.20   707.65   720.86
                              878.29   878.39   880.99   927.43   958.76
                              969.28  1087.25  1089.74  1090.19  1187.32
                             1191.69  1193.36  1264.12  1264.93  1265.87
                             1293.83  1295.26  1296.06  1326.93  1328.38
                             1332.11  1491.97  1492.92  1493.70  1583.58
                             1584.74  1588.89  1641.07  1653.87  1657.89
                             1714.59  1715.30  1724.03  1794.85  1798.31
                             1807.07  2042.11  2043.06  2046.93  2139.60
                             2145.64  2161.36  2311.82  2313.96  2318.65
                             4695.96  4696.68  4696.75  4713.17  4713.33
                             4731.79  4742.94  4743.06  4744.84

 Zero-point correction=                           0.182859 (Hartree/Particle)
 Thermal correction to Energy=                    0.196504
 Thermal correction to Enthalpy=                  0.197448
 Thermal correction to Gibbs Free Energy=         0.138504
 Sum of electronic and zero-point Energies=          -1029.443668
 Sum of electronic and thermal Energies=             -1029.430023
 Sum of electronic and thermal Enthalpies=           -1029.429078
 Sum of electronic and thermal Free Energies=        -1029.488023

                     E (Thermal)             CV                S
                      KCal/Mol        Cal/Mol-Kelvin    Cal/Mol-Kelvin
 Total                  123.308             50.755            124.060
 Electronic               0.000              0.000              0.000
 Translational            0.889              2.981             42.227
 Rotational               0.889              2.981             32.691
 Vibrational            121.531             44.794             49.142
 Vibration     1          0.593              1.987              7.858
 Vibration     2          0.594              1.981              5.186
 Vibration     3          0.595              1.978              4.853
 Vibration     4          0.596              1.974              4.531
 Vibration     5          0.596              1.974              4.515
 Vibration     6          0.600              1.961              3.813
 Vibration     7          0.627              1.873              2.376
 Vibration     8          0.645              1.817              1.993
 Vibration     9          0.655              1.787              1.840
 Vibration    10          0.686              1.694              1.480
 Vibration    11          0.690              1.681              1.439
 Vibration    12          0.693              1.671              1.410
 Vibration    13          0.844              1.277              0.689
 Vibration    14          0.848              1.268              0.679
 Vibration    15          0.856              1.248              0.656
 Vibration    16          0.969              1.010              0.432
 Vibration    17          0.970              1.010              0.432
 Vibration    18          0.972              1.006              0.429

 Optimization completed.
    -- Stationary point found.
 Normal termination of Gaussian 16 at Wed Feb 27 04:01:41 2019.
 Gaussian 16:  ES64L-G16RevA.03 25-Dec-2016

 ----------------------------------------------------------------------
 # TD(NStates=10, Root=1) B3LYP/6-31G* volume pop=NPA density=current G
 eom=AllCheck Guess=Read
 ----------------------------------------------------------------------

 Structure from the checkpoint file:  "direct_arylation_ligand_53_conf303.chk"
 -------------------
 Title Card Required
 -------------------
 Charge =  0 Multiplicity = 1

                         Standard orientation:
 ---------------------------------------------------------------------
 Center     Atomic      Atomic             Coordinates (Angstroms)
 Number     Number       Type             X           Y           Z
 ---------------------------------------------------------------------
      1         15           0        0.046333   -0.000005   -1.154023
      2          6           0       -0.826331    1.417604   -0.421036
      3          8           0       -0.959266    1.567720    0.942004
      4          6           0       -1.652292    2.717074    1.154546
      5          6           0       -1.973785    3.315256   -0.026313
      6          6           0       -1.436777    2.471295   -1.048716
      7          6           0        1.612678    0.000054   -0.216724
      8          8           0        2.749246    0.000008   -1.000040
      9          6           0        3.815863    0.000055   -0.161794
     10          6           0        3.407590    0.000135    1.139182
     11          6           0        1.979168    0.000131    1.103297
     12          6           0       -0.826242   -1.417658   -0.421021
     13          8           0       -0.959154   -1.567780    0.942021
     14          6           0       -1.652137   -2.717157    1.154571
     15          6           0       -1.973623   -3.315352   -0.026284
     16          6           0       -1.436656   -2.471373   -1.048692
     17          1           0       -1.834457    2.969263    2.188821
     18          1           0       -2.521200    4.238777   -0.153570
     19          1           0       -1.491412    2.621115   -2.118232
     20          1           0        4.785379    0.000031   -0.637388
     21          1           0        4.043624    0.000188    2.013759
     22          1           0        1.298309    0.000181    1.941869
     23          1           0       -1.834277   -2.969355    2.188849
     24          1           0       -2.521004   -4.238894   -0.153533
     25          1           0       -1.491292   -2.621198   -2.118208
 ---------------------------------------------------------------------

 SCF Done:  E(RB3LYP) =  -1029.62652683     A.U. after    3 cycles

 Excitation energies and oscillator strengths:

 Excited State   1:      Singlet-A      4.8578 eV  255.23 nm  f=0.0716  <S**2>=0.000
      59 -> 61         0.18135
      60 -> 61         0.67551
 This state for optimization and/or second-order correction.
 Total Energy, E(TD-HF/TD-DFT) =  -1029.44800652
 Copying the excited state density for this state as the 1-particle RhoCI density.

 Excited State   2:      Singlet-A      4.9666 eV  249.64 nm  f=0.1357  <S**2>=0.000
      58 -> 61         0.13124
      59 -> 62        -0.13791
      60 -> 62         0.67666

 Excited State   3:      Singlet-A      5.2166 eV  237.67 nm  f=0.0230  <S**2>=0.000
      58 -> 62        -0.40957
      59 -> 61         0.56225

 Excited State   4:      Singlet-A      5.3789 eV  230.50 nm  f=0.1909  <S**2>=0.000
      58 -> 61        -0.42244
      59 -> 62         0.52629
      60 -> 62         0.18092

 Excited State   5:      Singlet-A      5.4699 eV  226.67 nm  f=0.2765  <S**2>=0.000
      58 -> 62         0.55961
      59 -> 61         0.37892
      60 -> 61        -0.17180

 Excited State   6:      Singlet-A      5.5768 eV  222.32 nm  f=0.0241  <S**2>=0.000
      57 -> 61         0.68753

 Excited State   7:      Singlet-A      5.6090 eV  221.05 nm  f=0.0049  <S**2>=0.000
      57 -> 62         0.69774

 Excited State   8:      Singlet-A      5.6658 eV  218.83 nm  f=0.0432  <S**2>=0.000
      57 -> 61        -0.13940
      58 -> 61         0.47037
      59 -> 62         0.34809
      60 -> 63        -0.35217

 Excited State   9:      Singlet-A      6.3475 eV  195.33 nm  f=0.0593  <S**2>=0.000
      56 -> 62        -0.21390
      58 -> 61         0.23832
      59 -> 62         0.23846
      60 -> 63         0.54713
      60 -> 64        -0.12822

 Excited State  10:      Singlet-A      6.3622 eV  194.88 nm  f=0.0104  <S**2>=0.000
      56 -> 61         0.68862
      60 -> 65        -0.10548

 The electronic state is 1-A.
 Alpha  occ. eigenvalues --  -77.09958 -19.21324 -19.21324 -19.21096 -10.23901
 Alpha  occ. eigenvalues --  -10.23901 -10.23453 -10.23372 -10.23372 -10.23004
 Alpha  occ. eigenvalues --  -10.19060 -10.19060 -10.18774 -10.18774 -10.18439
 Alpha  occ. eigenvalues --  -10.18393  -6.56605  -4.72873  -4.72862  -4.72377
 Alpha  occ. eigenvalues --   -1.10529  -1.10309  -1.10149  -0.79842  -0.79679
 Alpha  occ. eigenvalues --   -0.79333  -0.77196  -0.73720  -0.73489  -0.64603
 Alpha  occ. eigenvalues --   -0.59956  -0.59449  -0.59147  -0.55941  -0.55568
 Alpha  occ. eigenvalues --   -0.54613  -0.53018  -0.52810  -0.48845  -0.45155
 Alpha  occ. eigenvalues --   -0.44895  -0.43793  -0.43303  -0.42986  -0.41514
 Alpha  occ. eigenvalues --   -0.40340  -0.40298  -0.39581  -0.38684  -0.38371
 Alpha  occ. eigenvalues --   -0.37093  -0.35916  -0.35314  -0.27892  -0.27716
 Alpha  occ. eigenvalues --   -0.27268  -0.25510  -0.23602  -0.23309  -0.21471
 Alpha virt. eigenvalues --   -0.01375  -0.01154   0.02817   0.05766   0.06516
 Alpha virt. eigenvalues --    0.07626   0.08249   0.09395   0.10059   0.12446
 Alpha virt. eigenvalues --    0.13174   0.13324   0.13857   0.14936   0.15885

 Mulliken charges:
               1
     1  P    0.270425
     2  C    0.077055
     3  O   -0.434186
     4  C    0.059649
     5  C   -0.174963
     6  C   -0.196988
     7  C    0.185026
     8  O   -0.386203
     9  C    0.153861
    10  C   -0.168323
    11  C   -0.125983
    12  C    0.077063
    13  O   -0.434179
    14  C    0.059657
    15  C   -0.174962
    16  C   -0.196986
    17  H    0.135156
    18  H    0.127373
    19  H    0.131096
    20  H    0.211167
    21  H    0.187804
    22  H    0.223801
    23  H    0.135162
    24  H    0.127377
    25  H    0.131101
 Sum of Mulliken charges =  -0.00000

 Dipole moment (field-independent basis, Debye):
    X=              6.8823    Y=             -0.0002    Z=              2.4053  Tot=              7.2905
 Quadrupole moment (field-independent basis, Debye-Ang):
   XX=            -73.6793   YY=            -97.4303   ZZ=            -93.3143
   XY=              0.0014   XZ=              3.1167   YZ=              0.0002

 Summary of Natural Population Analysis:

                                       Natural Population
                Natural  -----------------------------------------------
    Atom  No    Charge         Core      Valence    Rydberg      Total
 -----------------------------------------------------------------------
      P    1    0.80328      9.99806     4.13282    0.06584    14.19672
      C    2   -0.11323      1.99885     4.07763    0.03675     6.11323
      O    3   -0.49109      1.99974     6.47687    0.01448     8.49109
      C    4    0.07007      1.99905     3.90541    0.02547     5.92993
      C    5   -0.32962      1.99908     4.31741    0.01313     6.32962
      C    6   -0.32381      1.99892     4.30962    0.01527     6.32381
      C    7    0.13573      1.99899     3.82641    0.03887     5.86427
      O    8   -0.45701      1.99975     6.43839    0.01886     8.45701
      C    9    0.23778      1.99907     3.74080    0.02234     5.76222
      C   10   -0.29933      1.99912     4.28709    0.01312     6.29933
      C   11   -0.23747      1.99897     4.22270    0.01580     6.23747
      C   12   -0.11322      1.99885     4.07761    0.03675     6.11322
      O   13   -0.49108      1.99974     6.47686    0.01448     8.49108
      C   14    0.07008      1.99905     3.90540    0.02547     5.92992
      C   15   -0.32962      1.99908     4.31741    0.01313     6.32962
      C   16   -0.32381      1.99892     4.30961    0.01527     6.32381
      H   17    0.21332      0.00000     0.78609    0.00059     0.78668
      H   18    0.23985      0.00000     0.75971    0.00044     0.76015
      H   19    0.24271      0.00000     0.75678    0.00051     0.75729
      H   20    0.24489      0.00000     0.75486    0.00025     0.75511
      H   21    0.26662      0.00000     0.73300    0.00038     0.73338
      H   22    0.28907      0.00000     0.71009    0.00084     0.71093
      H   23    0.21332      0.00000     0.78609    0.00059     0.78668
      H   24    0.23985      0.00000     0.75971    0.00044     0.76015
      H   25    0.24271      0.00000     0.75678    0.00051     0.75729
 =======================================================================
   * Total *   -0.00000     39.98526    79.62515    0.38959   120.00000

 Normal termination of Gaussian 16 at Wed Feb 27 04:08:57 2019.
