 Gaussian 16, Revision A.03,

 ---------------------------------
 # opt=CalcFc B3LYP/6-31G* scf=xqc
 ---------------------------------

 -------------------
 Title Card Required
 -------------------
 Symbolic Z-matrix:
 Charge =  0 Multiplicity = 1

 SCF Done:  E(RB3LYP) =  -1029.59500616     A.U. after   15 cycles
 SCF Done:  E(RB3LYP) =  -1029.61537056     A.U. after   15 cycles
 SCF Done:  E(RB3LYP) =  -1029.61001665     A.U. after   15 cycles
 SCF Done:  E(RB3LYP) =  -1029.61909096     A.U. after   13 cycles
 SCF Done:  E(RB3LYP) =  -1029.62311743     A.U. after   15 cycles
 SCF Done:  E(RB3LYP) =  -1029.62402249     A.U. after   12 cycles
 SCF Done:  E(RB3LYP) =  -1029.62434519     A.U. after   12 cycles
 SCF Done:  E(RB3LYP) =  -1029.62449132     A.U. after   12 cycles
 SCF Done:  E(RB3LYP) =  -1029.62465949     A.U. after   12 cycles
 SCF Done:  E(RB3LYP) =  -1029.62487456     A.U. after   12 cycles
 SCF Done:  E(RB3LYP) =  -1029.62565806     A.U. after   11 cycles
 SCF Done:  E(RB3LYP) =  -1029.62566533     A.U. after   10 cycles
 SCF Done:  E(RB3LYP) =  -1029.62570312     A.U. after   10 cycles
 SCF Done:  E(RB3LYP) =  -1029.62576624     A.U. after   12 cycles
 SCF Done:  E(RB3LYP) =  -1029.62579494     A.U. after   12 cycles
 SCF Done:  E(RB3LYP) =  -1029.62579891     A.U. after   10 cycles
 SCF Done:  E(RB3LYP) =  -1029.62579910     A.U. after    8 cycles
 SCF Done:  E(RB3LYP) =  -1029.62579912     A.U. after    8 cycles
 Optimization completed.
    -- Stationary point found.
 Normal termination of Gaussian 16 at Tue Feb 26 01:32:51 2019.

 ----------------------------------------------------------------------
 # freq B3LYP/6-31G* volume NMR pop=NPA density=current Geom=AllCheck G
 uess=Read
 ----------------------------------------------------------------------

 Structure from the checkpoint file:  "direct_arylation_ligand_53_conf12.chk"
 -------------------
 Title Card Required
 -------------------
 Charge =  0 Multiplicity = 1

 SCF Done:  E(RB3LYP) =  -1029.62579912     A.U. after    1 cycles

      1  P    Isotropic =   441.4419   Anisotropy =    41.0022

      2  C    Isotropic =    44.9834   Anisotropy =    91.1929

      3  O    Isotropic =    41.9994   Anisotropy =   298.4177

      4  C    Isotropic =    50.5620   Anisotropy =    99.8999

      5  C    Isotropic =    84.7489   Anisotropy =   119.6850

      6  C    Isotropic =    72.3275   Anisotropy =   127.2782

      7  C    Isotropic =    43.4399   Anisotropy =    87.9393

      8  O    Isotropic =    40.8582   Anisotropy =   299.0231

      9  C    Isotropic =    51.3406   Anisotropy =    97.7670

     10  C    Isotropic =    84.8777   Anisotropy =   120.5848

     11  C    Isotropic =    76.1401   Anisotropy =   132.2920

     12  C    Isotropic =    44.3255   Anisotropy =    88.9916

     13  O    Isotropic =    37.8644   Anisotropy =   292.8241

     14  C    Isotropic =    51.5386   Anisotropy =    99.4831

     15  C    Isotropic =    84.6416   Anisotropy =   120.0521

     16  C    Isotropic =    74.7692   Anisotropy =   128.3354

     17  H    Isotropic =    24.7782   Anisotropy =     4.1587

     18  H    Isotropic =    26.1061   Anisotropy =     2.4546

     19  H    Isotropic =    25.5345   Anisotropy =     4.9902

     20  H    Isotropic =    24.9004   Anisotropy =     3.6593

     21  H    Isotropic =    26.1202   Anisotropy =     2.3917

     22  H    Isotropic =    25.8836   Anisotropy =     7.4917

     23  H    Isotropic =    24.8344   Anisotropy =     3.4765

     24  H    Isotropic =    26.0091   Anisotropy =     2.2837

     25  H    Isotropic =    25.3320   Anisotropy =     7.1999

  Exact polarizability: 161.512   4.166 155.431  -8.375   0.280 125.470
 Approx polarizability: 228.220   9.696 217.904 -21.130   4.348 237.069

                      1                      2                      3
                      A                      A                      A
 Frequencies --     23.5201                42.9594                50.2979
 Red. masses --      4.7152                 4.6935                 4.7246
 Frc consts  --      0.0015                 0.0051                 0.0070
 IR Inten    --      0.2989                 0.1547                 0.6075

                      4                      5                      6
                      A                      A                      A
 Frequencies --     53.1632                64.2414                86.8062
 Red. masses --      5.7561                 5.3382                 5.5010
 Frc consts  --      0.0096                 0.0130                 0.0244
 IR Inten    --      0.2953                 0.2999                 0.5092

                      7                      8                      9
                      A                      A                      A
 Frequencies --    188.7446               215.2563               232.3122
 Red. masses --      5.7908                 5.9397                 5.5891
 Frc consts  --      0.1215                 0.1622                 0.1777
 IR Inten    --      0.3973                 1.0812                 2.8253

                     10                     11                     12
                      A                      A                      A
 Frequencies --    285.1571               290.2824               302.4447
 Red. masses --      7.4883                 6.5774                 5.6777
 Frc consts  --      0.3588                 0.3265                 0.3060
 IR Inten    --      2.5787                 3.8846                 5.0014

                     13                     14                     15
                      A                      A                      A
 Frequencies --    483.5285               493.5965               498.2154
 Red. masses --     12.8938                14.4796                12.8594
 Frc consts  --      1.7761                 2.0785                 1.8806
 IR Inten    --     28.2831                52.7693                35.8242

                     16                     17                     18
                      A                      A                      A
 Frequencies --    610.6626               610.7871               612.3010
 Red. masses --      3.1911                 3.2731                 3.3008
 Frc consts  --      0.7011                 0.7194                 0.7291
 IR Inten    --      3.7759                 8.4873                 7.9349

                     19                     20                     21
                      A                      A                      A
 Frequencies --    650.6854               660.8707               669.6372
 Red. masses --      6.1765                 6.0748                 6.1724
 Frc consts  --      1.5408                 1.5632                 1.6307
 IR Inten    --      0.6478                 4.2441                 4.7649

                     22                     23                     24
                      A                      A                      A
 Frequencies --    752.8118               755.9192               758.5685
 Red. masses --      1.2926                 1.2912                 1.2879
 Frc consts  --      0.4316                 0.4347                 0.4366
 IR Inten    --     40.1982                41.7828                44.0531

                     25                     26                     27
                      A                      A                      A
 Frequencies --    825.0924               830.0467               831.3089
 Red. masses --      1.2389                 1.2382                 1.2478
 Frc consts  --      0.4969                 0.5026                 0.5081
 IR Inten    --     10.0830                 6.0343                11.7799

                     28                     29                     30
                      A                      A                      A
 Frequencies --    878.5297               882.8045               883.7032
 Red. masses --      1.3004                 1.3106                 1.2970
 Frc consts  --      0.5914                 0.6018                 0.5968
 IR Inten    --      1.1530                 0.4353                 2.1102

                     31                     32                     33
                      A                      A                      A
 Frequencies --    899.0026               899.8661               900.8023
 Red. masses --      6.2895                 6.2562                 6.2684
 Frc consts  --      2.9949                 2.9848                 2.9969
 IR Inten    --      2.9101                 4.1182                 4.1304

                     34                     35                     36
                      A                      A                      A
 Frequencies --    921.2285               924.7238               925.8624
 Red. masses --      4.8267                 4.7146                 4.6980
 Frc consts  --      2.4134                 2.3753                 2.3728
 IR Inten    --      6.8146                14.8372                 5.4076

                     37                     38                     39
                      A                      A                      A
 Frequencies --   1036.3068              1036.9567              1038.8353
 Red. masses --      1.4160                 1.4167                 1.4097
 Frc consts  --      0.8959                 0.8975                 0.8963
 IR Inten    --     33.6100                26.8839                30.3312

                     40                     41                     42
                      A                      A                      A
 Frequencies --   1099.3563              1103.5739              1106.0452
 Red. masses --      2.4617                 2.2113                 2.1883
 Frc consts  --      1.7529                 1.5867                 1.5772
 IR Inten    --      1.4135                 1.2549                 1.7704

                     43                     44                     45
                      A                      A                      A
 Frequencies --   1138.4099              1143.3325              1148.6194
 Red. masses --      5.5694                 5.3143                 5.9053
 Frc consts  --      4.2526                 4.0930                 4.5904
 IR Inten    --      6.9656                12.5633                17.1593

                     46                     47                     48
                      A                      A                      A
 Frequencies --   1190.1489              1196.7795              1199.0512
 Red. masses --      2.0580                 2.2032                 2.3056
 Frc consts  --      1.7175                 1.8592                 1.9531
 IR Inten    --      7.6885                 9.6539                 3.3168

                     49                     50                     51
                      A                      A                      A
 Frequencies --   1248.0241              1250.7377              1254.0797
 Red. masses --      1.6489                 1.6686                 1.6313
 Frc consts  --      1.5132                 1.5380                 1.5116
 IR Inten    --      8.3762                12.3756                15.7918

                     52                     53                     54
                      A                      A                      A
 Frequencies --   1417.5985              1419.0772              1421.0351
 Red. masses --      2.5308                 2.5471                 2.5789
 Frc consts  --      2.9965                 3.0220                 3.0683
 IR Inten    --      0.9395                 1.3122                 6.8504

                     55                     56                     57
                      A                      A                      A
 Frequencies --   1491.9854              1494.3183              1499.9067
 Red. masses --      5.4906                 5.4445                 5.4808
 Frc consts  --      7.2012                 7.1629                 7.2648
 IR Inten    --     13.3800                12.4240                 9.8145

                     58                     59                     60
                      A                      A                      A
 Frequencies --   1606.3386              1608.0176              1611.9945
 Red. masses --      4.8494                 4.8721                 4.8954
 Frc consts  --      7.3725                 7.4224                 7.4949
 IR Inten    --      2.5506                 3.9518                 2.1192

                     61                     62                     63
                      A                      A                      A
 Frequencies --   3263.8550              3265.2161              3265.2830
 Red. masses --      1.0904                 1.0907                 1.0903
 Frc consts  --      6.8438                 6.8516                 6.8492
 IR Inten    --      4.4850                 3.7605                 2.8231

                     64                     65                     66
                      A                      A                      A
 Frequencies --   3276.6232              3282.2149              3288.0989
 Red. masses --      1.0968                 1.0970                 1.0966
 Frc consts  --      6.9378                 6.9628                 6.9852
 IR Inten    --      0.9284                 0.9087                 0.2743

                     67                     68                     69
                      A                      A                      A
 Frequencies --   3296.6729              3298.2737              3299.4626
 Red. masses --      1.1057                 1.1046                 1.1048
 Frc consts  --      7.0798                 7.0801                 7.0865
 IR Inten    --      2.3375                 2.7292                 2.1604

 - Thermochemistry -
 -------------------
 Temperature   298.150 Kelvin.  Pressure   1.00000 Atm.
 Atom     1 has atomic number 15 and mass  30.97376

 Molecular mass:   232.02893 amu.
 Principal axes and moments of inertia in atomic units:
                           1         2         3
     Eigenvalues --  3512.979223711.479065971.53017
           X            0.99869   0.05046  -0.00799
           Y           -0.05051   0.99870  -0.00648
           Z            0.00765   0.00688   0.99995
 This molecule is an asymmetric top.
 Rotational symmetry number  1.
 Warning -- assumption of classical behavior for rotation
           may cause significant error
 Rotational temperatures (Kelvin)      0.02466     0.02334     0.01450
 Rotational constants (GHZ):           0.51374     0.48626     0.30222
 Zero-point vibrational energy     480252.6 (Joules/Mol)
                                  114.78313 (Kcal/Mol)
 Warning -- explicit consideration of  18 degrees of freedom as
           vibrations may cause significant error
 Vibrational temperatures:     33.84    61.81    72.37    76.49    92.43
          (Kelvin)            124.89   271.56   309.71   334.25   410.28
                              417.65   435.15   695.69   710.18   716.82
                              878.61   878.79   880.96   936.19   950.85
                              963.46  1083.13  1087.60  1091.41  1187.12
                             1194.25  1196.07  1264.01  1270.16  1271.45
                             1293.46  1294.71  1296.05  1325.44  1330.47
                             1332.11  1491.01  1491.95  1494.65  1581.73
                             1587.80  1591.35  1637.92  1645.00  1652.61
                             1712.36  1721.90  1725.17  1795.63  1799.53
                             1804.34  2039.61  2041.74  2044.55  2146.63
                             2149.99  2158.03  2311.16  2313.58  2319.30
                             4695.96  4697.92  4698.01  4714.33  4722.38
                             4730.84  4743.18  4745.48  4747.19

 Zero-point correction=                           0.182919 (Hartree/Particle)
 Thermal correction to Energy=                    0.196519
 Thermal correction to Enthalpy=                  0.197464
 Thermal correction to Gibbs Free Energy=         0.139368
 Sum of electronic and zero-point Energies=          -1029.442881
 Sum of electronic and thermal Energies=             -1029.429280
 Sum of electronic and thermal Enthalpies=           -1029.428335
 Sum of electronic and thermal Free Energies=        -1029.486431

                     E (Thermal)             CV                S
                      KCal/Mol        Cal/Mol-Kelvin    Cal/Mol-Kelvin
 Total                  123.318             50.767            122.273
 Electronic               0.000              0.000              0.000
 Translational            0.889              2.981             42.227
 Rotational               0.889              2.981             32.721
 Vibrational            121.540             44.805             47.326
 Vibration     1          0.593              1.985              6.312
 Vibration     2          0.595              1.980              5.118
 Vibration     3          0.595              1.977              4.806
 Vibration     4          0.596              1.976              4.696
 Vibration     5          0.597              1.971              4.322
 Vibration     6          0.601              1.958              3.731
 Vibration     7          0.633              1.855              2.240
 Vibration     8          0.645              1.818              1.999
 Vibration     9          0.653              1.792              1.861
 Vibration    10          0.683              1.701              1.503
 Vibration    11          0.686              1.692              1.472
 Vibration    12          0.694              1.669              1.403
 Vibration    13          0.840              1.287              0.701
 Vibration    14          0.849              1.264              0.674
 Vibration    15          0.854              1.254              0.663
 Vibration    16          0.970              1.009              0.432
 Vibration    17          0.970              1.009              0.431
 Vibration    18          0.972              1.006              0.429

 Optimization completed.
    -- Stationary point found.
 Normal termination of Gaussian 16 at Tue Feb 26 01:38:53 2019.
 Gaussian 16:  ES64L-G16RevA.03 25-Dec-2016

 ----------------------------------------------------------------------
 # TD(NStates=10, Root=1) B3LYP/6-31G* volume pop=NPA density=current G
 eom=AllCheck Guess=Read
 ----------------------------------------------------------------------

 Structure from the checkpoint file:  "direct_arylation_ligand_53_conf13.chk"
 -------------------
 Title Card Required
 -------------------
 Charge =  0 Multiplicity = 1

                         Standard orientation:
 ---------------------------------------------------------------------
 Center     Atomic      Atomic             Coordinates (Angstroms)
 Number     Number       Type             X           Y           Z
 ---------------------------------------------------------------------
      1         15           0       -0.007275   -0.020430   -1.109067
      2          6           0        1.065081    1.262368   -0.392514
      3          8           0        1.247726    1.386375    0.969375
      4          6           0        2.113259    2.416504    1.166573
      5          6           0        2.498335    2.960316   -0.021170
      6          6           0        1.820136    2.209135   -1.032003
      7          6           0        0.506894   -1.514222   -0.189881
      8          8           0        1.481316   -2.267225   -0.807062
      9          6           0        1.711948   -3.350656   -0.019866
     10          6           0        0.906391   -3.326644    1.078606
     11          6           0        0.123709   -2.134354    0.968804
     12          6           0       -1.587124    0.338329   -0.267537
     13          8           0       -2.706133   -0.111511   -0.934447
     14          6           0       -3.789393    0.266630   -0.207670
     15          6           0       -3.406505    0.957489    0.902357
     16          6           0       -1.977045    1.003954    0.864898
     17          1           0        2.357320    2.631868    2.196429
     18          1           0        3.181085    3.786790   -0.160754
     19          1           0        1.882635    2.345778   -2.102838
     20          1           0        2.466492   -4.036015   -0.376148
     21          1           0        0.872442   -4.064257    1.868612
     22          1           0       -0.627104   -1.775123    1.657847
     23          1           0       -4.747844   -0.026239   -0.609541
     24          1           0       -4.057873    1.381724    1.654013
     25          1           0       -1.315431    1.467714    1.581879
 ---------------------------------------------------------------------

 SCF Done:  E(RB3LYP) =  -1029.62579912     A.U. after    1 cycles

 Excitation energies and oscillator strengths:

 Excited State   1:      Singlet-A      4.6197 eV  268.38 nm  f=0.0682  <S**2>=0.000
      60 -> 61         0.69219
 This state for optimization and/or second-order correction.
 Total Energy, E(TD-HF/TD-DFT) =  -1029.45602976
 Copying the excited state density for this state as the 1-particle RhoCI density.

 Excited State   2:      Singlet-A      4.9082 eV  252.60 nm  f=0.1457  <S**2>=0.000
      59 -> 61        -0.19604
      60 -> 62         0.66564

 Excited State   3:      Singlet-A      5.1909 eV  238.85 nm  f=0.1273  <S**2>=0.000
      58 -> 62         0.10009
      59 -> 61         0.65566
      60 -> 62         0.19682

 Excited State   4:      Singlet-A      5.4606 eV  227.05 nm  f=0.0336  <S**2>=0.000
      58 -> 61         0.19884
      58 -> 62         0.57097
      59 -> 61        -0.11725
      59 -> 62        -0.24302
      60 -> 63        -0.22884

 Excited State   5:      Singlet-A      5.4721 eV  226.58 nm  f=0.0845  <S**2>=0.000
      58 -> 61         0.23784
      58 -> 62         0.26655
      59 -> 62         0.50586
      60 -> 63         0.32278

 Excited State   6:      Singlet-A      5.5393 eV  223.83 nm  f=0.1988  <S**2>=0.000
      58 -> 61         0.53161
      58 -> 62        -0.27091
      60 -> 63        -0.33400

 Excited State   7:      Singlet-A      5.8895 eV  210.52 nm  f=0.0188  <S**2>=0.000
      57 -> 61         0.55589
      58 -> 61        -0.14837
      59 -> 62         0.21334
      60 -> 63        -0.28821

 Excited State   8:      Singlet-A      6.0640 eV  204.46 nm  f=0.0570  <S**2>=0.000
      57 -> 61         0.34718
      57 -> 62         0.17018
      58 -> 61         0.21155
      58 -> 63        -0.19413
      59 -> 62        -0.25656
      59 -> 63        -0.25520
      60 -> 63         0.30942

 Excited State   9:      Singlet-A      6.1370 eV  202.03 nm  f=0.0154  <S**2>=0.000
      57 -> 62         0.61200
      59 -> 62         0.11238
      59 -> 63        -0.13107
      60 -> 63        -0.11070
      60 -> 64        -0.20761

 Excited State  10:      Singlet-A      6.3118 eV  196.43 nm  f=0.0931  <S**2>=0.000
      55 -> 61        -0.10845
      57 -> 61         0.13123
      58 -> 63        -0.19745
      59 -> 63         0.56321
      60 -> 64        -0.21869

 The electronic state is 1-A.
 Alpha  occ. eigenvalues --  -77.10228 -19.21811 -19.21418 -19.21092 -10.24306
 Alpha  occ. eigenvalues --  -10.23775 -10.23727 -10.23576 -10.23451 -10.23154
 Alpha  occ. eigenvalues --  -10.19423 -10.19152 -10.18867 -10.18784 -10.18518
 Alpha  occ. eigenvalues --  -10.18459  -6.56881  -4.73155  -4.73133  -4.72643
 Alpha  occ. eigenvalues --   -1.10826  -1.10537  -1.10196  -0.80154  -0.79784
 Alpha  occ. eigenvalues --   -0.79335  -0.77389  -0.73965  -0.73581  -0.64781
 Alpha  occ. eigenvalues --   -0.60165  -0.59607  -0.59395  -0.56099  -0.55518
 Alpha  occ. eigenvalues --   -0.54678  -0.53200  -0.53006  -0.48906  -0.45294
 Alpha  occ. eigenvalues --   -0.44962  -0.44182  -0.43586  -0.42485  -0.41756
 Alpha  occ. eigenvalues --   -0.40640  -0.40085  -0.39773  -0.38951  -0.38568
 Alpha  occ. eigenvalues --   -0.37223  -0.36248  -0.35704  -0.28207  -0.27807
 Alpha  occ. eigenvalues --   -0.27402  -0.26731  -0.23645  -0.23167  -0.21034
 Alpha virt. eigenvalues --   -0.01506  -0.00682   0.01947   0.05415   0.06001
 Alpha virt. eigenvalues --    0.06873   0.07901   0.09327   0.11013   0.12588
 Alpha virt. eigenvalues --    0.12760   0.13257   0.13994   0.15293   0.15760

 Mulliken charges:
               1
     1  P    0.359178
     2  C    0.050404
     3  O   -0.459804
     4  C    0.026005
     5  C   -0.177134
     6  C   -0.201151
     7  C    0.169417
     8  O   -0.396596
     9  C    0.139250
    10  C   -0.169762
    11  C   -0.144065
    12  C    0.083554
    13  O   -0.418331
    14  C    0.089029
    15  C   -0.177046
    16  C   -0.170294
    17  H    0.118352
    18  H    0.112490
    19  H    0.112145
    20  H    0.198528
    21  H    0.176567
    22  H    0.191709
    23  H    0.161284
    24  H    0.148500
    25  H    0.177771
 Sum of Mulliken charges =  -0.00000

 Dipole moment (field-independent basis, Debye):
    X=             -1.7041    Y=             -6.0666    Z=              2.2246  Tot=              6.6825
 Quadrupole moment (field-independent basis, Debye-Ang):
   XX=            -89.1795   YY=            -84.0316   ZZ=            -95.0895
   XY=            -10.2013   XZ=             -2.1979   YZ=             -2.4850

 Summary of Natural Population Analysis:

                                       Natural Population
                Natural  -----------------------------------------------
    Atom  No    Charge         Core      Valence    Rydberg      Total
 -----------------------------------------------------------------------
      P    1    0.96381      9.99765     3.97357    0.06497    14.03619
      C    2   -0.18800      1.99878     4.15436    0.03486     6.18800
      O    3   -0.51159      1.99974     6.49762    0.01423     8.51159
      C    4    0.01878      1.99904     3.95627    0.02590     5.98122
      C    5   -0.34035      1.99908     4.32795    0.01332     6.34035
      C    6   -0.34024      1.99892     4.32536    0.01596     6.34024
      C    7    0.06364      1.99893     3.89966    0.03777     5.93636
      O    8   -0.45428      1.99974     6.43542    0.01911     8.45428
      C    9    0.20421      1.99906     3.77457    0.02216     5.79579
      C   10   -0.30515      1.99911     4.29305    0.01299     6.30515
      C   11   -0.25837      1.99894     4.24466    0.01477     6.25837
      C   12   -0.07521      1.99892     4.03805    0.03824     6.07521
      O   13   -0.46451      1.99975     6.45158    0.01317     8.46451
      C   14    0.11838      1.99905     3.85801    0.02456     5.88162
      C   15   -0.32391      1.99909     4.31184    0.01298     6.32391
      C   16   -0.29816      1.99894     4.28323    0.01599     6.29816
      H   17    0.20672      0.00000     0.79287    0.00041     0.79328
      H   18    0.23363      0.00000     0.76597    0.00040     0.76637
      H   19    0.23231      0.00000     0.76733    0.00036     0.76769
      H   20    0.24092      0.00000     0.75873    0.00035     0.75908
      H   21    0.26203      0.00000     0.73750    0.00046     0.73797
      H   22    0.27260      0.00000     0.72681    0.00059     0.72740
      H   23    0.22535      0.00000     0.77411    0.00054     0.77465
      H   24    0.24997      0.00000     0.74957    0.00046     0.75003
      H   25    0.26738      0.00000     0.73128    0.00134     0.73262
 =======================================================================
   * Total *    0.00000     39.98473    79.62938    0.38588   120.00000

 Normal termination of Gaussian 16 at Tue Feb 26 01:47:07 2019.
