 Gaussian 16, Revision A.03,

 ---------------------------------
 # opt=CalcFc B3LYP/6-31G* scf=xqc
 ---------------------------------

 -------------------
 Title Card Required
 -------------------
 Symbolic Z-matrix:
 Charge =  0 Multiplicity = 1

 SCF Done:  E(RB3LYP) =  -1029.62487516     A.U. after   14 cycles
 SCF Done:  E(RB3LYP) =  -1029.62487352     A.U. after    7 cycles
 SCF Done:  E(RB3LYP) =  -1029.62487607     A.U. after    8 cycles
 SCF Done:  E(RB3LYP) =  -1029.62487653     A.U. after    8 cycles
 Optimization completed.
    -- Stationary point found.
 Normal termination of Gaussian 16 at Fri Mar  8 19:02:42 2019.

 ----------------------------------------------------------------------
 # freq B3LYP/6-31G* volume NMR pop=NPA density=current Geom=AllCheck G
 uess=Read
 ----------------------------------------------------------------------

 Structure from the checkpoint file:  "direct_arylation_ligand_53_conf122.chk"
 -------------------
 Title Card Required
 -------------------
 Charge =  0 Multiplicity = 1

 SCF Done:  E(RB3LYP) =  -1029.62487653     A.U. after    1 cycles

      1  P    Isotropic =   433.0114   Anisotropy =    37.9632

      2  C    Isotropic =    43.3966   Anisotropy =    89.2631

      3  O    Isotropic =    39.8411   Anisotropy =   300.8773

      4  C    Isotropic =    50.6648   Anisotropy =    98.8965

      5  C    Isotropic =    84.7437   Anisotropy =   121.1170

      6  C    Isotropic =    75.8528   Anisotropy =   132.6638

      7  C    Isotropic =    43.4100   Anisotropy =    89.2686

      8  O    Isotropic =    39.8380   Anisotropy =   300.9409

      9  C    Isotropic =    50.6763   Anisotropy =    98.9155

     10  C    Isotropic =    84.7569   Anisotropy =   121.2042

     11  C    Isotropic =    75.8473   Anisotropy =   132.6974

     12  C    Isotropic =    43.4079   Anisotropy =    89.2641

     13  O    Isotropic =    39.8364   Anisotropy =   300.9046

     14  C    Isotropic =    50.6732   Anisotropy =    98.8804

     15  C    Isotropic =    84.7246   Anisotropy =   121.0725

     16  C    Isotropic =    75.8598   Anisotropy =   132.7085

     17  H    Isotropic =    24.7868   Anisotropy =     3.5205

     18  H    Isotropic =    26.0641   Anisotropy =     2.3687

     19  H    Isotropic =    25.9755   Anisotropy =     7.4829

     20  H    Isotropic =    24.7858   Anisotropy =     3.5210

     21  H    Isotropic =    26.0611   Anisotropy =     2.3683

     22  H    Isotropic =    25.9760   Anisotropy =     7.4813

     23  H    Isotropic =    24.7876   Anisotropy =     3.5202

     24  H    Isotropic =    26.0661   Anisotropy =     2.3662

     25  H    Isotropic =    25.9750   Anisotropy =     7.4867

  Exact polarizability: 162.522  -0.006 162.513  -0.015  -0.004 116.219
 Approx polarizability: 231.349  -0.016 231.339  -0.016  -0.006 223.257

                      1                      2                      3
                      A                      A                      A
 Frequencies --     37.0246                37.7064                55.1375
 Red. masses --      4.8409                 4.8470                 4.5720
 Frc consts  --      0.0039                 0.0041                 0.0082
 IR Inten    --      0.1546                 0.1499                 0.1386

                      4                      5                      6
                      A                      A                      A
 Frequencies --     58.7216                58.7601                77.3991
 Red. masses --      5.3910                 5.3938                 5.3530
 Frc consts  --      0.0110                 0.0110                 0.0189
 IR Inten    --      0.3701                 0.3722                 0.4496

                      7                      8                      9
                      A                      A                      A
 Frequencies --    202.0320               222.2310               222.4140
 Red. masses --      5.6718                 5.6202                 5.6217
 Frc consts  --      0.1364                 0.1635                 0.1638
 IR Inten    --      0.5773                 2.6660                 2.6629

                     10                     11                     12
                      A                      A                      A
 Frequencies --    279.9127               294.6037               294.6760
 Red. masses --      8.1151                 6.4481                 6.4498
 Frc consts  --      0.3746                 0.3297                 0.3300
 IR Inten    --      2.9412                 2.5639                 2.5673

                     13                     14                     15
                      A                      A                      A
 Frequencies --    480.0032               495.4194               495.4646
 Red. masses --     10.9421                13.6880                13.6868
 Frc consts  --      1.4854                 1.9794                 1.9796
 IR Inten    --     22.5617                38.1990                38.1886

                     16                     17                     18
                      A                      A                      A
 Frequencies --    611.4421               611.5093               612.0949
 Red. masses --      3.2805                 3.2831                 3.2722
 Frc consts  --      0.7226                 0.7233                 0.7223
 IR Inten    --      9.0006                 9.0009                 3.6376

                     19                     20                     21
                      A                      A                      A
 Frequencies --    658.8795               658.9853               664.3056
 Red. masses --      6.1341                 6.1426                 6.4782
 Frc consts  --      1.5690                 1.5717                 1.6844
 IR Inten    --      5.8263                 5.8229                 0.6566

                     22                     23                     24
                      A                      A                      A
 Frequencies --    755.6236               755.9878               756.0863
 Red. masses --      1.2880                 1.2876                 1.2876
 Frc consts  --      0.4333                 0.4336                 0.4337
 IR Inten    --     34.0164                45.9877                45.9080

                     25                     26                     27
                      A                      A                      A
 Frequencies --    826.8944               827.0846               829.6681
 Red. masses --      1.2420                 1.2417                 1.2351
 Frc consts  --      0.5003                 0.5004                 0.5009
 IR Inten    --     12.0536                12.0207                 4.8410

                     28                     29                     30
                      A                      A                      A
 Frequencies --    878.9580               879.1381               882.5337
 Red. masses --      1.3006                 1.3002                 1.2976
 Frc consts  --      0.5920                 0.5921                 0.5955
 IR Inten    --      1.6016                 1.6360                 0.2006

                     31                     32                     33
                      A                      A                      A
 Frequencies --    900.0830               900.0941               900.1403
 Red. masses --      6.2494                 6.2549                 6.1267
 Frc consts  --      2.9830                 2.9857                 2.9248
 IR Inten    --      3.4419                 3.4415                 3.7689

                     34                     35                     36
                      A                      A                      A
 Frequencies --    924.2076               925.9287               925.9412
 Red. masses --      4.7036                 4.7154                 4.7171
 Frc consts  --      2.3671                 2.3819                 2.3828
 IR Inten    --     14.9503                 3.5926                 3.5887

                     37                     38                     39
                      A                      A                      A
 Frequencies --   1036.0467              1036.1489              1038.0873
 Red. masses --      1.4141                 1.4144                 1.3867
 Frc consts  --      0.8943                 0.8947                 0.8804
 IR Inten    --     13.9716                13.9213                52.0419

                     40                     41                     42
                      A                      A                      A
 Frequencies --   1104.0436              1104.0778              1106.2630
 Red. masses --      2.2051                 2.2050                 2.1837
 Frc consts  --      1.5837                 1.5837                 1.5746
 IR Inten    --      1.1656                 1.1595                 1.5242

                     43                     44                     45
                      A                      A                      A
 Frequencies --   1140.7341              1140.7792              1147.5741
 Red. masses --      5.6072                 5.6081                 4.7293
 Frc consts  --      4.2990                 4.3000                 3.6695
 IR Inten    --      2.4498                 2.4435                24.8640

                     46                     47                     48
                      A                      A                      A
 Frequencies --   1197.1666              1197.1871              1200.8581
 Red. masses --      2.2380                 2.2378                 2.4371
 Frc consts  --      1.8899                 1.8897                 2.0706
 IR Inten    --      9.3436                 9.3237                 1.1794

                     49                     50                     51
                      A                      A                      A
 Frequencies --   1249.5537              1249.6811              1250.3013
 Red. masses --      1.6647                 1.6637                 1.7061
 Frc consts  --      1.5314                 1.5308                 1.5714
 IR Inten    --     19.1834                19.1841                 4.4478

                     52                     53                     54
                      A                      A                      A
 Frequencies --   1417.8834              1417.9287              1419.6670
 Red. masses --      2.5691                 2.5690                 2.5352
 Frc consts  --      3.0431                 3.0431                 3.0105
 IR Inten    --      1.0916                 1.0954                 3.8845

                     55                     56                     57
                      A                      A                      A
 Frequencies --   1490.3179              1496.6594              1496.6693
 Red. masses --      5.5381                 5.4222                 5.4226
 Frc consts  --      7.2471                 7.1560                 7.1567
 IR Inten    --     15.7772                11.2074                11.2250

                     58                     59                     60
                      A                      A                      A
 Frequencies --   1605.0932              1607.3521              1607.3971
 Red. masses --      4.8339                 4.8697                 4.8684
 Frc consts  --      7.3375                 7.4126                 7.4111
 IR Inten    --      3.4958                 1.6344                 1.6300

                     61                     62                     63
                      A                      A                      A
 Frequencies --   3264.4729              3264.5681              3264.7153
 Red. masses --      1.0904                 1.0903                 1.0904
 Frc consts  --      6.8462                 6.8465                 6.8472
 IR Inten    --      5.0701                 5.2048                 1.8011

                     64                     65                     66
                      A                      A                      A
 Frequencies --   3280.1221              3280.2282              3280.2857
 Red. masses --      1.0971                 1.0972                 1.0972
 Frc consts  --      6.9549                 6.9555                 6.9558
 IR Inten    --      0.8513                 0.7153                 0.5622

                     67                     68                     69
                      A                      A                      A
 Frequencies --   3299.0500              3299.1090              3299.1395
 Red. masses --      1.1046                 1.1046                 1.1046
 Frc consts  --      7.0832                 7.0833                 7.0836
 IR Inten    --      2.8429                 3.3371                 0.5008

 - Thermochemistry -
 -------------------
 Temperature   298.150 Kelvin.  Pressure   1.00000 Atm.
 Atom     1 has atomic number 15 and mass  30.97376

 Molecular mass:   232.02893 amu.
 Principal axes and moments of inertia in atomic units:
                           1         2         3
     Eigenvalues --  3613.333643613.682956126.26274
           X            1.00000  -0.00178   0.00015
           Y            0.00178   1.00000   0.00007
           Z           -0.00015  -0.00007   1.00000
 This molecule is an asymmetric top.
 Rotational symmetry number  1.
 Warning -- assumption of classical behavior for rotation
           may cause significant error
 Rotational temperatures (Kelvin)      0.02397     0.02397     0.01414
 Rotational constants (GHZ):           0.49947     0.49942     0.29459
 Zero-point vibrational energy     480218.4 (Joules/Mol)
                                  114.77496 (Kcal/Mol)
 Warning -- explicit consideration of  18 degrees of freedom as
           vibrations may cause significant error
 Vibrational temperatures:     53.27    54.25    79.33    84.49    84.54
          (Kelvin)            111.36   290.68   319.74   320.00   402.73
                              423.87   423.97   690.62   712.80   712.86
                              879.73   879.83   880.67   947.98   948.13
                              955.79  1087.17  1087.70  1087.84  1189.72
                             1189.99  1193.71  1264.62  1264.88  1269.77
                             1295.02  1295.03  1295.10  1329.73  1332.20
                             1332.22  1490.64  1490.79  1493.58  1588.47
                             1588.52  1591.67  1641.26  1641.33  1651.10
                             1722.46  1722.49  1727.77  1797.83  1798.01
                             1798.90  2040.02  2040.08  2042.58  2144.24
                             2153.36  2153.37  2309.37  2312.62  2312.69
                             4696.85  4696.99  4697.20  4719.36  4719.52
                             4719.60  4746.60  4746.68  4746.73

 Zero-point correction=                           0.182906 (Hartree/Particle)
 Thermal correction to Energy=                    0.196493
 Thermal correction to Enthalpy=                  0.197437
 Thermal correction to Gibbs Free Energy=         0.139645
 Sum of electronic and zero-point Energies=          -1029.441971
 Sum of electronic and thermal Energies=             -1029.428383
 Sum of electronic and thermal Enthalpies=           -1029.427439
 Sum of electronic and thermal Free Energies=        -1029.485232

                     E (Thermal)             CV                S
                      KCal/Mol        Cal/Mol-Kelvin    Cal/Mol-Kelvin
 Total                  123.301             50.777            121.635
 Electronic               0.000              0.000              0.000
 Translational            0.889              2.981             42.227
 Rotational               0.889              2.981             32.747
 Vibrational            121.524             44.815             46.661
 Vibration     1          0.594              1.982              5.412
 Vibration     2          0.594              1.982              5.376
 Vibration     3          0.596              1.976              4.624
 Vibration     4          0.596              1.974              4.500
 Vibration     5          0.596              1.974              4.498
 Vibration     6          0.599              1.964              3.956
 Vibration     7          0.639              1.837              2.115
 Vibration     8          0.648              1.807              1.941
 Vibration     9          0.648              1.807              1.939
 Vibration    10          0.680              1.711              1.534
 Vibration    11          0.689              1.684              1.447
 Vibration    12          0.689              1.684              1.447
 Vibration    13          0.836              1.294              0.710
 Vibration    14          0.851              1.260              0.670
 Vibration    15          0.851              1.260              0.670
 Vibration    16          0.971              1.008              0.430
 Vibration    17          0.971              1.007              0.430
 Vibration    18          0.971              1.006              0.429

 Optimization completed.
    -- Stationary point found.
 Normal termination of Gaussian 16 at Fri Mar  8 19:07:40 2019.
 Gaussian 16:  ES64L-G16RevA.03 25-Dec-2016

 ----------------------------------------------------------------------
 # TD(NStates=10, Root=1) B3LYP/6-31G* volume pop=NPA density=current G
 eom=AllCheck Guess=Read
 ----------------------------------------------------------------------

 Structure from the checkpoint file:  "direct_arylation_ligand_53_conf123.chk"
 -------------------
 Title Card Required
 -------------------
 Charge =  0 Multiplicity = 1

                         Standard orientation:
 ---------------------------------------------------------------------
 Center     Atomic      Atomic             Coordinates (Angstroms)
 Number     Number       Type             X           Y           Z
 ---------------------------------------------------------------------
      1         15           0       -0.000190   -0.000112   -1.071034
      2          6           0        0.175345    1.604061   -0.214390
      3          8           0        0.972141    2.526336   -0.854846
      4          6           0        0.945119    3.665932   -0.115326
      5          6           0        0.143860    3.512287    0.975750
      6          6           0       -0.357735    2.173715    0.911562
      7          6           0        1.301423   -0.953996   -0.214340
      8          8           0        1.702183   -2.104969   -0.854903
      9          6           0        2.702709   -2.651132   -0.115347
     10          6           0        2.969902   -1.880460    0.975868
     11          6           0        2.061114   -0.777070    0.911726
     12          6           0       -1.477001   -0.650193   -0.214024
     13          8           0       -2.674309   -0.421090   -0.854044
     14          6           0       -3.647497   -1.014446   -0.114360
     15          6           0       -3.113475   -1.631829    0.976386
     16          6           0       -1.703450   -1.396962    0.911812
     17          1           0        1.538273    4.484359   -0.495181
     18          1           0       -0.066581    4.257319    1.730632
     19          1           0       -1.030741    1.689885    1.605133
     20          1           0        3.115265   -3.573836   -0.495292
     21          1           0        3.720320   -2.070586    1.730805
     22          1           0        1.978253    0.047578    1.605382
     23          1           0       -4.652969   -0.909852   -0.493874
     24          1           0       -3.653253   -2.186760    1.731300
     25          1           0       -0.947719   -1.738085    1.605045
 ---------------------------------------------------------------------

 SCF Done:  E(RB3LYP) =  -1029.62487653     A.U. after    2 cycles

 Excitation energies and oscillator strengths:

 Excited State   1:      Singlet-A      4.7329 eV  261.96 nm  f=0.1417  <S**2>=0.000
      60 -> 61         0.69323
 This state for optimization and/or second-order correction.
 Total Energy, E(TD-HF/TD-DFT) =  -1029.45094524
 Copying the excited state density for this state as the 1-particle RhoCI density.

 Excited State   2:      Singlet-A      4.7333 eV  261.94 nm  f=0.1418  <S**2>=0.000
      60 -> 62         0.69323

 Excited State   3:      Singlet-A      5.3047 eV  233.73 nm  f=0.0000  <S**2>=0.000
      58 -> 61        -0.24465
      58 -> 62        -0.43154
      59 -> 61         0.43281
      59 -> 62        -0.24460

 Excited State   4:      Singlet-A      5.3999 eV  229.60 nm  f=0.0002  <S**2>=0.000
      58 -> 61         0.24903
      58 -> 62        -0.12742
      59 -> 61         0.12833
      59 -> 62         0.24964
      60 -> 63         0.58162

 Excited State   5:      Singlet-A      5.4659 eV  226.83 nm  f=0.1683  <S**2>=0.000
      58 -> 61        -0.22321
      58 -> 62         0.43367
      59 -> 61         0.43244
      59 -> 62         0.22339

 Excited State   6:      Singlet-A      5.4660 eV  226.83 nm  f=0.1684  <S**2>=0.000
      58 -> 61         0.43325
      58 -> 62         0.22351
      59 -> 61         0.22310
      59 -> 62        -0.43285

 Excited State   7:      Singlet-A      6.0315 eV  205.56 nm  f=0.0118  <S**2>=0.000
      58 -> 61        -0.34139
      58 -> 62         0.20307
      59 -> 61        -0.20285
      59 -> 62        -0.34143
      60 -> 63         0.39002

 Excited State   8:      Singlet-A      6.1712 eV  200.91 nm  f=0.0560  <S**2>=0.000
      54 -> 61        -0.12502
      57 -> 61        -0.46730
      59 -> 63         0.48004

 Excited State   9:      Singlet-A      6.1715 eV  200.90 nm  f=0.0559  <S**2>=0.000
      54 -> 62         0.12496
      57 -> 62         0.46717
      58 -> 63         0.48006

 Excited State  10:      Singlet-A      6.2520 eV  198.31 nm  f=0.0682  <S**2>=0.000
      57 -> 61        -0.31661
      58 -> 63        -0.20077
      59 -> 63        -0.36042
      60 -> 64         0.42654

 The electronic state is 1-A.
 Alpha  occ. eigenvalues --  -77.10443 -19.21552 -19.21552 -19.21551 -10.23919
 Alpha  occ. eigenvalues --  -10.23918 -10.23918 -10.23693 -10.23693 -10.23693
 Alpha  occ. eigenvalues --  -10.19076 -10.19076 -10.19075 -10.18942 -10.18942
 Alpha  occ. eigenvalues --  -10.18942  -6.57106  -4.73366  -4.73366  -4.72863
 Alpha  occ. eigenvalues --   -1.10749  -1.10667  -1.10667  -0.80185  -0.79752
 Alpha  occ. eigenvalues --   -0.79751  -0.77542  -0.73926  -0.73925  -0.64938
 Alpha  occ. eigenvalues --   -0.60003  -0.59870  -0.59870  -0.55795  -0.55795
 Alpha  occ. eigenvalues --   -0.54788  -0.53286  -0.53286  -0.48933  -0.45120
 Alpha  occ. eigenvalues --   -0.45120  -0.44656  -0.42744  -0.42744  -0.42348
 Alpha  occ. eigenvalues --   -0.40363  -0.40312  -0.40312  -0.38831  -0.38831
 Alpha  occ. eigenvalues --   -0.37511  -0.36230  -0.36230  -0.28134  -0.27886
 Alpha  occ. eigenvalues --   -0.27886  -0.27314  -0.23486  -0.23485  -0.20896
 Alpha virt. eigenvalues --   -0.01045  -0.01044   0.01544   0.05283   0.05284
 Alpha virt. eigenvalues --    0.07047   0.07977   0.07979   0.11850   0.11905
 Alpha virt. eigenvalues --    0.12866   0.12866   0.15040   0.15041   0.15578

 Mulliken charges:
               1
     1  P    0.397524
     2  C    0.120841
     3  O   -0.405065
     4  C    0.111824
     5  C   -0.173858
     6  C   -0.165840
     7  C    0.054082
     8  O   -0.436656
     9  C    0.057381
    10  C   -0.175926
    11  C   -0.197029
    12  C    0.092896
    13  O   -0.413996
    14  C    0.095200
    15  C   -0.175458
    16  C   -0.165291
    17  H    0.177776
    18  H    0.159164
    19  H    0.168351
    20  H    0.136903
    21  H    0.125437
    22  H    0.120376
    23  H    0.166525
    24  H    0.152543
    25  H    0.172297
 Sum of Mulliken charges =  -0.00000

 Dipole moment (field-independent basis, Debye):
    X=             -2.5403    Y=              2.7826    Z=              2.6724  Tot=              4.6192
 Quadrupole moment (field-independent basis, Debye-Ang):
   XX=            -89.2418   YY=            -83.5400   ZZ=            -96.8550
   XY=              5.4756   XZ=             -0.9462   YZ=              0.3212

 Summary of Natural Population Analysis:

                                       Natural Population
                Natural  -----------------------------------------------
    Atom  No    Charge         Core      Valence    Rydberg      Total
 -----------------------------------------------------------------------
      P    1    1.01106      9.99757     3.92510    0.06627    13.98894
      C    2   -0.02003      1.99889     3.98549    0.03565     6.02003
      O    3   -0.45470      1.99974     6.43603    0.01893     8.45470
      C    4    0.15445      1.99905     3.82413    0.02237     5.84555
      C    5   -0.31776      1.99910     4.30576    0.01290     6.31776
      C    6   -0.29078      1.99892     4.27668    0.01517     6.29078
      C    7   -0.14989      1.99884     4.11314    0.03790     6.14989
      O    8   -0.48336      1.99974     6.46989    0.01372     8.48336
      C    9    0.06598      1.99905     3.90935    0.02562     5.93402
      C   10   -0.32914      1.99908     4.31689    0.01317     6.32914
      C   11   -0.35548      1.99890     4.33873    0.01785     6.35548
      C   12   -0.06759      1.99891     4.02947    0.03922     6.06759
      O   13   -0.46426      1.99975     6.45077    0.01374     8.46426
      C   14    0.12970      1.99905     3.84640    0.02485     5.87030
      C   15   -0.32217      1.99909     4.30995    0.01313     6.32217
      C   16   -0.28998      1.99892     4.27557    0.01548     6.28998
      H   17    0.23311      0.00000     0.76644    0.00046     0.76689
      H   18    0.25468      0.00000     0.74481    0.00051     0.74532
      H   19    0.26146      0.00000     0.73786    0.00067     0.73854
      H   20    0.21538      0.00000     0.78408    0.00054     0.78462
      H   21    0.23923      0.00000     0.76030    0.00047     0.76077
      H   22    0.23653      0.00000     0.76261    0.00086     0.76347
      H   23    0.22752      0.00000     0.77189    0.00060     0.77248
      H   24    0.25186      0.00000     0.74764    0.00050     0.74814
      H   25    0.26418      0.00000     0.73491    0.00091     0.73582
 =======================================================================
   * Total *   -0.00000     39.98461    79.62389    0.39149   120.00000

 Normal termination of Gaussian 16 at Fri Mar  8 19:14:46 2019.
