 Gaussian 16, Revision A.03,

 ---------------------------------
 # opt=CalcFc B3LYP/6-31G* scf=xqc
 ---------------------------------

 -------------------
 Title Card Required
 -------------------
 Symbolic Z-matrix:
 Charge =  0 Multiplicity = 1

 SCF Done:  E(RB3LYP) =  -844.523194750     A.U. after   14 cycles
 SCF Done:  E(RB3LYP) =  -844.542289827     A.U. after   14 cycles
 SCF Done:  E(RB3LYP) =  -844.543445812     A.U. after   14 cycles
 SCF Done:  E(RB3LYP) =  -844.551917899     A.U. after   12 cycles
 SCF Done:  E(RB3LYP) =  -844.551561074     A.U. after   13 cycles
 SCF Done:  E(RB3LYP) =  -844.554264591     A.U. after   13 cycles
 SCF Done:  E(RB3LYP) =  -844.555868968     A.U. after   12 cycles
 SCF Done:  E(RB3LYP) =  -844.556182224     A.U. after   14 cycles
 SCF Done:  E(RB3LYP) =  -844.558311466     A.U. after   12 cycles
 SCF Done:  E(RB3LYP) =  -844.560977973     A.U. after   14 cycles
 SCF Done:  E(RB3LYP) =  -844.564315815     A.U. after   12 cycles
 SCF Done:  E(RB3LYP) =  -844.564298182     A.U. after   11 cycles
 SCF Done:  E(RB3LYP) =  -844.564324813     A.U. after   12 cycles
 SCF Done:  E(RB3LYP) =  -844.564315788     A.U. after   11 cycles
 SCF Done:  E(RB3LYP) =  -844.564329238     A.U. after   12 cycles
 SCF Done:  E(RB3LYP) =  -844.564329512     A.U. after    7 cycles
 SCF Done:  E(RB3LYP) =  -844.564329554     A.U. after    7 cycles
 SCF Done:  E(RB3LYP) =  -844.564329559     A.U. after    7 cycles
 Optimization completed.
    -- Stationary point found.
 Normal termination of Gaussian 16 at Wed Feb 27 04:16:33 2019.

 ----------------------------------------------------------------------
 # freq B3LYP/6-31G* volume NMR pop=NPA density=current Geom=AllCheck G
 uess=Read
 ----------------------------------------------------------------------

 Structure from the checkpoint file:  "direct_arylation_ligand_62_conf302.chk"
 -------------------
 Title Card Required
 -------------------
 Charge =  0 Multiplicity = 1

 SCF Done:  E(RB3LYP) =  -844.564329559     A.U. after    1 cycles

      1  P    Isotropic =   385.0726   Anisotropy =    60.2396

      2  C    Isotropic =    52.7904   Anisotropy =   183.2145

      3  C    Isotropic =    62.6043   Anisotropy =   166.8335

      4  C    Isotropic =    68.8097   Anisotropy =   164.5515

      5  C    Isotropic =    69.4141   Anisotropy =   165.2704

      6  C    Isotropic =    68.8482   Anisotropy =   164.0561

      7  C    Isotropic =    67.9819   Anisotropy =   167.4381

      8  C    Isotropic =    51.8706   Anisotropy =   182.8450

      9  C    Isotropic =    62.8757   Anisotropy =   171.1473

     10  C    Isotropic =    68.2791   Anisotropy =   164.2388

     11  C    Isotropic =    67.5059   Anisotropy =   168.3003

     12  C    Isotropic =    69.1693   Anisotropy =   163.2074

     13  C    Isotropic =    60.5066   Anisotropy =   159.8411

     14  C    Isotropic =   173.0296   Anisotropy =    19.3267

     15  H    Isotropic =    30.7454   Anisotropy =    10.5226

     16  H    Isotropic =    31.0015   Anisotropy =     8.5258

     17  H    Isotropic =    30.7060   Anisotropy =     7.2639

     18  H    Isotropic =    24.9779   Anisotropy =    10.0494

     19  H    Isotropic =    25.0470   Anisotropy =     4.9715

     20  H    Isotropic =    25.0795   Anisotropy =     3.7303

     21  H    Isotropic =    24.9265   Anisotropy =     4.8985

     22  H    Isotropic =    24.8796   Anisotropy =     9.9828

     23  H    Isotropic =    25.1718   Anisotropy =    11.3364

     24  H    Isotropic =    25.0795   Anisotropy =     5.9091

     25  H    Isotropic =    25.0153   Anisotropy =     3.8947

     26  H    Isotropic =    24.9616   Anisotropy =     4.4623

     27  H    Isotropic =    24.4817   Anisotropy =     7.9899

  Exact polarizability: 201.369  -1.874 138.247  20.880  -1.680 117.933
 Approx polarizability: 285.402  -3.922 225.346  48.283  -5.096 209.288

                      1                      2                      3
                      A                      A                      A
 Frequencies --     19.6490                29.9338                55.9369
 Red. masses --      3.7895                 3.8332                 5.0670
 Frc consts  --      0.0009                 0.0020                 0.0093
 IR Inten    --      0.2502                 0.0667                 0.0708

                      4                      5                      6
                      A                      A                      A
 Frequencies --    117.5756               178.5570               186.9040
 Red. masses --      3.3695                 3.4613                 3.6211
 Frc consts  --      0.0274                 0.0650                 0.0745
 IR Inten    --      0.5137                 0.7294                 0.2038

                      7                      8                      9
                      A                      A                      A
 Frequencies --    233.3193               246.3853               267.1236
 Red. masses --      1.8301                 1.6580                 3.6683
 Frc consts  --      0.0587                 0.0593                 0.1542
 IR Inten    --      0.4885                 0.3057                 0.1576

                     10                     11                     12
                      A                      A                      A
 Frequencies --    323.1944               396.5568               408.1560
 Red. masses --      4.4974                 5.9075                 3.1697
 Frc consts  --      0.2768                 0.5473                 0.3111
 IR Inten    --      2.2781                 2.7513                 2.8925

                     13                     14                     15
                      A                      A                      A
 Frequencies --    412.6955               419.7866               488.2726
 Red. masses --      3.0645                 6.9750                 3.5146
 Frc consts  --      0.3075                 0.7242                 0.4937
 IR Inten    --      0.6190                 8.2520                10.4579

                     16                     17                     18
                      A                      A                      A
 Frequencies --    515.9347               632.6630               633.0544
 Red. masses --      3.9375                 6.4093                 6.4011
 Frc consts  --      0.6175                 1.5115                 1.5114
 IR Inten    --     12.4253                 0.1766                 0.0924

                     19                     20                     21
                      A                      A                      A
 Frequencies --    674.2378               702.6894               705.0862
 Red. masses --      5.3394                 6.1940                 4.9212
 Frc consts  --      1.4301                 1.8020                 1.4415
 IR Inten    --      8.3395                 0.9808                 3.2595

                     22                     23                     24
                      A                      A                      A
 Frequencies --    712.0462               713.7115               757.4338
 Red. masses --      2.2699                 2.0653                 1.5778
 Frc consts  --      0.6781                 0.6198                 0.5333
 IR Inten    --     20.8303                26.9360                35.5704

                     25                     26                     27
                      A                      A                      A
 Frequencies --    763.0334               861.1809               867.3760
 Red. masses --      1.7189                 1.2514                 1.2452
 Frc consts  --      0.5897                 0.5468                 0.5520
 IR Inten    --     13.6471                 0.1857                 0.0193

                     28                     29                     30
                      A                      A                      A
 Frequencies --    910.2584               919.8470               922.6458
 Red. masses --      1.3086                 1.2937                 1.3544
 Frc consts  --      0.6388                 0.6449                 0.6793
 IR Inten    --     24.9469                28.3958                 1.4320

                     31                     32                     33
                      A                      A                      A
 Frequencies --    936.7012               969.7275               977.1864
 Red. masses --      1.3619                 1.3597                 1.3601
 Frc consts  --      0.7040                 0.7534                 0.7652
 IR Inten    --      4.6258                 0.0627                 0.1021

                     34                     35                     36
                      A                      A                      A
 Frequencies --    996.8360              1001.2376              1015.2376
 Red. masses --      1.2506                 1.2591                 6.2349
 Frc consts  --      0.7322                 0.7437                 3.7863
 IR Inten    --      0.1419                 0.0537                 1.2333

                     37                     38                     39
                      A                      A                      A
 Frequencies --   1015.9821              1052.1456              1054.4471
 Red. masses --      6.2493                 3.2219                 3.1933
 Frc consts  --      3.8006                 2.1014                 2.0919
 IR Inten    --      2.5444                 1.0742                 1.1866

                     40                     41                     42
                      A                      A                      A
 Frequencies --   1106.2692              1112.2018              1113.0484
 Red. masses --      1.7291                 1.7333                 2.4343
 Frc consts  --      1.2468                 1.2632                 1.7768
 IR Inten    --      1.6957                 2.4126                13.3239

                     43                     44                     45
                      A                      A                      A
 Frequencies --   1117.9829              1193.4825              1194.2042
 Red. masses --      2.5284                 1.1026                 1.0987
 Frc consts  --      1.8619                 0.9254                 0.9232
 IR Inten    --      2.1470                 0.0064                 0.0647

                     46                     47                     48
                      A                      A                      A
 Frequencies --   1216.9040              1223.4340              1323.7518
 Red. masses --      1.1444                 1.1502                 3.2574
 Frc consts  --      0.9985                 1.0143                 3.3631
 IR Inten    --      3.9183                 0.6686                 2.3617

                     49                     50                     51
                      A                      A                      A
 Frequencies --   1331.6638              1351.3858              1363.1548
 Red. masses --      3.3532                 1.2959                 1.7088
 Frc consts  --      3.5035                 1.3943                 1.8708
 IR Inten    --      2.8865                 2.1915                 1.4896

                     52                     53                     54
                      A                      A                      A
 Frequencies --   1371.5831              1479.5013              1482.4644
 Red. masses --      1.5139                 2.0991                 2.0753
 Frc consts  --      1.6780                 2.7071                 2.6872
 IR Inten    --      2.1498                12.2434                 5.4945

                     55                     56                     57
                      A                      A                      A
 Frequencies --   1501.1109              1502.2032              1530.8720
 Red. masses --      1.0620                 1.0627                 2.0236
 Frc consts  --      1.4099                 1.4129                 2.7941
 IR Inten    --      4.2160                16.6942                 4.9322

                     58                     59                     60
                      A                      A                      A
 Frequencies --   1534.8438              1630.0413              1632.4679
 Red. masses --      1.9732                 5.0204                 5.1791
 Frc consts  --      2.7387                 7.8593                 8.1320
 IR Inten    --      6.4912                 1.1119                 0.2815

                     61                     62                     63
                      A                      A                      A
 Frequencies --   1646.7288              1649.4817              3049.4835
 Red. masses --      5.3166                 5.2603                 1.0329
 Frc consts  --      8.4943                 8.4325                 5.6592
 IR Inten    --      1.7929                 3.4186                12.5554

                     64                     65                     66
                      A                      A                      A
 Frequencies --   3131.3060              3138.0870              3174.8656
 Red. masses --      1.1045                 1.1020                 1.0855
 Frc consts  --      6.3805                 6.3940                 6.4465
 IR Inten    --     12.2624                 8.6838                 3.7887

                     67                     68                     69
                      A                      A                      A
 Frequencies --   3176.3203              3181.6166              3182.0160
 Red. masses --      1.0847                 1.0871                 1.0872
 Frc consts  --      6.4480                 6.4835                 6.4859
 IR Inten    --      1.4537                 0.5342                 0.2222

                     70                     71                     72
                      A                      A                      A
 Frequencies --   3190.9746              3192.1156              3198.2169
 Red. masses --      1.0907                 1.0916                 1.0939
 Frc consts  --      6.5432                 6.5537                 6.5927
 IR Inten    --      9.6894                21.0503                33.3483

                     73                     74                     75
                      A                      A                      A
 Frequencies --   3203.7160              3207.1114              3210.6149
 Red. masses --      1.0936                 1.0979                 1.0954
 Frc consts  --      6.6135                 6.6536                 6.6527
 IR Inten    --     34.2104                31.3238                18.4683

 - Thermochemistry -
 -------------------
 Temperature   298.150 Kelvin.  Pressure   1.00000 Atm.
 Atom     1 has atomic number 15 and mass  30.97376

 Molecular mass:   200.07549 amu.
 Principal axes and moments of inertia in atomic units:
                           1         2         3
     Eigenvalues --  1569.877374673.716155299.42208
           X            0.99999  -0.00072   0.00536
           Y            0.00047   0.99898   0.04505
           Z           -0.00538  -0.04505   0.99897
 This molecule is an asymmetric top.
 Rotational symmetry number  1.
 Warning -- assumption of classical behavior for rotation
           may cause significant error
 Rotational temperatures (Kelvin)      0.05517     0.01853     0.01634
 Rotational constants (GHZ):           1.14961     0.38615     0.34055
 Zero-point vibrational energy     579829.8 (Joules/Mol)
                                  138.58265 (Kcal/Mol)
 Warning -- explicit consideration of  16 degrees of freedom as
           vibrations may cause significant error
 Vibrational temperatures:     28.27    43.07    80.48   169.17   256.90
          (Kelvin)            268.91   335.69   354.49   384.33   465.00
                              570.56   587.25   593.78   603.98   702.52
                              742.31   910.26   910.82   970.08  1011.01
                             1014.46  1024.48  1026.87  1089.78  1097.83
                             1239.05  1247.96  1309.66  1323.45  1327.48
                             1347.70  1395.22  1405.95  1434.22  1440.56
                             1460.70  1461.77  1513.80  1517.11  1591.67
                             1600.21  1601.43  1608.53  1717.16  1718.19
                             1750.85  1760.25  1904.58  1915.97  1944.34
                             1961.28  1973.40  2128.67  2132.94  2159.76
                             2161.34  2202.58  2208.30  2345.27  2348.76
                             2369.28  2373.24  4387.53  4505.25  4515.01
                             4567.92  4570.02  4577.64  4578.21  4591.10
                             4592.74  4601.52  4609.43  4614.32  4619.36

 Zero-point correction=                           0.220846 (Hartree/Particle)
 Thermal correction to Energy=                    0.233542
 Thermal correction to Enthalpy=                  0.234486
 Thermal correction to Gibbs Free Energy=         0.179769
 Sum of electronic and zero-point Energies=           -844.343484
 Sum of electronic and thermal Energies=              -844.330788
 Sum of electronic and thermal Enthalpies=            -844.329844
 Sum of electronic and thermal Free Energies=         -844.384561

                     E (Thermal)             CV                S
                      KCal/Mol        Cal/Mol-Kelvin    Cal/Mol-Kelvin
 Total                  146.550             49.332            115.162
 Electronic               0.000              0.000              0.000
 Translational            0.889              2.981             41.785
 Rotational               0.889              2.981             32.031
 Vibrational            144.772             43.370             41.346
 Vibration     1          0.593              1.986              6.669
 Vibration     2          0.594              1.984              5.834
 Vibration     3          0.596              1.975              4.596
 Vibration     4          0.608              1.935              3.140
 Vibration     5          0.629              1.869              2.343
 Vibration     6          0.632              1.858              2.258
 Vibration     7          0.654              1.790              1.853
 Vibration     8          0.661              1.769              1.756
 Vibration     9          0.672              1.733              1.615
 Vibration    10          0.708              1.629              1.294
 Vibration    11          0.763              1.478              0.975
 Vibration    12          0.773              1.453              0.933
 Vibration    13          0.776              1.443              0.917
 Vibration    14          0.782              1.427              0.893
 Vibration    15          0.844              1.276              0.688
 Vibration    16          0.871              1.215              0.619

 Optimization completed.
    -- Stationary point found.
 Normal termination of Gaussian 16 at Wed Feb 27 04:21:23 2019.
 Gaussian 16:  ES64L-G16RevA.03 25-Dec-2016

 ----------------------------------------------------------------------
 # TD(NStates=10, Root=1) B3LYP/6-31G* volume pop=NPA density=current G
 eom=AllCheck Guess=Read
 ----------------------------------------------------------------------

 Structure from the checkpoint file:  "direct_arylation_ligand_62_conf303.chk"
 -------------------
 Title Card Required
 -------------------
 Charge =  0 Multiplicity = 1

                         Standard orientation:
 ---------------------------------------------------------------------
 Center     Atomic      Atomic             Coordinates (Angstroms)
 Number     Number       Type             X           Y           Z
 ---------------------------------------------------------------------
      1         15           0       -0.036694    1.368992   -0.701700
      2          6           0        1.434490    0.319083   -0.299627
      3          6           0        1.640657   -0.841804   -1.067220
      4          6           0        2.760617   -1.645573   -0.867771
      5          6           0        3.712825   -1.296721    0.094061
      6          6           0        3.530139   -0.141878    0.853031
      7          6           0        2.399968    0.657938    0.659949
      8          6           0       -1.438370    0.263144   -0.190238
      9          6           0       -1.386283   -0.598122    0.917728
     10          6           0       -2.489251   -1.377415    1.265320
     11          6           0       -3.664117   -1.307148    0.511595
     12          6           0       -3.728600   -0.458013   -0.593152
     13          6           0       -2.620488    0.317356   -0.943238
     14          6           0       -0.056690    2.585714    0.714268
     15          1           0        0.766275    3.300011    0.606250
     16          1           0       -0.994789    3.146565    0.656980
     17          1           0        0.004177    2.109088    1.698657
     18          1           0        0.912140   -1.120269   -1.825497
     19          1           0        2.894421   -2.542432   -1.467274
     20          1           0        4.590720   -1.918987    0.246049
     21          1           0        4.265492    0.140123    1.602524
     22          1           0        2.279888    1.549683    1.267549
     23          1           0       -0.474036   -0.666431    1.504624
     24          1           0       -2.432919   -2.041345    2.124405
     25          1           0       -4.522620   -1.916103    0.782862
     26          1           0       -4.637158   -0.403127   -1.187375
     27          1           0       -2.670566    0.968994   -1.812497
 ---------------------------------------------------------------------

 SCF Done:  E(RB3LYP) =  -844.564329559     A.U. after    1 cycles

 Excitation energies and oscillator strengths:

 Excited State   1:      Singlet-A      4.6038 eV  269.31 nm  f=0.0435  <S**2>=0.000
      53 -> 54         0.68722
      53 -> 55        -0.11746
 This state for optimization and/or second-order correction.
 Total Energy, E(TD-HF/TD-DFT) =  -844.395141844
 Copying the excited state density for this state as the 1-particle RhoCI density.

 Excited State   2:      Singlet-A      4.8957 eV  253.25 nm  f=0.0129  <S**2>=0.000
      51 -> 55         0.10656
      52 -> 54         0.13698
      52 -> 55         0.11078
      53 -> 55        -0.22382
      53 -> 56         0.62622

 Excited State   3:      Singlet-A      5.0080 eV  247.57 nm  f=0.1456  <S**2>=0.000
      53 -> 54         0.10811
      53 -> 55         0.61718
      53 -> 56         0.19985
      53 -> 57        -0.18812

 Excited State   4:      Singlet-A      5.1447 eV  241.00 nm  f=0.0379  <S**2>=0.000
      50 -> 55         0.12101
      51 -> 54        -0.20890
      52 -> 55        -0.13444
      52 -> 56        -0.10051
      53 -> 55         0.16866
      53 -> 56         0.12436
      53 -> 57         0.59545

 Excited State   5:      Singlet-A      5.4215 eV  228.69 nm  f=0.0047  <S**2>=0.000
      50 -> 55        -0.19232
      50 -> 56         0.26451
      50 -> 57         0.20855
      51 -> 54         0.36801
      51 -> 55        -0.15877
      52 -> 54        -0.31138
      52 -> 56         0.15542
      52 -> 57         0.12163
      53 -> 56         0.12026
      53 -> 57         0.16399

 Excited State   6:      Singlet-A      5.7387 eV  216.05 nm  f=0.0118  <S**2>=0.000
      49 -> 56        -0.20604
      49 -> 57         0.15926
      50 -> 54        -0.15945
      51 -> 54         0.32347
      52 -> 54         0.48494
      53 -> 57         0.18611

 Excited State   7:      Singlet-A      5.8270 eV  212.78 nm  f=0.0124  <S**2>=0.000
      49 -> 56        -0.24818
      49 -> 57         0.17985
      51 -> 54        -0.14252
      51 -> 55         0.13211
      51 -> 56         0.11201
      52 -> 54        -0.18676
      52 -> 55         0.51480
      53 -> 57         0.14800

 Excited State   8:      Singlet-A      5.8571 eV  211.68 nm  f=0.0221  <S**2>=0.000
      49 -> 54         0.18058
      49 -> 56         0.10114
      50 -> 54         0.46226
      50 -> 55         0.34301
      50 -> 56         0.16422
      51 -> 56        -0.10980
      52 -> 54         0.14562
      52 -> 56         0.19494

 Excited State   9:      Singlet-A      5.9280 eV  209.15 nm  f=0.0005  <S**2>=0.000
      50 -> 54         0.16587
      51 -> 54         0.20669
      51 -> 55         0.57146
      51 -> 56         0.12189
      52 -> 55        -0.21540
      52 -> 56        -0.13300

 Excited State  10:      Singlet-A      5.9925 eV  206.90 nm  f=0.0264  <S**2>=0.000
      49 -> 54        -0.31211
      50 -> 54        -0.20312
      50 -> 55         0.45944
      50 -> 56         0.17109
      51 -> 54         0.13426
      51 -> 56         0.16755
      52 -> 55         0.12339
      52 -> 56        -0.14977

 The electronic state is 1-A.
 Alpha  occ. eigenvalues --  -77.07968 -10.19393 -10.19299 -10.19192 -10.19093
 Alpha  occ. eigenvalues --  -10.19069 -10.19059 -10.19011 -10.19001 -10.18964
 Alpha  occ. eigenvalues --  -10.18942 -10.18899 -10.18857 -10.18421  -6.54710
 Alpha  occ. eigenvalues --   -4.70976  -4.70963  -4.70459  -0.85270  -0.84774
 Alpha  occ. eigenvalues --   -0.76468  -0.74321  -0.74256  -0.73796  -0.70921
 Alpha  occ. eigenvalues --   -0.62338  -0.60252  -0.59977  -0.59281  -0.55060
 Alpha  occ. eigenvalues --   -0.51448  -0.49651  -0.45409  -0.44649  -0.44597
 Alpha  occ. eigenvalues --   -0.44242  -0.42401  -0.42079  -0.41685  -0.41109
 Alpha  occ. eigenvalues --   -0.38955  -0.37871  -0.36382  -0.36120  -0.34369
 Alpha  occ. eigenvalues --   -0.34239  -0.32560  -0.31576  -0.26446  -0.25180
 Alpha  occ. eigenvalues --   -0.25018  -0.24725  -0.21380
 Alpha virt. eigenvalues --   -0.01530  -0.00807  -0.00420   0.00542   0.06284
 Alpha virt. eigenvalues --    0.07174   0.09234   0.10908   0.12717   0.13595
 Alpha virt. eigenvalues --    0.14142   0.14681   0.15149   0.15528   0.16193

 Mulliken charges:
               1
     1  P    0.507435
     2  C   -0.067122
     3  C   -0.143120
     4  C   -0.115323
     5  C   -0.121516
     6  C   -0.112996
     7  C   -0.159619
     8  C   -0.150292
     9  C   -0.192296
    10  C   -0.109917
    11  C   -0.192775
    12  C   -0.134746
    13  C   -0.175818
    14  C   -0.640351
    15  H    0.161069
    16  H    0.203719
    17  H    0.215661
    18  H    0.168938
    19  H    0.152395
    20  H    0.153103
    21  H    0.149070
    22  H    0.148040
    23  H    0.087355
    24  H    0.100171
    25  H    0.085497
    26  H    0.093471
    27  H    0.089967
 Sum of Mulliken charges =  -0.00000

 Dipole moment (field-independent basis, Debye):
    X=              7.0066    Y=              2.3419    Z=             -0.4360  Tot=              7.4004
 Quadrupole moment (field-independent basis, Debye-Ang):
   XX=            -91.9196   YY=            -83.0701   ZZ=            -86.8622
   XY=             -6.4529   XZ=              4.1088   YZ=              1.5628

 Summary of Natural Population Analysis:

                                       Natural Population
                Natural  -----------------------------------------------
    Atom  No    Charge         Core      Valence    Rydberg      Total
 -----------------------------------------------------------------------
      P    1    1.26001      9.99755     3.69254    0.04989    13.73999
      C    2   -0.37072      1.99892     4.34856    0.02324     6.37072
      C    3   -0.18257      1.99902     4.16715    0.01640     6.18257
      C    4   -0.23275      1.99910     4.21948    0.01417     6.23275
      C    5   -0.19007      1.99909     4.17692    0.01406     6.19007
      C    6   -0.22552      1.99910     4.21218    0.01424     6.22552
      C    7   -0.21167      1.99900     4.19731    0.01535     6.21167
      C    8   -0.53821      1.99883     4.51447    0.02492     6.53821
      C    9   -0.30979      1.99898     4.29103    0.01977     6.30979
      C   10   -0.21950      1.99908     4.20596    0.01445     6.21950
      C   11   -0.34751      1.99910     4.33062    0.01779     6.34751
      C   12   -0.26950      1.99910     4.25447    0.01594     6.26950
      C   13   -0.23975      1.99902     4.22467    0.01606     6.23975
      C   14   -1.03466      1.99946     5.02409    0.01111     7.03466
      H   15    0.23977      0.00000     0.75840    0.00183     0.76023
      H   16    0.27449      0.00000     0.72482    0.00069     0.72551
      H   17    0.27674      0.00000     0.72216    0.00109     0.72326
      H   18    0.25530      0.00000     0.74311    0.00159     0.74470
      H   19    0.24841      0.00000     0.75081    0.00078     0.75159
      H   20    0.24448      0.00000     0.75473    0.00079     0.75552
      H   21    0.24608      0.00000     0.75309    0.00083     0.75392
      H   22    0.24186      0.00000     0.75691    0.00123     0.75814
      H   23    0.21299      0.00000     0.78595    0.00106     0.78701
      H   24    0.22424      0.00000     0.77490    0.00086     0.77576
      H   25    0.21568      0.00000     0.78355    0.00078     0.78432
      H   26    0.22042      0.00000     0.77872    0.00086     0.77958
      H   27    0.21174      0.00000     0.78753    0.00073     0.78826
 =======================================================================
   * Total *   -0.00000     35.98536    69.73412    0.28052   106.00000

 Normal termination of Gaussian 16 at Wed Feb 27 04:26:49 2019.
