 Gaussian 16, Revision A.03,

 ---------------------------------
 # opt=CalcFc B3LYP/6-31G* scf=xqc
 ---------------------------------

 -------------------
 Title Card Required
 -------------------
 Symbolic Z-matrix:
 Charge =  0 Multiplicity = 1

 SCF Done:  E(RB3LYP) =  -844.560092153     A.U. after   14 cycles
 SCF Done:  E(RB3LYP) =  -844.564002101     A.U. after   14 cycles
 SCF Done:  E(RB3LYP) =  -844.562155989     A.U. after   14 cycles
 SCF Done:  E(RB3LYP) =  -844.564209912     A.U. after   13 cycles
 SCF Done:  E(RB3LYP) =  -844.564288621     A.U. after   12 cycles
 SCF Done:  E(RB3LYP) =  -844.564312823     A.U. after   12 cycles
 SCF Done:  E(RB3LYP) =  -844.564323471     A.U. after   11 cycles
 SCF Done:  E(RB3LYP) =  -844.564328379     A.U. after   10 cycles
 SCF Done:  E(RB3LYP) =  -844.564329394     A.U. after    9 cycles
 SCF Done:  E(RB3LYP) =  -844.564329552     A.U. after    8 cycles
 SCF Done:  E(RB3LYP) =  -844.564329558     A.U. after    7 cycles
 Optimization completed.
    -- Stationary point found.
 Normal termination of Gaussian 16 at Wed Feb 27 04:02:53 2019.

 ----------------------------------------------------------------------
 # freq B3LYP/6-31G* volume NMR pop=NPA density=current Geom=AllCheck G
 uess=Read
 ----------------------------------------------------------------------

 Structure from the checkpoint file:  "direct_arylation_ligand_62_conf42.chk"
 -------------------
 Title Card Required
 -------------------
 Charge =  0 Multiplicity = 1

 SCF Done:  E(RB3LYP) =  -844.564329558     A.U. after    1 cycles

      1  P    Isotropic =   385.0724   Anisotropy =    60.2394

      2  C    Isotropic =    52.7872   Anisotropy =   183.2143

      3  C    Isotropic =    62.6052   Anisotropy =   166.8347

      4  C    Isotropic =    68.8100   Anisotropy =   164.5511

      5  C    Isotropic =    69.4145   Anisotropy =   165.2696

      6  C    Isotropic =    68.8482   Anisotropy =   164.0559

      7  C    Isotropic =    67.9816   Anisotropy =   167.4369

      8  C    Isotropic =    51.8698   Anisotropy =   182.8457

      9  C    Isotropic =    62.8751   Anisotropy =   171.1476

     10  C    Isotropic =    68.2791   Anisotropy =   164.2389

     11  C    Isotropic =    67.5056   Anisotropy =   168.3007

     12  C    Isotropic =    69.1695   Anisotropy =   163.2074

     13  C    Isotropic =    60.5062   Anisotropy =   159.8420

     14  C    Isotropic =   173.0277   Anisotropy =    19.3267

     15  H    Isotropic =    30.7452   Anisotropy =    10.5226

     16  H    Isotropic =    31.0015   Anisotropy =     8.5257

     17  H    Isotropic =    30.7060   Anisotropy =     7.2634

     18  H    Isotropic =    24.9781   Anisotropy =    10.0499

     19  H    Isotropic =    25.0471   Anisotropy =     4.9717

     20  H    Isotropic =    25.0796   Anisotropy =     3.7302

     21  H    Isotropic =    24.9265   Anisotropy =     4.8984

     22  H    Isotropic =    24.8797   Anisotropy =     9.9830

     23  H    Isotropic =    25.1717   Anisotropy =    11.3363

     24  H    Isotropic =    25.0795   Anisotropy =     5.9090

     25  H    Isotropic =    25.0153   Anisotropy =     3.8947

     26  H    Isotropic =    24.9616   Anisotropy =     4.4622

     27  H    Isotropic =    24.4817   Anisotropy =     7.9897

  Exact polarizability: 201.369  -1.870 138.252  20.882  -1.680 117.927
 Approx polarizability: 285.405  -3.913 225.357  48.286  -5.096 209.277

                      1                      2                      3
                      A                      A                      A
 Frequencies --     19.6599                29.9454                55.9411
 Red. masses --      3.7895                 3.8333                 5.0668
 Frc consts  --      0.0009                 0.0020                 0.0093
 IR Inten    --      0.2501                 0.0667                 0.0708

                      4                      5                      6
                      A                      A                      A
 Frequencies --    117.5794               178.5576               186.9131
 Red. masses --      3.3695                 3.4616                 3.6215
 Frc consts  --      0.0274                 0.0650                 0.0745
 IR Inten    --      0.5137                 0.7295                 0.2038

                      7                      8                      9
                      A                      A                      A
 Frequencies --    233.3347               246.3912               267.1282
 Red. masses --      1.8308                 1.6575                 3.6675
 Frc consts  --      0.0587                 0.0593                 0.1542
 IR Inten    --      0.4885                 0.3055                 0.1576

                     10                     11                     12
                      A                      A                      A
 Frequencies --    323.1964               396.5601               408.1567
 Red. masses --      4.4974                 5.9073                 3.1697
 Frc consts  --      0.2768                 0.5473                 0.3111
 IR Inten    --      2.2783                 2.7505                 2.8923

                     13                     14                     15
                      A                      A                      A
 Frequencies --    412.6966               419.7827               488.2730
 Red. masses --      3.0647                 6.9746                 3.5146
 Frc consts  --      0.3075                 0.7241                 0.4937
 IR Inten    --      0.6198                 8.2517                10.4582

                     16                     17                     18
                      A                      A                      A
 Frequencies --    515.9368               632.6629               633.0546
 Red. masses --      3.9375                 6.4093                 6.4012
 Frc consts  --      0.6175                 1.5115                 1.5114
 IR Inten    --     12.4241                 0.1767                 0.0924

                     19                     20                     21
                      A                      A                      A
 Frequencies --    674.2342               702.6883               705.0828
 Red. masses --      5.3394                 6.1939                 4.9230
 Frc consts  --      1.4301                 1.8020                 1.4420
 IR Inten    --      8.3405                 0.9808                 3.2582

                     22                     23                     24
                      A                      A                      A
 Frequencies --    712.0461               713.7112               757.4336
 Red. masses --      2.2698                 2.0652                 1.5779
 Frc consts  --      0.6780                 0.6198                 0.5333
 IR Inten    --     20.8365                26.9270                35.5741

                     25                     26                     27
                      A                      A                      A
 Frequencies --    763.0333               861.1819               867.3763
 Red. masses --      1.7189                 1.2514                 1.2452
 Frc consts  --      0.5896                 0.5468                 0.5520
 IR Inten    --     13.6448                 0.1856                 0.0193

                     28                     29                     30
                      A                      A                      A
 Frequencies --    910.2596               919.8518               922.6472
 Red. masses --      1.3086                 1.2937                 1.3544
 Frc consts  --      0.6388                 0.6449                 0.6793
 IR Inten    --     24.9538                28.3890                 1.4303

                     31                     32                     33
                      A                      A                      A
 Frequencies --    936.7012               969.7284               977.1865
 Red. masses --      1.3619                 1.3597                 1.3601
 Frc consts  --      0.7040                 0.7534                 0.7652
 IR Inten    --      4.6241                 0.0627                 0.1022

                     34                     35                     36
                      A                      A                      A
 Frequencies --    996.8354              1001.2376              1015.2372
 Red. masses --      1.2506                 1.2591                 6.2349
 Frc consts  --      0.7322                 0.7437                 3.7863
 IR Inten    --      0.1419                 0.0537                 1.2331

                     37                     38                     39
                      A                      A                      A
 Frequencies --   1015.9822              1052.1450              1054.4472
 Red. masses --      6.2493                 3.2220                 3.1933
 Frc consts  --      3.8006                 2.1015                 2.0919
 IR Inten    --      2.5443                 1.0741                 1.1868

                     40                     41                     42
                      A                      A                      A
 Frequencies --   1106.2686              1112.2021              1113.0476
 Red. masses --      1.7291                 1.7333                 2.4344
 Frc consts  --      1.2468                 1.2633                 1.7769
 IR Inten    --      1.6957                 2.4107                13.3266

                     43                     44                     45
                      A                      A                      A
 Frequencies --   1117.9830              1193.4826              1194.2044
 Red. masses --      2.5281                 1.1026                 1.0987
 Frc consts  --      1.8617                 0.9254                 0.9232
 IR Inten    --      2.1462                 0.0064                 0.0647

                     46                     47                     48
                      A                      A                      A
 Frequencies --   1216.9030              1223.4352              1323.7509
 Red. masses --      1.1444                 1.1502                 3.2575
 Frc consts  --      0.9985                 1.0143                 3.3632
 IR Inten    --      3.9181                 0.6686                 2.3612

                     49                     50                     51
                      A                      A                      A
 Frequencies --   1331.6656              1351.3847              1363.1550
 Red. masses --      3.3534                 1.2958                 1.7088
 Frc consts  --      3.5036                 1.3943                 1.8708
 IR Inten    --      2.8861                 2.1915                 1.4900

                     52                     53                     54
                      A                      A                      A
 Frequencies --   1371.5853              1479.5011              1482.4651
 Red. masses --      1.5139                 2.0991                 2.0753
 Frc consts  --      1.6780                 2.7071                 2.6872
 IR Inten    --      2.1495                12.2426                 5.4955

                     55                     56                     57
                      A                      A                      A
 Frequencies --   1501.1078              1502.2081              1530.8712
 Red. masses --      1.0620                 1.0627                 2.0236
 Frc consts  --      1.4099                 1.4129                 2.7941
 IR Inten    --      4.2190                16.6917                 4.9312

                     58                     59                     60
                      A                      A                      A
 Frequencies --   1534.8445              1630.0410              1632.4687
 Red. masses --      1.9731                 5.0204                 5.1792
 Frc consts  --      2.7386                 7.8593                 8.1320
 IR Inten    --      6.4921                 1.1123                 0.2818

                     61                     62                     63
                      A                      A                      A
 Frequencies --   1646.7278              1649.4816              3049.4802
 Red. masses --      5.3166                 5.2603                 1.0329
 Frc consts  --      8.4943                 8.4324                 5.6592
 IR Inten    --      1.7916                 3.4206                12.5546

                     64                     65                     66
                      A                      A                      A
 Frequencies --   3131.3034              3138.0886              3174.8649
 Red. masses --      1.1045                 1.1020                 1.0855
 Frc consts  --      6.3805                 6.3940                 6.4465
 IR Inten    --     12.2628                 8.6843                 3.7893

                     67                     68                     69
                      A                      A                      A
 Frequencies --   3176.3227              3181.6154              3182.0196
 Red. masses --      1.0847                 1.0871                 1.0872
 Frc consts  --      6.4480                 6.4835                 6.4859
 IR Inten    --      1.4524                 0.5338                 0.2227

                     70                     71                     72
                      A                      A                      A
 Frequencies --   3190.9760              3192.1146              3198.2175
 Red. masses --      1.0907                 1.0916                 1.0939
 Frc consts  --      6.5432                 6.5537                 6.5927
 IR Inten    --      9.6867                21.0428                33.3523

                     73                     74                     75
                      A                      A                      A
 Frequencies --   3203.7119              3207.1116              3210.6085
 Red. masses --      1.0936                 1.0979                 1.0954
 Frc consts  --      6.6135                 6.6536                 6.6527
 IR Inten    --     34.2070                31.3276                18.4753

 - Thermochemistry -
 -------------------
 Temperature   298.150 Kelvin.  Pressure   1.00000 Atm.
 Atom     1 has atomic number 15 and mass  30.97376

 Molecular mass:   200.07549 amu.
 Principal axes and moments of inertia in atomic units:
                           1         2         3
     Eigenvalues --  1569.878294673.609545299.39172
           X            0.99999  -0.00071   0.00536
           Y            0.00047   0.99898   0.04505
           Z           -0.00538  -0.04505   0.99897
 This molecule is an asymmetric top.
 Rotational symmetry number  1.
 Warning -- assumption of classical behavior for rotation
           may cause significant error
 Rotational temperatures (Kelvin)      0.05517     0.01853     0.01634
 Rotational constants (GHZ):           1.14961     0.38616     0.34056
 Zero-point vibrational energy     579830.2 (Joules/Mol)
                                  138.58274 (Kcal/Mol)
 Warning -- explicit consideration of  16 degrees of freedom as
           vibrations may cause significant error
 Vibrational temperatures:     28.29    43.08    80.49   169.17   256.90
          (Kelvin)            268.93   335.72   354.50   384.34   465.01
                              570.56   587.25   593.78   603.97   702.52
                              742.32   910.26   910.82   970.07  1011.01
                             1014.46  1024.48  1026.87  1089.78  1097.83
                             1239.05  1247.96  1309.66  1323.46  1327.48
                             1347.70  1395.22  1405.95  1434.22  1440.56
                             1460.70  1461.77  1513.80  1517.11  1591.67
                             1600.21  1601.43  1608.53  1717.16  1718.19
                             1750.85  1760.25  1904.58  1915.97  1944.34
                             1961.28  1973.41  2128.67  2132.94  2159.76
                             2161.34  2202.58  2208.30  2345.27  2348.76
                             2369.27  2373.24  4387.52  4505.25  4515.01
                             4567.92  4570.02  4577.63  4578.22  4591.10
                             4592.74  4601.52  4609.43  4614.32  4619.35

 Zero-point correction=                           0.220846 (Hartree/Particle)
 Thermal correction to Energy=                    0.233542
 Thermal correction to Enthalpy=                  0.234486
 Thermal correction to Gibbs Free Energy=         0.179770
 Sum of electronic and zero-point Energies=           -844.343484
 Sum of electronic and thermal Energies=              -844.330788
 Sum of electronic and thermal Enthalpies=            -844.329844
 Sum of electronic and thermal Free Energies=         -844.384560

                     E (Thermal)             CV                S
                      KCal/Mol        Cal/Mol-Kelvin    Cal/Mol-Kelvin
 Total                  146.550             49.332            115.160
 Electronic               0.000              0.000              0.000
 Translational            0.889              2.981             41.785
 Rotational               0.889              2.981             32.031
 Vibrational            144.772             43.370             41.344
 Vibration     1          0.593              1.986              6.668
 Vibration     2          0.594              1.984              5.833
 Vibration     3          0.596              1.975              4.595
 Vibration     4          0.608              1.935              3.140
 Vibration     5          0.629              1.869              2.343
 Vibration     6          0.632              1.858              2.258
 Vibration     7          0.654              1.790              1.853
 Vibration     8          0.661              1.769              1.756
 Vibration     9          0.672              1.733              1.615
 Vibration    10          0.708              1.629              1.294
 Vibration    11          0.763              1.478              0.975
 Vibration    12          0.773              1.453              0.933
 Vibration    13          0.776              1.443              0.917
 Vibration    14          0.782              1.427              0.893
 Vibration    15          0.844              1.276              0.688
 Vibration    16          0.871              1.215              0.619

 Optimization completed.
    -- Stationary point found.
 Normal termination of Gaussian 16 at Wed Feb 27 04:07:44 2019.
 Gaussian 16:  ES64L-G16RevA.03 25-Dec-2016

 ----------------------------------------------------------------------
 # TD(NStates=10, Root=1) B3LYP/6-31G* volume pop=NPA density=current G
 eom=AllCheck Guess=Read
 ----------------------------------------------------------------------

 Structure from the checkpoint file:  "direct_arylation_ligand_62_conf43.chk"
 -------------------
 Title Card Required
 -------------------
 Charge =  0 Multiplicity = 1

                         Standard orientation:
 ---------------------------------------------------------------------
 Center     Atomic      Atomic             Coordinates (Angstroms)
 Number     Number       Type             X           Y           Z
 ---------------------------------------------------------------------
      1         15           0       -0.036683    1.369021   -0.701727
      2          6           0        1.434472    0.319067   -0.299646
      3          6           0        1.640496   -0.841955   -1.067072
      4          6           0        2.760442   -1.645742   -0.867620
      5          6           0        3.712771   -1.296784    0.094054
      6          6           0        3.530223   -0.141815    0.852863
      7          6           0        2.400072    0.658028    0.659772
      8          6           0       -1.438368    0.263190   -0.190246
      9          6           0       -1.386274   -0.598024    0.917761
     10          6           0       -2.489227   -1.377323    1.265378
     11          6           0       -3.664085   -1.307119    0.511630
     12          6           0       -3.728575   -0.458040   -0.593158
     13          6           0       -2.620475    0.317342   -0.943265
     14          6           0       -0.056623    2.585696    0.714290
     15          1           0        0.766321    3.300017    0.606268
     16          1           0       -0.994736    3.146532    0.657076
     17          1           0        0.004308    2.109014    1.698648
     18          1           0        0.911872   -1.120519   -1.825210
     19          1           0        2.894135   -2.542707   -1.466990
     20          1           0        4.590651   -1.919071    0.246047
     21          1           0        4.265667    0.140265    1.602237
     22          1           0        2.280090    1.549871    1.267251
     23          1           0       -0.474027   -0.666281    1.504664
     24          1           0       -2.432893   -2.041213    2.124494
     25          1           0       -4.522577   -1.916081    0.782915
     26          1           0       -4.637126   -0.403205   -1.187395
     27          1           0       -2.670553    0.968942   -1.812551
 ---------------------------------------------------------------------

 SCF Done:  E(RB3LYP) =  -844.564329558     A.U. after    1 cycles

 Excitation energies and oscillator strengths:

 Excited State   1:      Singlet-A      4.6039 eV  269.31 nm  f=0.0435  <S**2>=0.000
      53 -> 54         0.68724
      53 -> 55        -0.11739
 This state for optimization and/or second-order correction.
 Total Energy, E(TD-HF/TD-DFT) =  -844.395141052
 Copying the excited state density for this state as the 1-particle RhoCI density.

 Excited State   2:      Singlet-A      4.8957 eV  253.25 nm  f=0.0129  <S**2>=0.000
      51 -> 55         0.10652
      52 -> 54         0.13693
      52 -> 55         0.11084
      53 -> 55        -0.22387
      53 -> 56         0.62621

 Excited State   3:      Singlet-A      5.0081 eV  247.57 nm  f=0.1456  <S**2>=0.000
      53 -> 54         0.10804
      53 -> 55         0.61716
      53 -> 56         0.19988
      53 -> 57        -0.18820

 Excited State   4:      Singlet-A      5.1447 eV  240.99 nm  f=0.0379  <S**2>=0.000
      50 -> 55         0.12102
      51 -> 54        -0.20889
      52 -> 55        -0.13445
      52 -> 56        -0.10056
      53 -> 55         0.16872
      53 -> 56         0.12443
      53 -> 57         0.59541

 Excited State   5:      Singlet-A      5.4215 eV  228.69 nm  f=0.0047  <S**2>=0.000
      50 -> 55        -0.19233
      50 -> 56         0.26451
      50 -> 57         0.20853
      51 -> 54         0.36809
      51 -> 55        -0.15869
      52 -> 54        -0.31129
      52 -> 56         0.15544
      52 -> 57         0.12162
      53 -> 56         0.12026
      53 -> 57         0.16400

 Excited State   6:      Singlet-A      5.7387 eV  216.05 nm  f=0.0117  <S**2>=0.000
      49 -> 56        -0.20583
      49 -> 57         0.15911
      50 -> 54        -0.15949
      51 -> 54         0.32347
      52 -> 54         0.48516
      53 -> 57         0.18600

 Excited State   7:      Singlet-A      5.8270 eV  212.78 nm  f=0.0124  <S**2>=0.000
      49 -> 56        -0.24834
      49 -> 57         0.17999
      51 -> 54        -0.14223
      51 -> 55         0.13196
      51 -> 56         0.11206
      52 -> 54        -0.18658
      52 -> 55         0.51480
      53 -> 57         0.14817

 Excited State   8:      Singlet-A      5.8572 eV  211.68 nm  f=0.0220  <S**2>=0.000
      49 -> 54         0.18063
      49 -> 56         0.10109
      50 -> 54         0.46223
      50 -> 55         0.34301
      50 -> 56         0.16428
      51 -> 56        -0.10984
      52 -> 54         0.14555
      52 -> 56         0.19499

 Excited State   9:      Singlet-A      5.9280 eV  209.15 nm  f=0.0005  <S**2>=0.000
      50 -> 54         0.16590
      51 -> 54         0.20659
      51 -> 55         0.57152
      51 -> 56         0.12196
      52 -> 55        -0.21534
      52 -> 56        -0.13298

 Excited State  10:      Singlet-A      5.9924 eV  206.90 nm  f=0.0264  <S**2>=0.000
      49 -> 54        -0.31190
      50 -> 54        -0.20321
      50 -> 55         0.45949
      50 -> 56         0.17115
      51 -> 54         0.13431
      51 -> 56         0.16764
      52 -> 55         0.12327
      52 -> 56        -0.14970

 The electronic state is 1-A.
 Alpha  occ. eigenvalues --  -77.07968 -10.19393 -10.19299 -10.19192 -10.19093
 Alpha  occ. eigenvalues --  -10.19069 -10.19059 -10.19011 -10.19001 -10.18964
 Alpha  occ. eigenvalues --  -10.18942 -10.18899 -10.18857 -10.18421  -6.54710
 Alpha  occ. eigenvalues --   -4.70976  -4.70963  -4.70460  -0.85270  -0.84774
 Alpha  occ. eigenvalues --   -0.76468  -0.74321  -0.74256  -0.73796  -0.70921
 Alpha  occ. eigenvalues --   -0.62338  -0.60252  -0.59977  -0.59281  -0.55060
 Alpha  occ. eigenvalues --   -0.51448  -0.49651  -0.45409  -0.44649  -0.44597
 Alpha  occ. eigenvalues --   -0.44242  -0.42401  -0.42079  -0.41685  -0.41109
 Alpha  occ. eigenvalues --   -0.38955  -0.37870  -0.36382  -0.36120  -0.34369
 Alpha  occ. eigenvalues --   -0.34239  -0.32560  -0.31576  -0.26446  -0.25180
 Alpha  occ. eigenvalues --   -0.25018  -0.24725  -0.21380
 Alpha virt. eigenvalues --   -0.01530  -0.00807  -0.00420   0.00542   0.06284
 Alpha virt. eigenvalues --    0.07174   0.09234   0.10908   0.12717   0.13594
 Alpha virt. eigenvalues --    0.14142   0.14681   0.15149   0.15528   0.16193

 Mulliken charges:
               1
     1  P    0.507423
     2  C   -0.067115
     3  C   -0.143115
     4  C   -0.115322
     5  C   -0.121507
     6  C   -0.112998
     7  C   -0.159615
     8  C   -0.150300
     9  C   -0.192306
    10  C   -0.109914
    11  C   -0.192780
    12  C   -0.134753
    13  C   -0.175814
    14  C   -0.640348
    15  H    0.161064
    16  H    0.203720
    17  H    0.215659
    18  H    0.168954
    19  H    0.152402
    20  H    0.153111
    21  H    0.149075
    22  H    0.148047
    23  H    0.087346
    24  H    0.100167
    25  H    0.085492
    26  H    0.093466
    27  H    0.089964
 Sum of Mulliken charges =  -0.00000

 Dipole moment (field-independent basis, Debye):
    X=              7.0079    Y=              2.3416    Z=             -0.4361  Tot=              7.4016
 Quadrupole moment (field-independent basis, Debye-Ang):
   XX=            -91.9189   YY=            -83.0691   ZZ=            -86.8637
   XY=             -6.4530   XZ=              4.1093   YZ=              1.5631

 Summary of Natural Population Analysis:

                                       Natural Population
                Natural  -----------------------------------------------
    Atom  No    Charge         Core      Valence    Rydberg      Total
 -----------------------------------------------------------------------
      P    1    1.25998      9.99755     3.69258    0.04989    13.74002
      C    2   -0.37070      1.99892     4.34854    0.02324     6.37070
      C    3   -0.18256      1.99902     4.16714    0.01640     6.18256
      C    4   -0.23275      1.99910     4.21947    0.01417     6.23275
      C    5   -0.19005      1.99909     4.17689    0.01406     6.19005
      C    6   -0.22553      1.99910     4.21219    0.01424     6.22553
      C    7   -0.21165      1.99900     4.19730    0.01535     6.21165
      C    8   -0.53822      1.99883     4.51447    0.02492     6.53822
      C    9   -0.30981      1.99898     4.29106    0.01977     6.30981
      C   10   -0.21949      1.99908     4.20595    0.01445     6.21949
      C   11   -0.34752      1.99910     4.33063    0.01779     6.34752
      C   12   -0.26952      1.99910     4.25448    0.01594     6.26952
      C   13   -0.23974      1.99902     4.22466    0.01606     6.23974
      C   14   -1.03465      1.99946     5.02408    0.01111     7.03465
      H   15    0.23977      0.00000     0.75840    0.00183     0.76023
      H   16    0.27449      0.00000     0.72482    0.00069     0.72551
      H   17    0.27674      0.00000     0.72216    0.00109     0.72326
      H   18    0.25531      0.00000     0.74310    0.00159     0.74469
      H   19    0.24842      0.00000     0.75081    0.00078     0.75158
      H   20    0.24448      0.00000     0.75473    0.00079     0.75552
      H   21    0.24608      0.00000     0.75309    0.00083     0.75392
      H   22    0.24186      0.00000     0.75691    0.00123     0.75814
      H   23    0.21298      0.00000     0.78596    0.00106     0.78702
      H   24    0.22424      0.00000     0.77490    0.00086     0.77576
      H   25    0.21567      0.00000     0.78355    0.00078     0.78433
      H   26    0.22042      0.00000     0.77872    0.00086     0.77958
      H   27    0.21174      0.00000     0.78753    0.00073     0.78826
 =======================================================================
   * Total *   -0.00000     35.98536    69.73412    0.28052   106.00000

 Normal termination of Gaussian 16 at Wed Feb 27 04:13:10 2019.
