 Gaussian 16, Revision A.03,

 ---------------------------------
 # opt=CalcFc B3LYP/6-31G* scf=xqc
 ---------------------------------

 -------------------
 Title Card Required
 -------------------
 Symbolic Z-matrix:
 Charge =  0 Multiplicity = 1

 SCF Done:  E(RB3LYP) =  -844.508484797     A.U. after   14 cycles
 SCF Done:  E(RB3LYP) =  -844.530699247     A.U. after   14 cycles
 SCF Done:  E(RB3LYP) =  -844.523884745     A.U. after   14 cycles
 SCF Done:  E(RB3LYP) =  -844.546696160     A.U. after   12 cycles
 SCF Done:  E(RB3LYP) =  -844.542658512     A.U. after   13 cycles
 SCF Done:  E(RB3LYP) =  -844.529094803     A.U. after   13 cycles
 SCF Done:  E(RB3LYP) =  -844.535182672     A.U. after   13 cycles
 SCF Done:  E(RB3LYP) =  -844.547818511     A.U. after   10 cycles
 SCF Done:  E(RB3LYP) =  -844.550333598     A.U. after   12 cycles
 SCF Done:  E(RB3LYP) =  -844.549065534     A.U. after   12 cycles
 SCF Done:  E(RB3LYP) =  -844.564252926     A.U. after   11 cycles
 SCF Done:  E(RB3LYP) =  -844.564283155     A.U. after   11 cycles
 SCF Done:  E(RB3LYP) =  -844.564319336     A.U. after   11 cycles
 SCF Done:  E(RB3LYP) =  -844.564326755     A.U. after    9 cycles
 SCF Done:  E(RB3LYP) =  -844.564328820     A.U. after   10 cycles
 SCF Done:  E(RB3LYP) =  -844.564329470     A.U. after    9 cycles
 SCF Done:  E(RB3LYP) =  -844.564329545     A.U. after    8 cycles
 SCF Done:  E(RB3LYP) =  -844.564329556     A.U. after    7 cycles
 Optimization completed.
    -- Stationary point found.
 Normal termination of Gaussian 16 at Wed Feb 27 04:19:54 2019.

 ----------------------------------------------------------------------
 # freq B3LYP/6-31G* volume NMR pop=NPA density=current Geom=AllCheck G
 uess=Read
 ----------------------------------------------------------------------

 Structure from the checkpoint file:  "direct_arylation_ligand_62_conf292.chk"
 -------------------
 Title Card Required
 -------------------
 Charge =  0 Multiplicity = 1

 SCF Done:  E(RB3LYP) =  -844.564329556     A.U. after    1 cycles

      1  P    Isotropic =   385.0686   Anisotropy =    60.2310

      2  C    Isotropic =    51.8704   Anisotropy =   182.8441

      3  C    Isotropic =    62.8749   Anisotropy =   171.1455

      4  C    Isotropic =    68.2801   Anisotropy =   164.2381

      5  C    Isotropic =    67.5054   Anisotropy =   168.3009

      6  C    Isotropic =    69.1692   Anisotropy =   163.2074

      7  C    Isotropic =    60.5048   Anisotropy =   159.8415

      8  C    Isotropic =    52.7870   Anisotropy =   183.2139

      9  C    Isotropic =    67.9835   Anisotropy =   167.4337

     10  C    Isotropic =    68.8487   Anisotropy =   164.0556

     11  C    Isotropic =    69.4146   Anisotropy =   165.2692

     12  C    Isotropic =    68.8097   Anisotropy =   164.5514

     13  C    Isotropic =    62.6033   Anisotropy =   166.8349

     14  C    Isotropic =   173.0305   Anisotropy =    19.3247

     15  H    Isotropic =    31.0015   Anisotropy =     8.5259

     16  H    Isotropic =    30.7452   Anisotropy =    10.5222

     17  H    Isotropic =    30.7059   Anisotropy =     7.2640

     18  H    Isotropic =    25.1714   Anisotropy =    11.3353

     19  H    Isotropic =    25.0795   Anisotropy =     5.9087

     20  H    Isotropic =    25.0152   Anisotropy =     3.8947

     21  H    Isotropic =    24.9615   Anisotropy =     4.4623

     22  H    Isotropic =    24.4816   Anisotropy =     7.9895

     23  H    Isotropic =    24.8797   Anisotropy =     9.9825

     24  H    Isotropic =    24.9266   Anisotropy =     4.8983

     25  H    Isotropic =    25.0796   Anisotropy =     3.7303

     26  H    Isotropic =    25.0471   Anisotropy =     4.9718

     27  H    Isotropic =    24.9782   Anisotropy =    10.0504

  Exact polarizability: 201.367   1.865 138.250 -20.882  -1.678 117.933
 Approx polarizability: 285.400   3.901 225.349 -48.287  -5.089 209.290

                      1                      2                      3
                      A                      A                      A
 Frequencies --     19.6568                29.9446                55.9381
 Red. masses --      3.7895                 3.8334                 5.0669
 Frc consts  --      0.0009                 0.0020                 0.0093
 IR Inten    --      0.2500                 0.0667                 0.0709

                      4                      5                      6
                      A                      A                      A
 Frequencies --    117.5876               178.5506               186.9077
 Red. masses --      3.3695                 3.4613                 3.6210
 Frc consts  --      0.0274                 0.0650                 0.0745
 IR Inten    --      0.5136                 0.7294                 0.2038

                      7                      8                      9
                      A                      A                      A
 Frequencies --    233.3218               246.3664               267.1269
 Red. masses --      1.8291                 1.6587                 3.6693
 Frc consts  --      0.0587                 0.0593                 0.1543
 IR Inten    --      0.4879                 0.3059                 0.1576

                     10                     11                     12
                      A                      A                      A
 Frequencies --    323.2007               396.5561               408.1562
 Red. masses --      4.4977                 5.9073                 3.1698
 Frc consts  --      0.2768                 0.5473                 0.3111
 IR Inten    --      2.2785                 2.7513                 2.8921

                     13                     14                     15
                      A                      A                      A
 Frequencies --    412.6976               419.7783               488.2679
 Red. masses --      3.0647                 6.9739                 3.5147
 Frc consts  --      0.3075                 0.7240                 0.4937
 IR Inten    --      0.6202                 8.2518                10.4581

                     16                     17                     18
                      A                      A                      A
 Frequencies --    515.9392               632.6629               633.0546
 Red. masses --      3.9376                 6.4093                 6.4012
 Frc consts  --      0.6176                 1.5115                 1.5114
 IR Inten    --     12.4252                 0.1769                 0.0923

                     19                     20                     21
                      A                      A                      A
 Frequencies --    674.2287               702.6856               705.0791
 Red. masses --      5.3394                 6.1939                 4.9228
 Frc consts  --      1.4301                 1.8019                 1.4419
 IR Inten    --      8.3419                 0.9826                 3.2598

                     22                     23                     24
                      A                      A                      A
 Frequencies --    712.0482               713.7141               757.4332
 Red. masses --      2.2701                 2.0653                 1.5778
 Frc consts  --      0.6781                 0.6198                 0.5333
 IR Inten    --     20.8290                26.9300                35.5744

                     25                     26                     27
                      A                      A                      A
 Frequencies --    763.0344               861.1857               867.3828
 Red. masses --      1.7188                 1.2514                 1.2452
 Frc consts  --      0.5896                 0.5468                 0.5520
 IR Inten    --     13.6447                 0.1855                 0.0193

                     28                     29                     30
                      A                      A                      A
 Frequencies --    910.2515               919.8517               922.6494
 Red. masses --      1.3086                 1.2937                 1.3544
 Frc consts  --      0.6388                 0.6449                 0.6793
 IR Inten    --     24.9521                28.3951                 1.4291

                     31                     32                     33
                      A                      A                      A
 Frequencies --    936.7040               969.7293               977.1913
 Red. masses --      1.3619                 1.3597                 1.3601
 Frc consts  --      0.7040                 0.7534                 0.7652
 IR Inten    --      4.6176                 0.0626                 0.1023

                     34                     35                     36
                      A                      A                      A
 Frequencies --    996.8352              1001.2391              1015.2378
 Red. masses --      1.2506                 1.2591                 6.2350
 Frc consts  --      0.7322                 0.7437                 3.7864
 IR Inten    --      0.1419                 0.0538                 1.2329

                     37                     38                     39
                      A                      A                      A
 Frequencies --   1015.9832              1052.1447              1054.4463
 Red. masses --      6.2494                 3.2222                 3.1934
 Frc consts  --      3.8007                 2.1016                 2.0919
 IR Inten    --      2.5438                 1.0736                 1.1867

                     40                     41                     42
                      A                      A                      A
 Frequencies --   1106.2692              1112.2022              1113.0458
 Red. masses --      1.7291                 1.7333                 2.4339
 Frc consts  --      1.2468                 1.2633                 1.7766
 IR Inten    --      1.6959                 2.4165                13.3206

                     43                     44                     45
                      A                      A                      A
 Frequencies --   1117.9804              1193.4824              1194.2035
 Red. masses --      2.5284                 1.1027                 1.0987
 Frc consts  --      1.8619                 0.9254                 0.9232
 IR Inten    --      2.1476                 0.0064                 0.0647

                     46                     47                     48
                      A                      A                      A
 Frequencies --   1216.9038              1223.4336              1323.7588
 Red. masses --      1.1444                 1.1502                 3.2574
 Frc consts  --      0.9985                 1.0143                 3.3631
 IR Inten    --      3.9177                 0.6686                 2.3613

                     49                     50                     51
                      A                      A                      A
 Frequencies --   1331.6724              1351.3852              1363.1590
 Red. masses --      3.3532                 1.2958                 1.7088
 Frc consts  --      3.5036                 1.3943                 1.8708
 IR Inten    --      2.8871                 2.1910                 1.4902

                     52                     53                     54
                      A                      A                      A
 Frequencies --   1371.5866              1479.5031              1482.4671
 Red. masses --      1.5139                 2.0991                 2.0753
 Frc consts  --      1.6780                 2.7071                 2.6872
 IR Inten    --      2.1500                12.2440                 5.4956

                     55                     56                     57
                      A                      A                      A
 Frequencies --   1501.1077              1502.2068              1530.8727
 Red. masses --      1.0620                 1.0627                 2.0236
 Frc consts  --      1.4100                 1.4129                 2.7941
 IR Inten    --      4.2238                16.6855                 4.9303

                     58                     59                     60
                      A                      A                      A
 Frequencies --   1534.8447              1630.0439              1632.4711
 Red. masses --      1.9731                 5.0205                 5.1793
 Frc consts  --      2.7387                 7.8594                 8.1322
 IR Inten    --      6.4919                 1.1122                 0.2823

                     61                     62                     63
                      A                      A                      A
 Frequencies --   1646.7293              1649.4806              3049.4836
 Red. masses --      5.3165                 5.2602                 1.0329
 Frc consts  --      8.4942                 8.4324                 5.6592
 IR Inten    --      1.7915                 3.4203                12.5546

                     64                     65                     66
                      A                      A                      A
 Frequencies --   3131.3034              3138.0935              3174.8712
 Red. masses --      1.1045                 1.1020                 1.0855
 Frc consts  --      6.3805                 6.3940                 6.4465
 IR Inten    --     12.2641                 8.6825                 3.7870

                     67                     68                     69
                      A                      A                      A
 Frequencies --   3176.3228              3181.6159              3182.0164
 Red. masses --      1.0847                 1.0871                 1.0872
 Frc consts  --      6.4480                 6.4835                 6.4859
 IR Inten    --      1.4508                 0.5328                 0.2211

                     70                     71                     72
                      A                      A                      A
 Frequencies --   3190.9636              3192.1134              3198.1957
 Red. masses --      1.0907                 1.0916                 1.0940
 Frc consts  --      6.5431                 6.5537                 6.5926
 IR Inten    --      9.6179                21.0094                33.3986

                     73                     74                     75
                      A                      A                      A
 Frequencies --   3203.6950              3207.1075              3210.5823
 Red. masses --      1.0936                 1.0979                 1.0954
 Frc consts  --      6.6133                 6.6536                 6.6528
 IR Inten    --     34.1958                31.3738                18.5039

 - Thermochemistry -
 -------------------
 Temperature   298.150 Kelvin.  Pressure   1.00000 Atm.
 Atom     1 has atomic number 15 and mass  30.97376

 Molecular mass:   200.07549 amu.
 Principal axes and moments of inertia in atomic units:
                           1         2         3
     Eigenvalues --  1569.923694673.625665299.36541
           X            0.99999   0.00071  -0.00536
           Y           -0.00047   0.99898   0.04506
           Z            0.00538  -0.04505   0.99897
 This molecule is an asymmetric top.
 Rotational symmetry number  1.
 Warning -- assumption of classical behavior for rotation
           may cause significant error
 Rotational temperatures (Kelvin)      0.05517     0.01853     0.01634
 Rotational constants (GHZ):           1.14957     0.38615     0.34056
 Zero-point vibrational energy     579829.6 (Joules/Mol)
                                  138.58261 (Kcal/Mol)
 Warning -- explicit consideration of  16 degrees of freedom as
           vibrations may cause significant error
 Vibrational temperatures:     28.28    43.08    80.48   169.18   256.89
          (Kelvin)            268.92   335.70   354.47   384.34   465.01
                              570.56   587.25   593.78   603.97   702.51
                              742.32   910.26   910.82   970.06  1011.01
                             1014.45  1024.48  1026.88  1089.78  1097.84
                             1239.05  1247.97  1309.65  1323.46  1327.49
                             1347.71  1395.22  1405.96  1434.22  1440.56
                             1460.70  1461.77  1513.80  1517.11  1591.67
                             1600.21  1601.42  1608.52  1717.15  1718.19
                             1750.85  1760.25  1904.59  1915.98  1944.34
                             1961.28  1973.41  2128.68  2132.94  2159.76
                             2161.34  2202.58  2208.30  2345.27  2348.76
                             2369.28  2373.23  4387.53  4505.25  4515.02
                             4567.93  4570.02  4577.64  4578.21  4591.08
                             4592.74  4601.49  4609.40  4614.31  4619.31

 Zero-point correction=                           0.220845 (Hartree/Particle)
 Thermal correction to Energy=                    0.233542
 Thermal correction to Enthalpy=                  0.234486
 Thermal correction to Gibbs Free Energy=         0.179769
 Sum of electronic and zero-point Energies=           -844.343484
 Sum of electronic and thermal Energies=              -844.330788
 Sum of electronic and thermal Enthalpies=            -844.329844
 Sum of electronic and thermal Free Energies=         -844.384560

                     E (Thermal)             CV                S
                      KCal/Mol        Cal/Mol-Kelvin    Cal/Mol-Kelvin
 Total                  146.550             49.332            115.161
 Electronic               0.000              0.000              0.000
 Translational            0.889              2.981             41.785
 Rotational               0.889              2.981             32.031
 Vibrational            144.772             43.370             41.345
 Vibration     1          0.593              1.986              6.669
 Vibration     2          0.594              1.984              5.833
 Vibration     3          0.596              1.975              4.596
 Vibration     4          0.608              1.935              3.140
 Vibration     5          0.629              1.869              2.344
 Vibration     6          0.632              1.858              2.258
 Vibration     7          0.654              1.790              1.853
 Vibration     8          0.661              1.769              1.756
 Vibration     9          0.672              1.733              1.615
 Vibration    10          0.708              1.629              1.294
 Vibration    11          0.763              1.478              0.975
 Vibration    12          0.773              1.453              0.933
 Vibration    13          0.776              1.443              0.917
 Vibration    14          0.782              1.427              0.893
 Vibration    15          0.844              1.276              0.688
 Vibration    16          0.871              1.215              0.619

 Optimization completed.
    -- Stationary point found.
 Normal termination of Gaussian 16 at Wed Feb 27 04:24:55 2019.
 Gaussian 16:  ES64L-G16RevA.03 25-Dec-2016

 ----------------------------------------------------------------------
 # TD(NStates=10, Root=1) B3LYP/6-31G* volume pop=NPA density=current G
 eom=AllCheck Guess=Read
 ----------------------------------------------------------------------

 Structure from the checkpoint file:  "direct_arylation_ligand_62_conf293.chk"
 -------------------
 Title Card Required
 -------------------
 Charge =  0 Multiplicity = 1

                         Standard orientation:
 ---------------------------------------------------------------------
 Center     Atomic      Atomic             Coordinates (Angstroms)
 Number     Number       Type             X           Y           Z
 ---------------------------------------------------------------------
      1         15           0        0.036655    1.368987   -0.701764
      2          6           0        1.438386    0.263238   -0.190196
      3          6           0        1.386385   -0.597785    0.917957
      4          6           0        2.489335   -1.377088    1.265571
      5          6           0        3.664096   -1.307081    0.511654
      6          6           0        3.728488   -0.458199   -0.593293
      7          6           0        2.620389    0.317185   -0.943394
      8          6           0       -1.434447    0.318997   -0.299571
      9          6           0       -2.400100    0.657988    0.659774
     10          6           0       -3.530253   -0.141858    0.852836
     11          6           0       -3.712748   -1.296855    0.094053
     12          6           0       -2.760382   -1.645821   -0.867581
     13          6           0       -1.640437   -0.842024   -1.067008
     14          6           0        0.056543    2.585827    0.714118
     15          1           0        0.994611    3.146730    0.656840
     16          1           0       -0.766456    3.300074    0.606022
     17          1           0       -0.004341    2.109255    1.698533
     18          1           0        0.474193   -0.665850    1.504978
     19          1           0        2.433074   -2.040828    2.124807
     20          1           0        4.522589   -1.916047    0.782928
     21          1           0        4.636965   -0.403527   -1.187660
     22          1           0        2.670390    0.968620   -1.812807
     23          1           0       -2.280167    1.549885    1.267192
     24          1           0       -4.265742    0.140242    1.602158
     25          1           0       -4.590629   -1.919146    0.246023
     26          1           0       -2.894052   -2.542792   -1.466947
     27          1           0       -0.911791   -1.120570   -1.825130
 ---------------------------------------------------------------------

 SCF Done:  E(RB3LYP) =  -844.564329556     A.U. after    1 cycles

 Excitation energies and oscillator strengths:

 Excited State   1:      Singlet-A      4.6039 eV  269.30 nm  f=0.0435  <S**2>=0.000
      53 -> 54         0.68723
      53 -> 55         0.11741
 This state for optimization and/or second-order correction.
 Total Energy, E(TD-HF/TD-DFT) =  -844.395140092
 Copying the excited state density for this state as the 1-particle RhoCI density.

 Excited State   2:      Singlet-A      4.8958 eV  253.25 nm  f=0.0129  <S**2>=0.000
      51 -> 55        -0.10653
      52 -> 54         0.13692
      52 -> 55        -0.11085
      53 -> 55         0.22400
      53 -> 56         0.62616

 Excited State   3:      Singlet-A      5.0081 eV  247.57 nm  f=0.1456  <S**2>=0.000
      53 -> 54        -0.10805
      53 -> 55         0.61710
      53 -> 56        -0.19997
      53 -> 57         0.18827

 Excited State   4:      Singlet-A      5.1448 eV  240.99 nm  f=0.0380  <S**2>=0.000
      50 -> 55        -0.12105
      51 -> 54        -0.20888
      52 -> 55         0.13440
      52 -> 56        -0.10057
      53 -> 55        -0.16877
      53 -> 56         0.12449
      53 -> 57         0.59538

 Excited State   5:      Singlet-A      5.4214 eV  228.69 nm  f=0.0047  <S**2>=0.000
      50 -> 55         0.19246
      50 -> 56         0.26446
      50 -> 57         0.20851
      51 -> 54         0.36811
      51 -> 55         0.15863
      52 -> 54        -0.31124
      52 -> 56         0.15544
      52 -> 57         0.12165
      53 -> 56         0.12026
      53 -> 57         0.16399

 Excited State   6:      Singlet-A      5.7387 eV  216.05 nm  f=0.0117  <S**2>=0.000
      49 -> 56        -0.20576
      49 -> 57         0.15905
      50 -> 54        -0.15944
      51 -> 54         0.32353
      52 -> 54         0.48523
      53 -> 57         0.18595

 Excited State   7:      Singlet-A      5.8270 eV  212.78 nm  f=0.0124  <S**2>=0.000
      49 -> 56         0.24838
      49 -> 57        -0.18000
      51 -> 54         0.14211
      51 -> 55         0.13193
      51 -> 56        -0.11204
      52 -> 54         0.18646
      52 -> 55         0.51483
      53 -> 57        -0.14822

 Excited State   8:      Singlet-A      5.8571 eV  211.68 nm  f=0.0221  <S**2>=0.000
      49 -> 54         0.18058
      49 -> 56         0.10113
      50 -> 54         0.46222
      50 -> 55        -0.34299
      50 -> 56         0.16430
      51 -> 56        -0.10987
      52 -> 54         0.14558
      52 -> 56         0.19503

 Excited State   9:      Singlet-A      5.9280 eV  209.15 nm  f=0.0005  <S**2>=0.000
      50 -> 54        -0.16606
      51 -> 54        -0.20647
      51 -> 55         0.57152
      51 -> 56        -0.12194
      52 -> 55        -0.21535
      52 -> 56         0.13298

 Excited State  10:      Singlet-A      5.9924 eV  206.90 nm  f=0.0264  <S**2>=0.000
      49 -> 54         0.31188
      50 -> 54         0.20318
      50 -> 55         0.45947
      50 -> 56        -0.17123
      51 -> 54        -0.13449
      51 -> 56        -0.16766
      52 -> 55         0.12320
      52 -> 56         0.14959

 The electronic state is 1-A.
 Alpha  occ. eigenvalues --  -77.07968 -10.19392 -10.19299 -10.19192 -10.19093
 Alpha  occ. eigenvalues --  -10.19069 -10.19059 -10.19012 -10.19001 -10.18964
 Alpha  occ. eigenvalues --  -10.18942 -10.18899 -10.18857 -10.18421  -6.54710
 Alpha  occ. eigenvalues --   -4.70976  -4.70963  -4.70460  -0.85270  -0.84774
 Alpha  occ. eigenvalues --   -0.76468  -0.74321  -0.74255  -0.73796  -0.70921
 Alpha  occ. eigenvalues --   -0.62338  -0.60252  -0.59977  -0.59281  -0.55060
 Alpha  occ. eigenvalues --   -0.51448  -0.49651  -0.45409  -0.44649  -0.44597
 Alpha  occ. eigenvalues --   -0.44242  -0.42401  -0.42079  -0.41685  -0.41109
 Alpha  occ. eigenvalues --   -0.38955  -0.37871  -0.36382  -0.36120  -0.34369
 Alpha  occ. eigenvalues --   -0.34239  -0.32560  -0.31576  -0.26446  -0.25180
 Alpha  occ. eigenvalues --   -0.25018  -0.24725  -0.21380
 Alpha virt. eigenvalues --   -0.01530  -0.00807  -0.00420   0.00542   0.06284
 Alpha virt. eigenvalues --    0.07174   0.09234   0.10908   0.12717   0.13594
 Alpha virt. eigenvalues --    0.14142   0.14681   0.15149   0.15528   0.16193

 Mulliken charges:
               1
     1  P    0.507423
     2  C   -0.150298
     3  C   -0.192301
     4  C   -0.109915
     5  C   -0.192788
     6  C   -0.134755
     7  C   -0.175817
     8  C   -0.067098
     9  C   -0.159621
    10  C   -0.112994
    11  C   -0.121504
    12  C   -0.115324
    13  C   -0.143113
    14  C   -0.640352
    15  H    0.203720
    16  H    0.161064
    17  H    0.215657
    18  H    0.087334
    19  H    0.100165
    20  H    0.085488
    21  H    0.093463
    22  H    0.089961
    23  H    0.148048
    24  H    0.149078
    25  H    0.153115
    26  H    0.152404
    27  H    0.168958
 Sum of Mulliken charges =  -0.00000

 Dipole moment (field-independent basis, Debye):
    X=             -7.0089    Y=              2.3415    Z=             -0.4364  Tot=              7.4026
 Quadrupole moment (field-independent basis, Debye-Ang):
   XX=            -91.9193   YY=            -83.0690   ZZ=            -86.8632
   XY=              6.4526   XZ=             -4.1096   YZ=              1.5634

 Summary of Natural Population Analysis:

                                       Natural Population
                Natural  -----------------------------------------------
    Atom  No    Charge         Core      Valence    Rydberg      Total
 -----------------------------------------------------------------------
      P    1    1.25997      9.99755     3.69259    0.04989    13.74003
      C    2   -0.53822      1.99883     4.51447    0.02492     6.53822
      C    3   -0.30981      1.99898     4.29106    0.01977     6.30981
      C    4   -0.21949      1.99908     4.20595    0.01445     6.21949
      C    5   -0.34753      1.99910     4.33064    0.01779     6.34753
      C    6   -0.26952      1.99910     4.25448    0.01594     6.26952
      C    7   -0.23975      1.99902     4.22467    0.01606     6.23975
      C    8   -0.37068      1.99892     4.34852    0.02324     6.37068
      C    9   -0.21166      1.99900     4.19730    0.01535     6.21166
      C   10   -0.22552      1.99910     4.21218    0.01424     6.22552
      C   11   -0.19004      1.99909     4.17689    0.01406     6.19004
      C   12   -0.23275      1.99910     4.21948    0.01417     6.23275
      C   13   -0.18255      1.99902     4.16713    0.01640     6.18255
      C   14   -1.03465      1.99946     5.02408    0.01111     7.03465
      H   15    0.27449      0.00000     0.72482    0.00069     0.72551
      H   16    0.23977      0.00000     0.75840    0.00183     0.76023
      H   17    0.27674      0.00000     0.72217    0.00109     0.72326
      H   18    0.21297      0.00000     0.78596    0.00106     0.78703
      H   19    0.22424      0.00000     0.77490    0.00086     0.77576
      H   20    0.21567      0.00000     0.78355    0.00078     0.78433
      H   21    0.22042      0.00000     0.77872    0.00086     0.77958
      H   22    0.21174      0.00000     0.78753    0.00073     0.78826
      H   23    0.24187      0.00000     0.75690    0.00123     0.75813
      H   24    0.24608      0.00000     0.75309    0.00083     0.75392
      H   25    0.24448      0.00000     0.75472    0.00079     0.75552
      H   26    0.24842      0.00000     0.75081    0.00078     0.75158
      H   27    0.25531      0.00000     0.74310    0.00159     0.74469
 =======================================================================
   * Total *    0.00000     35.98536    69.73412    0.28052   106.00000

 Normal termination of Gaussian 16 at Wed Feb 27 04:30:35 2019.
