 Gaussian 16, Revision A.03,

 ---------------------------------
 # opt=CalcFc B3LYP/6-31G* scf=xqc
 ---------------------------------

 -------------------
 Title Card Required
 -------------------
 Symbolic Z-matrix:
 Charge =  0 Multiplicity = 1

 SCF Done:  E(RB3LYP) =  -844.501002459     A.U. after   14 cycles
 SCF Done:  E(RB3LYP) =  -844.536456625     A.U. after   14 cycles
 SCF Done:  E(RB3LYP) =  -844.518545937     A.U. after   14 cycles
 SCF Done:  E(RB3LYP) =  -844.546652424     A.U. after   13 cycles
 SCF Done:  E(RB3LYP) =  -844.544837068     A.U. after   14 cycles
 SCF Done:  E(RB3LYP) =  -844.476048534     A.U. after   13 cycles
 SCF Done:  E(RB3LYP) =  -844.475170422     A.U. after   13 cycles
 SCF Done:  E(RB3LYP) =  -844.550316084     A.U. after   12 cycles
 SCF Done:  E(RB3LYP) =  -844.554346031     A.U. after   14 cycles
 SCF Done:  E(RB3LYP) =  -844.556590877     A.U. after   13 cycles
 SCF Done:  E(RB3LYP) =  -844.564269120     A.U. after   11 cycles
 SCF Done:  E(RB3LYP) =  -844.564279012     A.U. after   10 cycles
 SCF Done:  E(RB3LYP) =  -844.564320872     A.U. after   10 cycles
 SCF Done:  E(RB3LYP) =  -844.564327870     A.U. after   10 cycles
 SCF Done:  E(RB3LYP) =  -844.564329313     A.U. after   10 cycles
 SCF Done:  E(RB3LYP) =  -844.564329452     A.U. after    8 cycles
 SCF Done:  E(RB3LYP) =  -844.564329538     A.U. after    8 cycles
 SCF Done:  E(RB3LYP) =  -844.564329554     A.U. after    7 cycles
 Optimization completed.
    -- Stationary point found.
 Normal termination of Gaussian 16 at Wed Feb 27 04:06:40 2019.

 ----------------------------------------------------------------------
 # freq B3LYP/6-31G* volume NMR pop=NPA density=current Geom=AllCheck G
 uess=Read
 ----------------------------------------------------------------------

 Structure from the checkpoint file:  "direct_arylation_ligand_62_conf222.chk"
 -------------------
 Title Card Required
 -------------------
 Charge =  0 Multiplicity = 1

 SCF Done:  E(RB3LYP) =  -844.564329554     A.U. after    1 cycles

      1  P    Isotropic =   385.0806   Anisotropy =    60.2214

      2  C    Isotropic =    51.8728   Anisotropy =   182.8449

      3  C    Isotropic =    62.8762   Anisotropy =   171.1488

      4  C    Isotropic =    68.2793   Anisotropy =   164.2392

      5  C    Isotropic =    67.5047   Anisotropy =   168.3024

      6  C    Isotropic =    69.1690   Anisotropy =   163.2081

      7  C    Isotropic =    60.5048   Anisotropy =   159.8396

      8  C    Isotropic =    52.7829   Anisotropy =   183.2142

      9  C    Isotropic =    67.9829   Anisotropy =   167.4343

     10  C    Isotropic =    68.8487   Anisotropy =   164.0545

     11  C    Isotropic =    69.4153   Anisotropy =   165.2688

     12  C    Isotropic =    68.8106   Anisotropy =   164.5497

     13  C    Isotropic =    62.6056   Anisotropy =   166.8367

     14  C    Isotropic =   173.0289   Anisotropy =    19.3239

     15  H    Isotropic =    31.0017   Anisotropy =     8.5250

     16  H    Isotropic =    30.7452   Anisotropy =    10.5231

     17  H    Isotropic =    30.7058   Anisotropy =     7.2635

     18  H    Isotropic =    25.1716   Anisotropy =    11.3349

     19  H    Isotropic =    25.0794   Anisotropy =     5.9086

     20  H    Isotropic =    25.0152   Anisotropy =     3.8946

     21  H    Isotropic =    24.9615   Anisotropy =     4.4623

     22  H    Isotropic =    24.4816   Anisotropy =     7.9892

     23  H    Isotropic =    24.8798   Anisotropy =     9.9825

     24  H    Isotropic =    24.9266   Anisotropy =     4.8984

     25  H    Isotropic =    25.0797   Anisotropy =     3.7301

     26  H    Isotropic =    25.0472   Anisotropy =     4.9720

     27  H    Isotropic =    24.9784   Anisotropy =    10.0504

  Exact polarizability: 201.364   1.860 138.247 -20.884  -1.676 117.935
 Approx polarizability: 285.395   3.889 225.344 -48.291  -5.086 209.294

                      1                      2                      3
                      A                      A                      A
 Frequencies --     19.6182                29.9285                55.9306
 Red. masses --      3.7893                 3.8334                 5.0671
 Frc consts  --      0.0009                 0.0020                 0.0093
 IR Inten    --      0.2498                 0.0668                 0.0709

                      4                      5                      6
                      A                      A                      A
 Frequencies --    117.5847               178.5395               186.8991
 Red. masses --      3.3695                 3.4617                 3.6208
 Frc consts  --      0.0274                 0.0650                 0.0745
 IR Inten    --      0.5134                 0.7293                 0.2038

                      7                      8                      9
                      A                      A                      A
 Frequencies --    233.3330               246.3769               267.1307
 Red. masses --      1.8290                 1.6588                 3.6692
 Frc consts  --      0.0587                 0.0593                 0.1543
 IR Inten    --      0.4877                 0.3058                 0.1576

                     10                     11                     12
                      A                      A                      A
 Frequencies --    323.2049               396.5594               408.1560
 Red. masses --      4.4976                 5.9068                 3.1694
 Frc consts  --      0.2768                 0.5473                 0.3111
 IR Inten    --      2.2792                 2.7489                 2.8894

                     13                     14                     15
                      A                      A                      A
 Frequencies --    412.6943               419.7772               488.2619
 Red. masses --      3.0646                 6.9768                 3.5146
 Frc consts  --      0.3075                 0.7243                 0.4937
 IR Inten    --      0.6205                 8.2583                10.4584

                     16                     17                     18
                      A                      A                      A
 Frequencies --    515.9420               632.6634               633.0549
 Red. masses --      3.9374                 6.4093                 6.4012
 Frc consts  --      0.6175                 1.5115                 1.5115
 IR Inten    --     12.4270                 0.1768                 0.0921

                     19                     20                     21
                      A                      A                      A
 Frequencies --    674.2562               702.6901               705.0883
 Red. masses --      5.3395                 6.1929                 4.9195
 Frc consts  --      1.4302                 1.8016                 1.4410
 IR Inten    --      8.3351                 0.9840                 3.2596

                     22                     23                     24
                      A                      A                      A
 Frequencies --    712.0411               713.7100               757.4293
 Red. masses --      2.2699                 2.0653                 1.5779
 Frc consts  --      0.6781                 0.6198                 0.5334
 IR Inten    --     20.8296                26.9426                35.5727

                     25                     26                     27
                      A                      A                      A
 Frequencies --    763.0334               861.1702               867.3667
 Red. masses --      1.7191                 1.2514                 1.2452
 Frc consts  --      0.5897                 0.5468                 0.5520
 IR Inten    --     13.6374                 0.1858                 0.0195

                     28                     29                     30
                      A                      A                      A
 Frequencies --    910.2607               919.8630               922.6393
 Red. masses --      1.3086                 1.2937                 1.3544
 Frc consts  --      0.6388                 0.6449                 0.6793
 IR Inten    --     24.9564                28.3932                 1.4232

                     31                     32                     33
                      A                      A                      A
 Frequencies --    936.6934               969.7220               977.1796
 Red. masses --      1.3619                 1.3597                 1.3601
 Frc consts  --      0.7040                 0.7534                 0.7652
 IR Inten    --      4.6229                 0.0627                 0.1024

                     34                     35                     36
                      A                      A                      A
 Frequencies --    996.8319              1001.2371              1015.2364
 Red. masses --      1.2506                 1.2591                 6.2348
 Frc consts  --      0.7322                 0.7437                 3.7862
 IR Inten    --      0.1418                 0.0537                 1.2336

                     37                     38                     39
                      A                      A                      A
 Frequencies --   1015.9859              1052.1464              1054.4489
 Red. masses --      6.2495                 3.2217                 3.1935
 Frc consts  --      3.8008                 2.1013                 2.0921
 IR Inten    --      2.5448                 1.0735                 1.1871

                     40                     41                     42
                      A                      A                      A
 Frequencies --   1106.2634              1112.2014              1113.0556
 Red. masses --      1.7291                 1.7327                 2.4354
 Frc consts  --      1.2468                 1.2628                 1.7777
 IR Inten    --      1.6957                 2.3916                13.3414

                     43                     44                     45
                      A                      A                      A
 Frequencies --   1117.9821              1193.4823              1194.2049
 Red. masses --      2.5281                 1.1026                 1.0987
 Frc consts  --      1.8617                 0.9254                 0.9232
 IR Inten    --      2.1545                 0.0064                 0.0646

                     46                     47                     48
                      A                      A                      A
 Frequencies --   1216.9009              1223.4365              1323.7527
 Red. masses --      1.1444                 1.1502                 3.2572
 Frc consts  --      0.9985                 1.0143                 3.3629
 IR Inten    --      3.9173                 0.6688                 2.3621

                     49                     50                     51
                      A                      A                      A
 Frequencies --   1331.6713              1351.4007              1363.1499
 Red. masses --      3.3526                 1.2959                 1.7091
 Frc consts  --      3.5029                 1.3944                 1.8711
 IR Inten    --      2.8872                 2.1905                 1.4907

                     52                     53                     54
                      A                      A                      A
 Frequencies --   1371.5848              1479.4995              1482.4652
 Red. masses --      1.5138                 2.0991                 2.0753
 Frc consts  --      1.6779                 2.7071                 2.6872
 IR Inten    --      2.1510                12.2408                 5.4999

                     55                     56                     57
                      A                      A                      A
 Frequencies --   1501.1057              1502.2127              1530.8750
 Red. masses --      1.0620                 1.0627                 2.0236
 Frc consts  --      1.4099                 1.4129                 2.7942
 IR Inten    --      4.2200                16.6866                 4.9266

                     58                     59                     60
                      A                      A                      A
 Frequencies --   1534.8441              1630.0419              1632.4744
 Red. masses --      1.9732                 5.0203                 5.1795
 Frc consts  --      2.7387                 7.8592                 8.1326
 IR Inten    --      6.4931                 1.1118                 0.2836

                     61                     62                     63
                      A                      A                      A
 Frequencies --   1646.7311              1649.4856              3049.4862
 Red. masses --      5.3168                 5.2604                 1.0329
 Frc consts  --      8.4946                 8.4326                 5.6592
 IR Inten    --      1.7892                 3.4222                12.5535

                     64                     65                     66
                      A                      A                      A
 Frequencies --   3131.3083              3138.0813              3174.8837
 Red. masses --      1.1045                 1.1020                 1.0855
 Frc consts  --      6.3805                 6.3940                 6.4465
 IR Inten    --     12.2611                 8.6889                 3.7859

                     67                     68                     69
                      A                      A                      A
 Frequencies --   3176.3300              3181.6242              3182.0365
 Red. masses --      1.0847                 1.0871                 1.0872
 Frc consts  --      6.4480                 6.4835                 6.4860
 IR Inten    --      1.4519                 0.5376                 0.2277

                     70                     71                     72
                      A                      A                      A
 Frequencies --   3191.0058              3192.1228              3198.2597
 Red. masses --      1.0907                 1.0916                 1.0939
 Frc consts  --      6.5434                 6.5538                 6.5928
 IR Inten    --      9.8030                21.0635                33.2843

                     73                     74                     75
                      A                      A                      A
 Frequencies --   3203.7199              3207.1217              3210.6181
 Red. masses --      1.0936                 1.0979                 1.0954
 Frc consts  --      6.6136                 6.6537                 6.6527
 IR Inten    --     34.2131                31.2655                18.4615

 - Thermochemistry -
 -------------------
 Temperature   298.150 Kelvin.  Pressure   1.00000 Atm.
 Atom     1 has atomic number 15 and mass  30.97376

 Molecular mass:   200.07549 amu.
 Principal axes and moments of inertia in atomic units:
                           1         2         3
     Eigenvalues --  1569.895664673.673085299.33663
           X            0.99999   0.00071  -0.00536
           Y           -0.00047   0.99898   0.04506
           Z            0.00538  -0.04506   0.99897
 This molecule is an asymmetric top.
 Rotational symmetry number  1.
 Warning -- assumption of classical behavior for rotation
           may cause significant error
 Rotational temperatures (Kelvin)      0.05517     0.01853     0.01634
 Rotational constants (GHZ):           1.14959     0.38615     0.34056
 Zero-point vibrational energy     579830.6 (Joules/Mol)
                                  138.58284 (Kcal/Mol)
 Warning -- explicit consideration of  16 degrees of freedom as
           vibrations may cause significant error
 Vibrational temperatures:     28.23    43.06    80.47   169.18   256.88
          (Kelvin)            268.91   335.71   354.48   384.34   465.02
                              570.56   587.25   593.77   603.97   702.50
                              742.33   910.26   910.82   970.10  1011.01
                             1014.46  1024.47  1026.87  1089.77  1097.83
                             1239.03  1247.95  1309.66  1323.48  1327.47
                             1347.69  1395.21  1405.94  1434.22  1440.56
                             1460.70  1461.78  1513.80  1517.12  1591.67
                             1600.21  1601.44  1608.53  1717.15  1718.19
                             1750.85  1760.25  1904.58  1915.98  1944.36
                             1961.27  1973.40  2128.67  2132.94  2159.76
                             2161.35  2202.59  2208.30  2345.27  2348.77
                             2369.28  2373.24  4387.53  4505.25  4515.00
                             4567.95  4570.03  4577.65  4578.24  4591.15
                             4592.75  4601.58  4609.44  4614.33  4619.36

 Zero-point correction=                           0.220846 (Hartree/Particle)
 Thermal correction to Energy=                    0.233542
 Thermal correction to Enthalpy=                  0.234486
 Thermal correction to Gibbs Free Energy=         0.179767
 Sum of electronic and zero-point Energies=           -844.343484
 Sum of electronic and thermal Energies=              -844.330787
 Sum of electronic and thermal Enthalpies=            -844.329843
 Sum of electronic and thermal Free Energies=         -844.384562

                     E (Thermal)             CV                S
                      KCal/Mol        Cal/Mol-Kelvin    Cal/Mol-Kelvin
 Total                  146.550             49.332            115.166
 Electronic               0.000              0.000              0.000
 Translational            0.889              2.981             41.785
 Rotational               0.889              2.981             32.031
 Vibrational            144.772             43.370             41.350
 Vibration     1          0.593              1.986              6.672
 Vibration     2          0.594              1.984              5.834
 Vibration     3          0.596              1.975              4.596
 Vibration     4          0.608              1.935              3.140
 Vibration     5          0.629              1.869              2.344
 Vibration     6          0.632              1.858              2.258
 Vibration     7          0.654              1.790              1.853
 Vibration     8          0.661              1.769              1.756
 Vibration     9          0.672              1.733              1.615
 Vibration    10          0.708              1.629              1.294
 Vibration    11          0.763              1.478              0.975
 Vibration    12          0.773              1.453              0.933
 Vibration    13          0.776              1.443              0.917
 Vibration    14          0.782              1.427              0.893
 Vibration    15          0.844              1.276              0.688
 Vibration    16          0.871              1.215              0.619

 Optimization completed.
    -- Stationary point found.
 Normal termination of Gaussian 16 at Wed Feb 27 04:11:29 2019.
 Gaussian 16:  ES64L-G16RevA.03 25-Dec-2016

 ----------------------------------------------------------------------
 # TD(NStates=10, Root=1) B3LYP/6-31G* volume pop=NPA density=current G
 eom=AllCheck Guess=Read
 ----------------------------------------------------------------------

 Structure from the checkpoint file:  "direct_arylation_ligand_62_conf223.chk"
 -------------------
 Title Card Required
 -------------------
 Charge =  0 Multiplicity = 1

                         Standard orientation:
 ---------------------------------------------------------------------
 Center     Atomic      Atomic             Coordinates (Angstroms)
 Number     Number       Type             X           Y           Z
 ---------------------------------------------------------------------
      1         15           0        0.036658    1.368975   -0.701829
      2          6           0        1.438363    0.263222   -0.190259
      3          6           0        1.386465   -0.597524    0.918104
      4          6           0        2.489434   -1.376775    1.265781
      5          6           0        3.664117   -1.306989    0.511724
      6          6           0        3.728422   -0.458348   -0.593413
      7          6           0        2.620312    0.317001   -0.943556
      8          6           0       -1.434493    0.319029   -0.299683
      9          6           0       -2.400224    0.658126    0.659552
     10          6           0       -3.530340   -0.141757    0.852709
     11          6           0       -3.712738   -1.296909    0.094149
     12          6           0       -2.760294   -1.646000   -0.867363
     13          6           0       -1.640395   -0.842172   -1.066885
     14          6           0        0.056571    2.585699    0.714119
     15          1           0        0.994808    3.146345    0.657037
     16          1           0       -0.766202    3.300191    0.605956
     17          1           0       -0.004604    2.109074    1.698489
     18          1           0        0.474372   -0.665461    1.505262
     19          1           0        2.433245   -2.040306    2.125183
     20          1           0        4.522619   -1.915919    0.783050
     21          1           0        4.636844   -0.403814   -1.187875
     22          1           0        2.670267    0.968288   -1.813083
     23          1           0       -2.280392    1.550111    1.266846
     24          1           0       -4.265874    0.140443    1.601950
     25          1           0       -4.590586   -1.919225    0.246200
     26          1           0       -2.893865   -2.543102   -1.466554
     27          1           0       -0.911691   -1.120869   -1.824891
 ---------------------------------------------------------------------

 SCF Done:  E(RB3LYP) =  -844.564329554     A.U. after    1 cycles

 Excitation energies and oscillator strengths:

 Excited State   1:      Singlet-A      4.6038 eV  269.31 nm  f=0.0434  <S**2>=0.000
      53 -> 54         0.68725
      53 -> 55         0.11731
 This state for optimization and/or second-order correction.
 Total Energy, E(TD-HF/TD-DFT) =  -844.395142708
 Copying the excited state density for this state as the 1-particle RhoCI density.

 Excited State   2:      Singlet-A      4.8958 eV  253.24 nm  f=0.0129  <S**2>=0.000
      51 -> 55        -0.10644
      52 -> 54         0.13682
      52 -> 55        -0.11098
      53 -> 55         0.22426
      53 -> 56         0.62607

 Excited State   3:      Singlet-A      5.0082 eV  247.56 nm  f=0.1456  <S**2>=0.000
      53 -> 54        -0.10795
      53 -> 55         0.61700
      53 -> 56        -0.20015
      53 -> 57         0.18844

 Excited State   4:      Singlet-A      5.1448 eV  240.99 nm  f=0.0380  <S**2>=0.000
      50 -> 55        -0.12108
      51 -> 54        -0.20880
      52 -> 55         0.13439
      52 -> 56        -0.10063
      53 -> 55        -0.16887
      53 -> 56         0.12468
      53 -> 57         0.59533

 Excited State   5:      Singlet-A      5.4213 eV  228.70 nm  f=0.0047  <S**2>=0.000
      50 -> 55         0.19257
      50 -> 56         0.26447
      50 -> 57         0.20845
      51 -> 54         0.36841
      51 -> 55         0.15846
      52 -> 54        -0.31094
      52 -> 56         0.15542
      52 -> 57         0.12164
      53 -> 56         0.12026
      53 -> 57         0.16392

 Excited State   6:      Singlet-A      5.7387 eV  216.05 nm  f=0.0117  <S**2>=0.000
      49 -> 56        -0.20536
      49 -> 57         0.15881
      50 -> 54        -0.15938
      51 -> 54         0.32342
      52 -> 54         0.48576
      53 -> 57         0.18575

 Excited State   7:      Singlet-A      5.8269 eV  212.78 nm  f=0.0124  <S**2>=0.000
      49 -> 56         0.24866
      49 -> 57        -0.18028
      51 -> 54         0.14151
      51 -> 55         0.13165
      51 -> 56        -0.11197
      52 -> 54         0.18611
      52 -> 55         0.51488
      53 -> 57        -0.14852

 Excited State   8:      Singlet-A      5.8571 eV  211.68 nm  f=0.0221  <S**2>=0.000
      49 -> 54         0.18061
      49 -> 56         0.10108
      50 -> 54         0.46232
      50 -> 55        -0.34300
      50 -> 56         0.16434
      51 -> 56        -0.10995
      52 -> 54         0.14541
      52 -> 56         0.19496

 Excited State   9:      Singlet-A      5.9281 eV  209.15 nm  f=0.0005  <S**2>=0.000
      50 -> 54        -0.16600
      51 -> 54        -0.20625
      51 -> 55         0.57168
      51 -> 56        -0.12204
      52 -> 55        -0.21524
      52 -> 56         0.13297

 Excited State  10:      Singlet-A      5.9923 eV  206.90 nm  f=0.0264  <S**2>=0.000
      49 -> 54         0.31183
      50 -> 54         0.20316
      50 -> 55         0.45950
      50 -> 56        -0.17140
      51 -> 54        -0.13471
      51 -> 56        -0.16783
      52 -> 55         0.12299
      52 -> 56         0.14928

 The electronic state is 1-A.
 Alpha  occ. eigenvalues --  -77.07968 -10.19393 -10.19299 -10.19192 -10.19094
 Alpha  occ. eigenvalues --  -10.19069 -10.19058 -10.19012 -10.19002 -10.18964
 Alpha  occ. eigenvalues --  -10.18942 -10.18899 -10.18857 -10.18421  -6.54710
 Alpha  occ. eigenvalues --   -4.70976  -4.70963  -4.70460  -0.85270  -0.84774
 Alpha  occ. eigenvalues --   -0.76468  -0.74321  -0.74255  -0.73797  -0.70921
 Alpha  occ. eigenvalues --   -0.62338  -0.60252  -0.59977  -0.59281  -0.55060
 Alpha  occ. eigenvalues --   -0.51448  -0.49651  -0.45409  -0.44650  -0.44597
 Alpha  occ. eigenvalues --   -0.44242  -0.42401  -0.42080  -0.41684  -0.41109
 Alpha  occ. eigenvalues --   -0.38955  -0.37870  -0.36382  -0.36120  -0.34369
 Alpha  occ. eigenvalues --   -0.34240  -0.32560  -0.31576  -0.26446  -0.25180
 Alpha  occ. eigenvalues --   -0.25018  -0.24725  -0.21380
 Alpha virt. eigenvalues --   -0.01530  -0.00807  -0.00419   0.00542   0.06283
 Alpha virt. eigenvalues --    0.07175   0.09234   0.10908   0.12717   0.13593
 Alpha virt. eigenvalues --    0.14142   0.14682   0.15148   0.15528   0.16193

 Mulliken charges:
               1
     1  P    0.507430
     2  C   -0.150314
     3  C   -0.192314
     4  C   -0.109910
     5  C   -0.192800
     6  C   -0.134759
     7  C   -0.175820
     8  C   -0.067079
     9  C   -0.159628
    10  C   -0.112987
    11  C   -0.121491
    12  C   -0.115319
    13  C   -0.143108
    14  C   -0.640356
    15  H    0.203736
    16  H    0.161063
    17  H    0.215653
    18  H    0.087315
    19  H    0.100154
    20  H    0.085476
    21  H    0.093453
    22  H    0.089950
    23  H    0.148056
    24  H    0.149085
    25  H    0.153127
    26  H    0.152414
    27  H    0.168973
 Sum of Mulliken charges =  -0.00000

 Dipole moment (field-independent basis, Debye):
    X=             -7.0114    Y=              2.3414    Z=             -0.4366  Tot=              7.4049
 Quadrupole moment (field-independent basis, Debye-Ang):
   XX=            -91.9196   YY=            -83.0682   ZZ=            -86.8637
   XY=              6.4538   XZ=             -4.1103   YZ=              1.5639

 Summary of Natural Population Analysis:

                                       Natural Population
                Natural  -----------------------------------------------
    Atom  No    Charge         Core      Valence    Rydberg      Total
 -----------------------------------------------------------------------
      P    1    1.25999      9.99755     3.69257    0.04989    13.74001
      C    2   -0.53827      1.99883     4.51452    0.02492     6.53827
      C    3   -0.30984      1.99898     4.29109    0.01977     6.30984
      C    4   -0.21948      1.99908     4.20595    0.01445     6.21948
      C    5   -0.34756      1.99910     4.33067    0.01779     6.34756
      C    6   -0.26953      1.99910     4.25449    0.01594     6.26953
      C    7   -0.23975      1.99902     4.22467    0.01606     6.23975
      C    8   -0.37065      1.99892     4.34849    0.02324     6.37065
      C    9   -0.21165      1.99900     4.19730    0.01535     6.21165
      C   10   -0.22552      1.99910     4.21218    0.01424     6.22552
      C   11   -0.19001      1.99909     4.17685    0.01406     6.19001
      C   12   -0.23275      1.99910     4.21948    0.01417     6.23275
      C   13   -0.18253      1.99902     4.16711    0.01640     6.18253
      C   14   -1.03466      1.99946     5.02410    0.01111     7.03466
      H   15    0.27450      0.00000     0.72481    0.00069     0.72550
      H   16    0.23977      0.00000     0.75840    0.00183     0.76023
      H   17    0.27674      0.00000     0.72217    0.00109     0.72326
      H   18    0.21296      0.00000     0.78598    0.00106     0.78704
      H   19    0.22423      0.00000     0.77491    0.00086     0.77577
      H   20    0.21567      0.00000     0.78356    0.00078     0.78433
      H   21    0.22041      0.00000     0.77873    0.00086     0.77959
      H   22    0.21173      0.00000     0.78754    0.00073     0.78827
      H   23    0.24187      0.00000     0.75690    0.00123     0.75813
      H   24    0.24608      0.00000     0.75308    0.00083     0.75392
      H   25    0.24449      0.00000     0.75472    0.00079     0.75551
      H   26    0.24842      0.00000     0.75080    0.00078     0.75158
      H   27    0.25532      0.00000     0.74309    0.00159     0.74468
 =======================================================================
   * Total *   -0.00000     35.98536    69.73413    0.28052   106.00000

 Normal termination of Gaussian 16 at Wed Feb 27 04:16:44 2019.
