 Gaussian 16, Revision A.03,

 ---------------------------------
 # opt=CalcFc B3LYP/6-31G* scf=xqc
 ---------------------------------

 -------------------
 Title Card Required
 -------------------
 Symbolic Z-matrix:
 Charge =  0 Multiplicity = 1

 SCF Done:  E(RB3LYP) =  -844.564329546     A.U. after   14 cycles
 SCF Done:  E(RB3LYP) =  -844.564329555     A.U. after    7 cycles
 Optimization completed.
    -- Stationary point found.
 Normal termination of Gaussian 16 at Thu Mar  7 06:05:38 2019.

 ----------------------------------------------------------------------
 # freq B3LYP/6-31G* volume NMR pop=NPA density=current Geom=AllCheck G
 uess=Read
 ----------------------------------------------------------------------

 Structure from the checkpoint file:  "direct_arylation_ligand_62_conf142.chk"
 -------------------
 Title Card Required
 -------------------
 Charge =  0 Multiplicity = 1

 SCF Done:  E(RB3LYP) =  -844.564329555     A.U. after    1 cycles

      1  P    Isotropic =   385.0726   Anisotropy =    60.2448

      2  C    Isotropic =    51.8697   Anisotropy =   182.8462

      3  C    Isotropic =    60.5063   Anisotropy =   159.8411

      4  C    Isotropic =    69.1694   Anisotropy =   163.2074

      5  C    Isotropic =    67.5058   Anisotropy =   168.3005

      6  C    Isotropic =    68.2791   Anisotropy =   164.2389

      7  C    Isotropic =    62.8754   Anisotropy =   171.1475

      8  C    Isotropic =    52.7878   Anisotropy =   183.2142

      9  C    Isotropic =    67.9821   Anisotropy =   167.4366

     10  C    Isotropic =    68.8482   Anisotropy =   164.0559

     11  C    Isotropic =    69.4145   Anisotropy =   165.2697

     12  C    Isotropic =    68.8100   Anisotropy =   164.5512

     13  C    Isotropic =    62.6049   Anisotropy =   166.8346

     14  C    Isotropic =   173.0287   Anisotropy =    19.3272

     15  H    Isotropic =    31.0016   Anisotropy =     8.5256

     16  H    Isotropic =    30.7452   Anisotropy =    10.5227

     17  H    Isotropic =    30.7060   Anisotropy =     7.2636

     18  H    Isotropic =    24.4817   Anisotropy =     7.9897

     19  H    Isotropic =    24.9616   Anisotropy =     4.4623

     20  H    Isotropic =    25.0153   Anisotropy =     3.8946

     21  H    Isotropic =    25.0795   Anisotropy =     5.9090

     22  H    Isotropic =    25.1718   Anisotropy =    11.3362

     23  H    Isotropic =    24.8797   Anisotropy =     9.9826

     24  H    Isotropic =    24.9265   Anisotropy =     4.8984

     25  H    Isotropic =    25.0796   Anisotropy =     3.7302

     26  H    Isotropic =    25.0471   Anisotropy =     4.9717

     27  H    Isotropic =    24.9781   Anisotropy =    10.0499

  Exact polarizability: 201.371   1.868 138.252 -20.876  -1.682 117.925
 Approx polarizability: 285.410   3.909 225.355 -48.281  -5.097 209.273

                      1                      2                      3
                      A                      A                      A
 Frequencies --     19.6585                29.9446                55.9400
 Red. masses --      3.7896                 3.8333                 5.0668
 Frc consts  --      0.0009                 0.0020                 0.0093
 IR Inten    --      0.2501                 0.0667                 0.0708

                      4                      5                      6
                      A                      A                      A
 Frequencies --    117.5778               178.5475               186.9089
 Red. masses --      3.3695                 3.4613                 3.6211
 Frc consts  --      0.0274                 0.0650                 0.0745
 IR Inten    --      0.5137                 0.7294                 0.2038

                      7                      8                      9
                      A                      A                      A
 Frequencies --    233.3251               246.3813               267.1265
 Red. masses --      1.8298                 1.6582                 3.6687
 Frc consts  --      0.0587                 0.0593                 0.1542
 IR Inten    --      0.4883                 0.3057                 0.1576

                     10                     11                     12
                      A                      A                      A
 Frequencies --    323.1958               396.5592               408.1560
 Red. masses --      4.4975                 5.9074                 3.1697
 Frc consts  --      0.2768                 0.5473                 0.3111
 IR Inten    --      2.2784                 2.7508                 2.8918

                     13                     14                     15
                      A                      A                      A
 Frequencies --    412.6965               419.7834               488.2732
 Red. masses --      3.0647                 6.9748                 3.5146
 Frc consts  --      0.3075                 0.7242                 0.4937
 IR Inten    --      0.6198                 8.2518                10.4583

                     16                     17                     18
                      A                      A                      A
 Frequencies --    515.9363               632.6630               633.0545
 Red. masses --      3.9375                 6.4093                 6.4012
 Frc consts  --      0.6175                 1.5115                 1.5114
 IR Inten    --     12.4242                 0.1767                 0.0923

                     19                     20                     21
                      A                      A                      A
 Frequencies --    674.2398               702.6888               705.0863
 Red. masses --      5.3394                 6.1941                 4.9214
 Frc consts  --      1.4301                 1.8020                 1.4415
 IR Inten    --      8.3394                 0.9804                 3.2604

                     22                     23                     24
                      A                      A                      A
 Frequencies --    712.0462               713.7119               757.4333
 Red. masses --      2.2699                 2.0653                 1.5779
 Frc consts  --      0.6781                 0.6198                 0.5333
 IR Inten    --     20.8337                26.9303                35.5737

                     25                     26                     27
                      A                      A                      A
 Frequencies --    763.0330               861.1804               867.3769
 Red. masses --      1.7189                 1.2514                 1.2452
 Frc consts  --      0.5896                 0.5468                 0.5520
 IR Inten    --     13.6448                 0.1856                 0.0193

                     28                     29                     30
                      A                      A                      A
 Frequencies --    910.2584               919.8529               922.6454
 Red. masses --      1.3086                 1.2937                 1.3544
 Frc consts  --      0.6388                 0.6449                 0.6793
 IR Inten    --     24.9495                28.3947                 1.4296

                     31                     32                     33
                      A                      A                      A
 Frequencies --    936.7015               969.7274               977.1873
 Red. masses --      1.3619                 1.3597                 1.3601
 Frc consts  --      0.7040                 0.7534                 0.7652
 IR Inten    --      4.6245                 0.0627                 0.1022

                     34                     35                     36
                      A                      A                      A
 Frequencies --    996.8351              1001.2379              1015.2371
 Red. masses --      1.2506                 1.2591                 6.2349
 Frc consts  --      0.7322                 0.7437                 3.7863
 IR Inten    --      0.1419                 0.0537                 1.2331

                     37                     38                     39
                      A                      A                      A
 Frequencies --   1015.9825              1052.1457              1054.4471
 Red. masses --      6.2493                 3.2219                 3.1933
 Frc consts  --      3.8006                 2.1015                 2.0919
 IR Inten    --      2.5444                 1.0742                 1.1868

                     40                     41                     42
                      A                      A                      A
 Frequencies --   1106.2694              1112.2017              1113.0490
 Red. masses --      1.7291                 1.7333                 2.4342
 Frc consts  --      1.2468                 1.2632                 1.7768
 IR Inten    --      1.6956                 2.4133                13.3221

                     43                     44                     45
                      A                      A                      A
 Frequencies --   1117.9832              1193.4829              1194.2044
 Red. masses --      2.5284                 1.1026                 1.0987
 Frc consts  --      1.8620                 0.9254                 0.9232
 IR Inten    --      2.1474                 0.0064                 0.0647

                     46                     47                     48
                      A                      A                      A
 Frequencies --   1216.9041              1223.4340              1323.7515
 Red. masses --      1.1444                 1.1502                 3.2574
 Frc consts  --      0.9985                 1.0143                 3.3631
 IR Inten    --      3.9181                 0.6685                 2.3615

                     49                     50                     51
                      A                      A                      A
 Frequencies --   1331.6661              1351.3869              1363.1557
 Red. masses --      3.3532                 1.2958                 1.7088
 Frc consts  --      3.5035                 1.3943                 1.8708
 IR Inten    --      2.8864                 2.1915                 1.4899

                     52                     53                     54
                      A                      A                      A
 Frequencies --   1371.5839              1479.5012              1482.4652
 Red. masses --      1.5139                 2.0991                 2.0753
 Frc consts  --      1.6780                 2.7071                 2.6872
 IR Inten    --      2.1498                12.2425                 5.4958

                     55                     56                     57
                      A                      A                      A
 Frequencies --   1501.1069              1502.2065              1530.8726
 Red. masses --      1.0620                 1.0627                 2.0236
 Frc consts  --      1.4099                 1.4129                 2.7941
 IR Inten    --      4.2157                16.6936                 4.9313

                     58                     59                     60
                      A                      A                      A
 Frequencies --   1534.8441              1630.0412              1632.4692
 Red. masses --      1.9732                 5.0204                 5.1792
 Frc consts  --      2.7387                 7.8593                 8.1321
 IR Inten    --      6.4922                 1.1121                 0.2817

                     61                     62                     63
                      A                      A                      A
 Frequencies --   1646.7292              1649.4825              3049.4823
 Red. masses --      5.3166                 5.2603                 1.0329
 Frc consts  --      8.4943                 8.4325                 5.6592
 IR Inten    --      1.7922                 3.4200                12.5550

                     64                     65                     66
                      A                      A                      A
 Frequencies --   3131.3049              3138.0883              3174.8635
 Red. masses --      1.1045                 1.1020                 1.0855
 Frc consts  --      6.3805                 6.3940                 6.4465
 IR Inten    --     12.2636                 8.6830                 3.7896

                     67                     68                     69
                      A                      A                      A
 Frequencies --   3176.3214              3181.6152              3182.0178
 Red. masses --      1.0847                 1.0871                 1.0872
 Frc consts  --      6.4480                 6.4835                 6.4859
 IR Inten    --      1.4533                 0.5338                 0.2225

                     70                     71                     72
                      A                      A                      A
 Frequencies --   3190.9759              3192.1143              3198.2181
 Red. masses --      1.0907                 1.0916                 1.0939
 Frc consts  --      6.5432                 6.5537                 6.5927
 IR Inten    --      9.6912                21.0464                33.3486

                     73                     74                     75
                      A                      A                      A
 Frequencies --   3203.7136              3207.1118              3210.6115
 Red. masses --      1.0936                 1.0979                 1.0954
 Frc consts  --      6.6135                 6.6536                 6.6527
 IR Inten    --     34.2090                31.3243                18.4721

 - Thermochemistry -
 -------------------
 Temperature   298.150 Kelvin.  Pressure   1.00000 Atm.
 Atom     1 has atomic number 15 and mass  30.97376

 Molecular mass:   200.07549 amu.
 Principal axes and moments of inertia in atomic units:
                           1         2         3
     Eigenvalues --  1569.889844673.593845299.37515
           X            0.99999   0.00072  -0.00543
           Y           -0.00047   0.99898   0.04516
           Z            0.00545  -0.04515   0.99897
 This molecule is an asymmetric top.
 Rotational symmetry number  1.
 Warning -- assumption of classical behavior for rotation
           may cause significant error
 Rotational temperatures (Kelvin)      0.05517     0.01853     0.01634
 Rotational constants (GHZ):           1.14960     0.38616     0.34056
 Zero-point vibrational energy     579830.0 (Joules/Mol)
                                  138.58271 (Kcal/Mol)
 Warning -- explicit consideration of  16 degrees of freedom as
           vibrations may cause significant error
 Vibrational temperatures:     28.28    43.08    80.49   169.17   256.89
          (Kelvin)            268.92   335.70   354.49   384.34   465.01
                              570.56   587.25   593.78   603.97   702.52
                              742.32   910.26   910.82   970.08  1011.01
                             1014.46  1024.48  1026.87  1089.78  1097.83
                             1239.05  1247.96  1309.66  1323.46  1327.48
                             1347.70  1395.22  1405.95  1434.22  1440.56
                             1460.70  1461.77  1513.80  1517.11  1591.67
                             1600.21  1601.43  1608.53  1717.16  1718.19
                             1750.85  1760.25  1904.58  1915.97  1944.34
                             1961.28  1973.40  2128.67  2132.94  2159.76
                             2161.34  2202.58  2208.30  2345.27  2348.76
                             2369.28  2373.24  4387.52  4505.25  4515.01
                             4567.92  4570.02  4577.63  4578.21  4591.10
                             4592.74  4601.52  4609.43  4614.32  4619.35

 Zero-point correction=                           0.220846 (Hartree/Particle)
 Thermal correction to Energy=                    0.233542
 Thermal correction to Enthalpy=                  0.234486
 Thermal correction to Gibbs Free Energy=         0.179769
 Sum of electronic and zero-point Energies=           -844.343484
 Sum of electronic and thermal Energies=              -844.330788
 Sum of electronic and thermal Enthalpies=            -844.329844
 Sum of electronic and thermal Free Energies=         -844.384560

                     E (Thermal)             CV                S
                      KCal/Mol        Cal/Mol-Kelvin    Cal/Mol-Kelvin
 Total                  146.550             49.332            115.160
 Electronic               0.000              0.000              0.000
 Translational            0.889              2.981             41.785
 Rotational               0.889              2.981             32.031
 Vibrational            144.772             43.370             41.345
 Vibration     1          0.593              1.986              6.668
 Vibration     2          0.594              1.984              5.833
 Vibration     3          0.596              1.975              4.596
 Vibration     4          0.608              1.935              3.140
 Vibration     5          0.629              1.869              2.344
 Vibration     6          0.632              1.858              2.258
 Vibration     7          0.654              1.790              1.853
 Vibration     8          0.661              1.769              1.756
 Vibration     9          0.672              1.733              1.615
 Vibration    10          0.708              1.629              1.294
 Vibration    11          0.763              1.478              0.975
 Vibration    12          0.773              1.453              0.933
 Vibration    13          0.776              1.443              0.917
 Vibration    14          0.782              1.427              0.893
 Vibration    15          0.844              1.276              0.688
 Vibration    16          0.871              1.215              0.619

 Optimization completed.
    -- Stationary point found.
 Normal termination of Gaussian 16 at Thu Mar  7 06:10:39 2019.
 Gaussian 16:  ES64L-G16RevA.03 25-Dec-2016

 ----------------------------------------------------------------------
 # TD(NStates=10, Root=1) B3LYP/6-31G* volume pop=NPA density=current G
 eom=AllCheck Guess=Read
 ----------------------------------------------------------------------

 Structure from the checkpoint file:  "direct_arylation_ligand_62_conf143.chk"
 -------------------
 Title Card Required
 -------------------
 Charge =  0 Multiplicity = 1

                         Standard orientation:
 ---------------------------------------------------------------------
 Center     Atomic      Atomic             Coordinates (Angstroms)
 Number     Number       Type             X           Y           Z
 ---------------------------------------------------------------------
      1         15           0        0.036730    1.368952   -0.701858
      2          6           0        1.438368    0.263159   -0.190167
      3          6           0        2.620524    0.317232   -0.943116
      4          6           0        3.728598   -0.458114   -0.592861
      5          6           0        3.664038   -1.307082    0.512011
      6          6           0        2.489135   -1.377205    1.265691
      7          6           0        1.386203   -0.597938    0.917925
      8          6           0       -1.434458    0.319054   -0.299769
      9          6           0       -2.400112    0.658085    0.659567
     10          6           0       -3.530271   -0.141749    0.852656
     11          6           0       -3.712770   -1.296781    0.093931
     12          6           0       -2.760384   -1.645809   -0.867663
     13          6           0       -1.640435   -0.842028   -1.067118
     14          6           0        0.056620    2.585792    0.714009
     15          1           0        0.994759    3.146584    0.656790
     16          1           0       -0.766288    3.300131    0.605841
     17          1           0       -0.004395    2.109237    1.698424
     18          1           0        2.670662    0.968742   -1.812467
     19          1           0        4.637187   -0.403341   -1.187046
     20          1           0        4.522513   -1.916018    0.783411
     21          1           0        2.432745   -2.041004    2.124873
     22          1           0        0.473924   -0.666129    1.504784
     23          1           0       -2.280175    1.549975    1.266983
     24          1           0       -4.265760    0.140388    1.601964
     25          1           0       -4.590654   -1.919061    0.245923
     26          1           0       -2.894038   -2.542821   -1.466971
     27          1           0       -0.911772   -1.120643   -1.825200
 ---------------------------------------------------------------------

 SCF Done:  E(RB3LYP) =  -844.564329555     A.U. after    1 cycles

 Excitation energies and oscillator strengths:

 Excited State   1:      Singlet-A      4.6039 eV  269.31 nm  f=0.0435  <S**2>=0.000
      53 -> 54         0.68723
      53 -> 55         0.11741
 This state for optimization and/or second-order correction.
 Total Energy, E(TD-HF/TD-DFT) =  -844.395140960
 Copying the excited state density for this state as the 1-particle RhoCI density.

 Excited State   2:      Singlet-A      4.8957 eV  253.25 nm  f=0.0129  <S**2>=0.000
      51 -> 55        -0.10653
      52 -> 54         0.13694
      52 -> 55        -0.11082
      53 -> 55         0.22384
      53 -> 56         0.62622

 Excited State   3:      Singlet-A      5.0081 eV  247.57 nm  f=0.1456  <S**2>=0.000
      53 -> 54        -0.10807
      53 -> 55         0.61717
      53 -> 56        -0.19985
      53 -> 57         0.18818

 Excited State   4:      Singlet-A      5.1447 eV  240.99 nm  f=0.0379  <S**2>=0.000
      50 -> 55        -0.12102
      51 -> 54        -0.20889
      52 -> 55         0.13445
      52 -> 56        -0.10055
      53 -> 55        -0.16870
      53 -> 56         0.12441
      53 -> 57         0.59542

 Excited State   5:      Singlet-A      5.4215 eV  228.69 nm  f=0.0047  <S**2>=0.000
      50 -> 55         0.19232
      50 -> 56         0.26451
      50 -> 57         0.20853
      51 -> 54         0.36807
      51 -> 55         0.15873
      52 -> 54        -0.31131
      52 -> 56         0.15544
      52 -> 57         0.12163
      53 -> 56         0.12026
      53 -> 57         0.16400

 Excited State   6:      Singlet-A      5.7387 eV  216.05 nm  f=0.0117  <S**2>=0.000
      49 -> 56        -0.20588
      49 -> 57         0.15915
      50 -> 54        -0.15949
      51 -> 54         0.32346
      52 -> 54         0.48511
      53 -> 57         0.18603

 Excited State   7:      Singlet-A      5.8270 eV  212.78 nm  f=0.0124  <S**2>=0.000
      49 -> 56         0.24829
      49 -> 57        -0.17994
      51 -> 54         0.14231
      51 -> 55         0.13199
      51 -> 56        -0.11204
      52 -> 54         0.18661
      52 -> 55         0.51482
      53 -> 57        -0.14812

 Excited State   8:      Singlet-A      5.8572 eV  211.68 nm  f=0.0220  <S**2>=0.000
      49 -> 54         0.18059
      49 -> 56         0.10113
      50 -> 54         0.46223
      50 -> 55        -0.34301
      50 -> 56         0.16427
      51 -> 56        -0.10983
      52 -> 54         0.14558
      52 -> 56         0.19499

 Excited State   9:      Singlet-A      5.9280 eV  209.15 nm  f=0.0005  <S**2>=0.000
      50 -> 54        -0.16588
      51 -> 54        -0.20664
      51 -> 55         0.57150
      51 -> 56        -0.12196
      52 -> 55        -0.21533
      52 -> 56         0.13299

 Excited State  10:      Singlet-A      5.9925 eV  206.90 nm  f=0.0264  <S**2>=0.000
      49 -> 54         0.31193
      50 -> 54         0.20322
      50 -> 55         0.45947
      50 -> 56        -0.17114
      51 -> 54        -0.13428
      51 -> 56        -0.16764
      52 -> 55         0.12332
      52 -> 56         0.14972

 The electronic state is 1-A.
 Alpha  occ. eigenvalues --  -77.07968 -10.19393 -10.19299 -10.19192 -10.19093
 Alpha  occ. eigenvalues --  -10.19069 -10.19059 -10.19011 -10.19001 -10.18964
 Alpha  occ. eigenvalues --  -10.18942 -10.18899 -10.18857 -10.18421  -6.54710
 Alpha  occ. eigenvalues --   -4.70976  -4.70963  -4.70459  -0.85270  -0.84774
 Alpha  occ. eigenvalues --   -0.76468  -0.74321  -0.74256  -0.73796  -0.70921
 Alpha  occ. eigenvalues --   -0.62338  -0.60252  -0.59977  -0.59281  -0.55060
 Alpha  occ. eigenvalues --   -0.51448  -0.49651  -0.45409  -0.44649  -0.44597
 Alpha  occ. eigenvalues --   -0.44242  -0.42401  -0.42079  -0.41685  -0.41109
 Alpha  occ. eigenvalues --   -0.38955  -0.37871  -0.36382  -0.36120  -0.34369
 Alpha  occ. eigenvalues --   -0.34239  -0.32560  -0.31576  -0.26446  -0.25180
 Alpha  occ. eigenvalues --   -0.25018  -0.24725  -0.21380
 Alpha virt. eigenvalues --   -0.01530  -0.00807  -0.00420   0.00542   0.06284
 Alpha virt. eigenvalues --    0.07174   0.09234   0.10908   0.12717   0.13594
 Alpha virt. eigenvalues --    0.14142   0.14681   0.15149   0.15528   0.16193

 Mulliken charges:
               1
     1  P    0.507426
     2  C   -0.150300
     3  C   -0.175815
     4  C   -0.134753
     5  C   -0.192779
     6  C   -0.109914
     7  C   -0.192304
     8  C   -0.067115
     9  C   -0.159618
    10  C   -0.112997
    11  C   -0.121510
    12  C   -0.115322
    13  C   -0.143115
    14  C   -0.640347
    15  H    0.203722
    16  H    0.161065
    17  H    0.215659
    18  H    0.089964
    19  H    0.093467
    20  H    0.085493
    21  H    0.100168
    22  H    0.087347
    23  H    0.148045
    24  H    0.149074
    25  H    0.153109
    26  H    0.152400
    27  H    0.168951
 Sum of Mulliken charges =  -0.00000

 Dipole moment (field-independent basis, Debye):
    X=             -7.0076    Y=              2.3417    Z=             -0.4368  Tot=              7.4014
 Quadrupole moment (field-independent basis, Debye-Ang):
   XX=            -91.9185   YY=            -83.0688   ZZ=            -86.8643
   XY=              6.4525   XZ=             -4.1103   YZ=              1.5631

 Summary of Natural Population Analysis:

                                       Natural Population
                Natural  -----------------------------------------------
    Atom  No    Charge         Core      Valence    Rydberg      Total
 -----------------------------------------------------------------------
      P    1    1.25999      9.99755     3.69257    0.04989    13.74001
      C    2   -0.53822      1.99883     4.51447    0.02492     6.53822
      C    3   -0.23974      1.99902     4.22466    0.01606     6.23974
      C    4   -0.26952      1.99910     4.25448    0.01594     6.26952
      C    5   -0.34751      1.99910     4.33062    0.01779     6.34751
      C    6   -0.21949      1.99908     4.20595    0.01445     6.21949
      C    7   -0.30981      1.99898     4.29105    0.01977     6.30981
      C    8   -0.37070      1.99892     4.34854    0.02324     6.37070
      C    9   -0.21166      1.99900     4.19730    0.01535     6.21166
      C   10   -0.22552      1.99910     4.21219    0.01424     6.22552
      C   11   -0.19005      1.99909     4.17690    0.01406     6.19005
      C   12   -0.23275      1.99910     4.21947    0.01417     6.23275
      C   13   -0.18256      1.99902     4.16714    0.01640     6.18256
      C   14   -1.03465      1.99946     5.02409    0.01111     7.03465
      H   15    0.27449      0.00000     0.72482    0.00069     0.72551
      H   16    0.23977      0.00000     0.75840    0.00183     0.76023
      H   17    0.27674      0.00000     0.72216    0.00109     0.72326
      H   18    0.21174      0.00000     0.78753    0.00073     0.78826
      H   19    0.22042      0.00000     0.77872    0.00086     0.77958
      H   20    0.21567      0.00000     0.78355    0.00078     0.78433
      H   21    0.22424      0.00000     0.77490    0.00086     0.77576
      H   22    0.21298      0.00000     0.78596    0.00106     0.78702
      H   23    0.24186      0.00000     0.75691    0.00123     0.75814
      H   24    0.24608      0.00000     0.75309    0.00083     0.75392
      H   25    0.24448      0.00000     0.75473    0.00079     0.75552
      H   26    0.24842      0.00000     0.75081    0.00078     0.75158
      H   27    0.25531      0.00000     0.74310    0.00159     0.74469
 =======================================================================
   * Total *   -0.00000     35.98536    69.73412    0.28052   106.00000

 Normal termination of Gaussian 16 at Thu Mar  7 06:16:19 2019.
