 Gaussian 16, Revision A.03,

 ---------------------------------
 # opt=CalcFc B3LYP/6-31G* scf=xqc
 ---------------------------------

 -------------------
 Title Card Required
 -------------------
 Symbolic Z-matrix:
 Charge =  0 Multiplicity = 1

 SCF Done:  E(RB3LYP) =  -844.559811627     A.U. after   14 cycles
 SCF Done:  E(RB3LYP) =  -844.563819421     A.U. after   14 cycles
 SCF Done:  E(RB3LYP) =  -844.563192803     A.U. after   14 cycles
 SCF Done:  E(RB3LYP) =  -844.564114837     A.U. after   13 cycles
 SCF Done:  E(RB3LYP) =  -844.564246042     A.U. after   11 cycles
 SCF Done:  E(RB3LYP) =  -844.564297937     A.U. after   12 cycles
 SCF Done:  E(RB3LYP) =  -844.564311129     A.U. after   10 cycles
 SCF Done:  E(RB3LYP) =  -844.564324079     A.U. after   11 cycles
 SCF Done:  E(RB3LYP) =  -844.564327848     A.U. after    8 cycles
 SCF Done:  E(RB3LYP) =  -844.564329393     A.U. after   10 cycles
 SCF Done:  E(RB3LYP) =  -844.564329543     A.U. after    7 cycles
 Optimization completed.
    -- Stationary point found.
 Normal termination of Gaussian 16 at Wed Feb 27 03:58:09 2019.

 ----------------------------------------------------------------------
 # freq B3LYP/6-31G* volume NMR pop=NPA density=current Geom=AllCheck G
 uess=Read
 ----------------------------------------------------------------------

 Structure from the checkpoint file:  "direct_arylation_ligand_62_conf272.chk"
 -------------------
 Title Card Required
 -------------------
 Charge =  0 Multiplicity = 1

 SCF Done:  E(RB3LYP) =  -844.564329543     A.U. after    1 cycles

      1  P    Isotropic =   385.0675   Anisotropy =    60.2461

      2  C    Isotropic =    52.7810   Anisotropy =   183.2206

      3  C    Isotropic =    62.6089   Anisotropy =   166.8347

      4  C    Isotropic =    68.8102   Anisotropy =   164.5515

      5  C    Isotropic =    69.4146   Anisotropy =   165.2693

      6  C    Isotropic =    68.8482   Anisotropy =   164.0558

      7  C    Isotropic =    67.9792   Anisotropy =   167.4367

      8  C    Isotropic =    51.8689   Anisotropy =   182.8539

      9  C    Isotropic =    62.8723   Anisotropy =   171.1514

     10  C    Isotropic =    68.2800   Anisotropy =   164.2389

     11  C    Isotropic =    67.5051   Anisotropy =   168.3000

     12  C    Isotropic =    69.1689   Anisotropy =   163.2080

     13  C    Isotropic =    60.5080   Anisotropy =   159.8384

     14  C    Isotropic =   173.0205   Anisotropy =    19.3332

     15  H    Isotropic =    30.7451   Anisotropy =    10.5228

     16  H    Isotropic =    31.0015   Anisotropy =     8.5249

     17  H    Isotropic =    30.7059   Anisotropy =     7.2627

     18  H    Isotropic =    24.9784   Anisotropy =    10.0498

     19  H    Isotropic =    25.0471   Anisotropy =     4.9716

     20  H    Isotropic =    25.0796   Anisotropy =     3.7301

     21  H    Isotropic =    24.9265   Anisotropy =     4.8983

     22  H    Isotropic =    24.8796   Anisotropy =     9.9837

     23  H    Isotropic =    25.1718   Anisotropy =    11.3379

     24  H    Isotropic =    25.0796   Anisotropy =     5.9093

     25  H    Isotropic =    25.0153   Anisotropy =     3.8946

     26  H    Isotropic =    24.9616   Anisotropy =     4.4622

     27  H    Isotropic =    24.4816   Anisotropy =     7.9894

  Exact polarizability: 201.361  -1.872 138.263  20.882  -1.681 117.921
 Approx polarizability: 285.400  -3.919 225.376  48.288  -5.099 209.267

                      1                      2                      3
                      A                      A                      A
 Frequencies --     19.7225                29.9867                55.9604
 Red. masses --      3.7896                 3.8337                 5.0658
 Frc consts  --      0.0009                 0.0020                 0.0093
 IR Inten    --      0.2501                 0.0665                 0.0708

                      4                      5                      6
                      A                      A                      A
 Frequencies --    117.6013               178.5878               186.9415
 Red. masses --      3.3696                 3.4622                 3.6217
 Frc consts  --      0.0275                 0.0651                 0.0746
 IR Inten    --      0.5138                 0.7294                 0.2040

                      7                      8                      9
                      A                      A                      A
 Frequencies --    233.3358               246.4611               267.1400
 Red. masses --      1.8331                 1.6559                 3.6656
 Frc consts  --      0.0588                 0.0593                 0.1541
 IR Inten    --      0.4892                 0.3045                 0.1578

                     10                     11                     12
                      A                      A                      A
 Frequencies --    323.1919               396.5770               408.1591
 Red. masses --      4.4969                 5.9065                 3.1702
 Frc consts  --      0.2767                 0.5473                 0.3112
 IR Inten    --      2.2776                 2.7478                 2.8957

                     13                     14                     15
                      A                      A                      A
 Frequencies --    412.6995               419.7771               488.2757
 Red. masses --      3.0650                 6.9722                 3.5146
 Frc consts  --      0.3076                 0.7239                 0.4937
 IR Inten    --      0.6202                 8.2453                10.4573

                     16                     17                     18
                      A                      A                      A
 Frequencies --    515.9434               632.6624               633.0542
 Red. masses --      3.9374                 6.4091                 6.4012
 Frc consts  --      0.6175                 1.5114                 1.5115
 IR Inten    --     12.4225                 0.1778                 0.0922

                     19                     20                     21
                      A                      A                      A
 Frequencies --    674.1692               702.6894               705.0603
 Red. masses --      5.3390                 6.1932                 4.9370
 Frc consts  --      1.4297                 1.8017                 1.4460
 IR Inten    --      8.3591                 0.9821                 3.2348

                     22                     23                     24
                      A                      A                      A
 Frequencies --    712.0487               713.7116               757.4369
 Red. masses --      2.2688                 2.0643                 1.5778
 Frc consts  --      0.6778                 0.6195                 0.5333
 IR Inten    --     20.8807                26.8759                35.5782

                     25                     26                     27
                      A                      A                      A
 Frequencies --    763.0362               861.1884               867.3917
 Red. masses --      1.7187                 1.2514                 1.2452
 Frc consts  --      0.5896                 0.5468                 0.5520
 IR Inten    --     13.6487                 0.1859                 0.0192

                     28                     29                     30
                      A                      A                      A
 Frequencies --    910.2548               919.8456               922.6480
 Red. masses --      1.3085                 1.2937                 1.3544
 Frc consts  --      0.6388                 0.6449                 0.6793
 IR Inten    --     24.9223                28.4058                 1.4333

                     31                     32                     33
                      A                      A                      A
 Frequencies --    936.7077               969.7312               977.1966
 Red. masses --      1.3619                 1.3597                 1.3601
 Frc consts  --      0.7040                 0.7534                 0.7652
 IR Inten    --      4.6209                 0.0625                 0.1025

                     34                     35                     36
                      A                      A                      A
 Frequencies --    996.8346              1001.2390              1015.2362
 Red. masses --      1.2506                 1.2591                 6.2351
 Frc consts  --      0.7322                 0.7437                 3.7864
 IR Inten    --      0.1421                 0.0538                 1.2327

                     37                     38                     39
                      A                      A                      A
 Frequencies --   1015.9827              1052.1406              1054.4415
 Red. masses --      6.2489                 3.2215                 3.1934
 Frc consts  --      3.8004                 2.1012                 2.0919
 IR Inten    --      2.5426                 1.0755                 1.1868

                     40                     41                     42
                      A                      A                      A
 Frequencies --   1106.2790              1112.2012              1113.0467
 Red. masses --      1.7287                 1.7326                 2.4375
 Frc consts  --      1.2465                 1.2628                 1.7792
 IR Inten    --      1.6937                 2.3676                13.3653

                     43                     44                     45
                      A                      A                      A
 Frequencies --   1117.9872              1193.4773              1194.2008
 Red. masses --      2.5273                 1.1027                 1.0987
 Frc consts  --      1.8612                 0.9254                 0.9232
 IR Inten    --      2.1498                 0.0064                 0.0647

                     46                     47                     48
                      A                      A                      A
 Frequencies --   1216.9051              1223.4346              1323.7522
 Red. masses --      1.1444                 1.1502                 3.2581
 Frc consts  --      0.9985                 1.0144                 3.3637
 IR Inten    --      3.9198                 0.6685                 2.3611

                     49                     50                     51
                      A                      A                      A
 Frequencies --   1331.6714              1351.3481              1363.1612
 Red. masses --      3.3534                 1.2957                 1.7086
 Frc consts  --      3.5038                 1.3941                 1.8706
 IR Inten    --      2.8833                 2.1945                 1.4901

                     52                     53                     54
                      A                      A                      A
 Frequencies --   1371.5835              1479.5061              1482.4723
 Red. masses --      1.5139                 2.0992                 2.0754
 Frc consts  --      1.6780                 2.7073                 2.6874
 IR Inten    --      2.1461                12.2379                 5.4996

                     55                     56                     57
                      A                      A                      A
 Frequencies --   1501.1040              1502.2060              1530.8717
 Red. masses --      1.0619                 1.0628                 2.0235
 Frc consts  --      1.4097                 1.4131                 2.7941
 IR Inten    --      4.1731                16.7338                 4.9327

                     58                     59                     60
                      A                      A                      A
 Frequencies --   1534.8396              1630.0310              1632.4596
 Red. masses --      1.9731                 5.0202                 5.1792
 Frc consts  --      2.7385                 7.8590                 8.1320
 IR Inten    --      6.4928                 1.1113                 0.2814

                     61                     62                     63
                      A                      A                      A
 Frequencies --   1646.7315              1649.4800              3049.4620
 Red. masses --      5.3165                 5.2603                 1.0329
 Frc consts  --      8.4942                 8.4324                 5.6591
 IR Inten    --      1.7961                 3.4197                12.5525

                     64                     65                     66
                      A                      A                      A
 Frequencies --   3131.2906              3138.1031              3174.8842
 Red. masses --      1.1045                 1.1020                 1.0855
 Frc consts  --      6.3804                 6.3941                 6.4465
 IR Inten    --     12.2614                 8.6809                 3.7862

                     67                     68                     69
                      A                      A                      A
 Frequencies --   3176.3078              3181.6168              3181.9950
 Red. masses --      1.0847                 1.0871                 1.0872
 Frc consts  --      6.4479                 6.4835                 6.4858
 IR Inten    --      1.4586                 0.5360                 0.2181

                     70                     71                     72
                      A                      A                      A
 Frequencies --   3190.9570              3192.1168              3198.2003
 Red. masses --      1.0907                 1.0916                 1.0939
 Frc consts  --      6.5431                 6.5537                 6.5926
 IR Inten    --      9.6653                21.0211                33.3480

                     73                     74                     75
                      A                      A                      A
 Frequencies --   3203.6973              3207.1049              3210.5816
 Red. masses --      1.0936                 1.0979                 1.0954
 Frc consts  --      6.6133                 6.6536                 6.6527
 IR Inten    --     34.1948                31.3642                18.4949

 - Thermochemistry -
 -------------------
 Temperature   298.150 Kelvin.  Pressure   1.00000 Atm.
 Atom     1 has atomic number 15 and mass  30.97376

 Molecular mass:   200.07549 amu.
 Principal axes and moments of inertia in atomic units:
                           1         2         3
     Eigenvalues --  1570.007964673.029735298.99796
           X            0.99999  -0.00072   0.00536
           Y            0.00047   0.99898   0.04504
           Z           -0.00538  -0.04504   0.99897
 This molecule is an asymmetric top.
 Rotational symmetry number  1.
 Warning -- assumption of classical behavior for rotation
           may cause significant error
 Rotational temperatures (Kelvin)      0.05517     0.01853     0.01635
 Rotational constants (GHZ):           1.14951     0.38620     0.34058
 Zero-point vibrational energy     579830.8 (Joules/Mol)
                                  138.58288 (Kcal/Mol)
 Warning -- explicit consideration of  16 degrees of freedom as
           vibrations may cause significant error
 Vibrational temperatures:     28.38    43.14    80.51   169.20   256.95
          (Kelvin)            268.97   335.72   354.60   384.35   465.00
                              570.59   587.25   593.78   603.97   702.52
                              742.33   910.26   910.82   969.98  1011.01
                             1014.42  1024.48  1026.87  1089.78  1097.84
                             1239.06  1247.98  1309.65  1323.45  1327.48
                             1347.71  1395.23  1405.97  1434.22  1440.56
                             1460.70  1461.77  1513.80  1517.11  1591.69
                             1600.21  1601.43  1608.53  1717.15  1718.19
                             1750.86  1760.25  1904.58  1915.98  1944.29
                             1961.28  1973.40  2128.68  2132.95  2159.75
                             2161.34  2202.58  2208.29  2345.25  2348.75
                             2369.28  2373.23  4387.50  4505.23  4515.03
                             4567.95  4570.00  4577.64  4578.18  4591.08
                             4592.74  4601.50  4609.41  4614.31  4619.31

 Zero-point correction=                           0.220846 (Hartree/Particle)
 Thermal correction to Energy=                    0.233541
 Thermal correction to Enthalpy=                  0.234486
 Thermal correction to Gibbs Free Energy=         0.179775
 Sum of electronic and zero-point Energies=           -844.343484
 Sum of electronic and thermal Energies=              -844.330788
 Sum of electronic and thermal Enthalpies=            -844.329844
 Sum of electronic and thermal Free Energies=         -844.384555

                     E (Thermal)             CV                S
                      KCal/Mol        Cal/Mol-Kelvin    Cal/Mol-Kelvin
 Total                  146.549             49.332            115.149
 Electronic               0.000              0.000              0.000
 Translational            0.889              2.981             41.785
 Rotational               0.889              2.981             32.031
 Vibrational            144.772             43.370             41.333
 Vibration     1          0.593              1.986              6.662
 Vibration     2          0.594              1.984              5.830
 Vibration     3          0.596              1.975              4.595
 Vibration     4          0.608              1.935              3.139
 Vibration     5          0.629              1.869              2.343
 Vibration     6          0.632              1.858              2.258
 Vibration     7          0.654              1.790              1.853
 Vibration     8          0.661              1.769              1.756
 Vibration     9          0.672              1.733              1.615
 Vibration    10          0.708              1.629              1.294
 Vibration    11          0.763              1.477              0.975
 Vibration    12          0.773              1.453              0.933
 Vibration    13          0.776              1.443              0.917
 Vibration    14          0.782              1.427              0.893
 Vibration    15          0.844              1.276              0.688
 Vibration    16          0.871              1.215              0.619

 Optimization completed.
    -- Stationary point found.
 Normal termination of Gaussian 16 at Wed Feb 27 04:03:08 2019.
 Gaussian 16:  ES64L-G16RevA.03 25-Dec-2016

 ----------------------------------------------------------------------
 # TD(NStates=10, Root=1) B3LYP/6-31G* volume pop=NPA density=current G
 eom=AllCheck Guess=Read
 ----------------------------------------------------------------------

 Structure from the checkpoint file:  "direct_arylation_ligand_62_conf273.chk"
 -------------------
 Title Card Required
 -------------------
 Charge =  0 Multiplicity = 1

                         Standard orientation:
 ---------------------------------------------------------------------
 Center     Atomic      Atomic             Coordinates (Angstroms)
 Number     Number       Type             X           Y           Z
 ---------------------------------------------------------------------
      1         15           0       -0.036740    1.369223   -0.701735
      2          6           0        1.434330    0.319086   -0.299719
      3          6           0        1.640299   -0.841958   -1.067114
      4          6           0        2.760250   -1.645743   -0.867677
      5          6           0        3.712583   -1.296811    0.094005
      6          6           0        3.530038   -0.141857    0.852852
      7          6           0        2.399910    0.658009    0.659740
      8          6           0       -1.438283    0.263218   -0.190299
      9          6           0       -1.385953   -0.598104    0.917602
     10          6           0       -2.488801   -1.377536    1.265273
     11          6           0       -3.663762   -1.307326    0.511687
     12          6           0       -3.728474   -0.458092   -0.592988
     13          6           0       -2.620498    0.317426   -0.943142
     14          6           0       -0.056665    2.585791    0.714462
     15          1           0        0.766128    3.300262    0.606285
     16          1           0       -0.994914    3.146421    0.657457
     17          1           0        0.004595    2.109040    1.698771
     18          1           0        0.911626   -1.120536   -1.825194
     19          1           0        2.893922   -2.542714   -1.467042
     20          1           0        4.590447   -1.919119    0.245999
     21          1           0        4.265466    0.140182    1.602259
     22          1           0        2.279884    1.549848    1.267224
     23          1           0       -0.473582   -0.666302    1.504324
     24          1           0       -2.432304   -2.041523    2.124304
     25          1           0       -4.522168   -1.916400    0.782996
     26          1           0       -4.637111   -0.403262   -1.187095
     27          1           0       -2.670732    0.969142   -1.812340
 ---------------------------------------------------------------------

 SCF Done:  E(RB3LYP) =  -844.564329543     A.U. after    1 cycles

 Excitation energies and oscillator strengths:

 Excited State   1:      Singlet-A      4.6041 eV  269.29 nm  f=0.0435  <S**2>=0.000
      53 -> 54         0.68725
      53 -> 55        -0.11731
 This state for optimization and/or second-order correction.
 Total Energy, E(TD-HF/TD-DFT) =  -844.395131319
 Copying the excited state density for this state as the 1-particle RhoCI density.

 Excited State   2:      Singlet-A      4.8958 eV  253.25 nm  f=0.0129  <S**2>=0.000
      51 -> 55         0.10652
      52 -> 54         0.13691
      52 -> 55         0.11088
      53 -> 55        -0.22390
      53 -> 56         0.62618

 Excited State   3:      Singlet-A      5.0083 eV  247.56 nm  f=0.1456  <S**2>=0.000
      53 -> 54         0.10798
      53 -> 55         0.61715
      53 -> 56         0.19993
      53 -> 57        -0.18818

 Excited State   4:      Singlet-A      5.1449 eV  240.99 nm  f=0.0379  <S**2>=0.000
      50 -> 55         0.12110
      51 -> 54        -0.20901
      52 -> 55        -0.13448
      52 -> 56        -0.10066
      53 -> 55         0.16872
      53 -> 56         0.12437
      53 -> 57         0.59534

 Excited State   5:      Singlet-A      5.4215 eV  228.69 nm  f=0.0047  <S**2>=0.000
      50 -> 55        -0.19225
      50 -> 56         0.26446
      50 -> 57         0.20851
      51 -> 54         0.36800
      51 -> 55        -0.15873
      52 -> 54        -0.31131
      52 -> 56         0.15548
      52 -> 57         0.12163
      53 -> 56         0.12030
      53 -> 57         0.16417

 Excited State   6:      Singlet-A      5.7388 eV  216.05 nm  f=0.0117  <S**2>=0.000
      49 -> 56        -0.20577
      49 -> 57         0.15902
      50 -> 54        -0.15969
      51 -> 54         0.32346
      52 -> 54         0.48517
      53 -> 57         0.18598

 Excited State   7:      Singlet-A      5.8269 eV  212.78 nm  f=0.0124  <S**2>=0.000
      49 -> 56        -0.24845
      49 -> 57         0.17999
      51 -> 54        -0.14214
      51 -> 55         0.13181
      51 -> 56         0.11218
      52 -> 54        -0.18660
      52 -> 55         0.51475
      53 -> 57         0.14829

 Excited State   8:      Singlet-A      5.8572 eV  211.68 nm  f=0.0220  <S**2>=0.000
      49 -> 54         0.18075
      49 -> 56         0.10111
      50 -> 54         0.46200
      50 -> 55         0.34305
      50 -> 56         0.16442
      51 -> 56        -0.10978
      52 -> 54         0.14549
      52 -> 56         0.19517

 Excited State   9:      Singlet-A      5.9280 eV  209.15 nm  f=0.0005  <S**2>=0.000
      50 -> 54         0.16603
      51 -> 54         0.20653
      51 -> 55         0.57154
      51 -> 56         0.12200
      52 -> 55        -0.21530
      52 -> 56        -0.13292

 Excited State  10:      Singlet-A      5.9924 eV  206.90 nm  f=0.0264  <S**2>=0.000
      49 -> 54        -0.31177
      50 -> 54        -0.20338
      50 -> 55         0.45946
      50 -> 56         0.17111
      51 -> 54         0.13430
      51 -> 56         0.16773
      52 -> 55         0.12316
      52 -> 56        -0.14976

 The electronic state is 1-A.
 Alpha  occ. eigenvalues --  -77.07969 -10.19393 -10.19299 -10.19192 -10.19093
 Alpha  occ. eigenvalues --  -10.19069 -10.19058 -10.19011 -10.19001 -10.18964
 Alpha  occ. eigenvalues --  -10.18942 -10.18899 -10.18857 -10.18422  -6.54711
 Alpha  occ. eigenvalues --   -4.70976  -4.70964  -4.70460  -0.85270  -0.84774
 Alpha  occ. eigenvalues --   -0.76468  -0.74321  -0.74256  -0.73796  -0.70921
 Alpha  occ. eigenvalues --   -0.62338  -0.60252  -0.59978  -0.59281  -0.55060
 Alpha  occ. eigenvalues --   -0.51448  -0.49651  -0.45409  -0.44649  -0.44597
 Alpha  occ. eigenvalues --   -0.44242  -0.42401  -0.42079  -0.41685  -0.41109
 Alpha  occ. eigenvalues --   -0.38955  -0.37870  -0.36381  -0.36120  -0.34369
 Alpha  occ. eigenvalues --   -0.34239  -0.32560  -0.31575  -0.26446  -0.25180
 Alpha  occ. eigenvalues --   -0.25018  -0.24725  -0.21380
 Alpha virt. eigenvalues --   -0.01529  -0.00807  -0.00420   0.00542   0.06283
 Alpha virt. eigenvalues --    0.07173   0.09234   0.10908   0.12717   0.13594
 Alpha virt. eigenvalues --    0.14142   0.14681   0.15149   0.15528   0.16193

 Mulliken charges:
               1
     1  P    0.507391
     2  C   -0.067122
     3  C   -0.143097
     4  C   -0.115321
     5  C   -0.121498
     6  C   -0.113004
     7  C   -0.159602
     8  C   -0.150314
     9  C   -0.192310
    10  C   -0.109918
    11  C   -0.192782
    12  C   -0.134773
    13  C   -0.175792
    14  C   -0.640338
    15  H    0.161062
    16  H    0.203725
    17  H    0.215644
    18  H    0.168968
    19  H    0.152408
    20  H    0.153118
    21  H    0.149079
    22  H    0.148053
    23  H    0.087342
    24  H    0.100164
    25  H    0.085489
    26  H    0.093461
    27  H    0.089965
 Sum of Mulliken charges =  -0.00000

 Dipole moment (field-independent basis, Debye):
    X=              7.0085    Y=              2.3416    Z=             -0.4361  Tot=              7.4022
 Quadrupole moment (field-independent basis, Debye-Ang):
   XX=            -91.9170   YY=            -83.0683   ZZ=            -86.8648
   XY=             -6.4548   XZ=              4.1096   YZ=              1.5633

 Summary of Natural Population Analysis:

                                       Natural Population
                Natural  -----------------------------------------------
    Atom  No    Charge         Core      Valence    Rydberg      Total
 -----------------------------------------------------------------------
      P    1    1.25989      9.99755     3.69267    0.04989    13.74011
      C    2   -0.37064      1.99892     4.34848    0.02324     6.37064
      C    3   -0.18257      1.99902     4.16715    0.01640     6.18257
      C    4   -0.23274      1.99910     4.21947    0.01417     6.23274
      C    5   -0.19002      1.99909     4.17687    0.01406     6.19002
      C    6   -0.22553      1.99910     4.21219    0.01424     6.22553
      C    7   -0.21164      1.99900     4.19729    0.01535     6.21164
      C    8   -0.53822      1.99883     4.51447    0.02492     6.53822
      C    9   -0.30984      1.99898     4.29109    0.01977     6.30984
      C   10   -0.21948      1.99908     4.20594    0.01445     6.21948
      C   11   -0.34752      1.99910     4.33063    0.01779     6.34752
      C   12   -0.26954      1.99910     4.25450    0.01594     6.26954
      C   13   -0.23972      1.99902     4.22464    0.01606     6.23972
      C   14   -1.03461      1.99946     5.02405    0.01111     7.03461
      H   15    0.23976      0.00000     0.75840    0.00183     0.76024
      H   16    0.27449      0.00000     0.72482    0.00069     0.72551
      H   17    0.27673      0.00000     0.72218    0.00109     0.72327
      H   18    0.25532      0.00000     0.74309    0.00159     0.74468
      H   19    0.24842      0.00000     0.75080    0.00078     0.75158
      H   20    0.24448      0.00000     0.75472    0.00079     0.75552
      H   21    0.24608      0.00000     0.75309    0.00083     0.75392
      H   22    0.24186      0.00000     0.75691    0.00123     0.75814
      H   23    0.21298      0.00000     0.78596    0.00106     0.78702
      H   24    0.22424      0.00000     0.77490    0.00086     0.77576
      H   25    0.21567      0.00000     0.78355    0.00078     0.78433
      H   26    0.22042      0.00000     0.77872    0.00086     0.77958
      H   27    0.21174      0.00000     0.78753    0.00073     0.78826
 =======================================================================
   * Total *    0.00000     35.98536    69.73412    0.28053   106.00000

 Normal termination of Gaussian 16 at Wed Feb 27 04:09:01 2019.
