 Gaussian 16, Revision A.03,

 ---------------------------------
 # opt=CalcFc B3LYP/6-31G* scf=xqc
 ---------------------------------

 -------------------
 Title Card Required
 -------------------
 Symbolic Z-matrix:
 Charge =  0 Multiplicity = 1

 SCF Done:  E(RB3LYP) =  -844.551979391     A.U. after   14 cycles
 SCF Done:  E(RB3LYP) =  -844.556268543     A.U. after   14 cycles
 SCF Done:  E(RB3LYP) =  -844.529719034     A.U. after   14 cycles
 SCF Done:  E(RB3LYP) =  -844.560045689     A.U. after   13 cycles
 SCF Done:  E(RB3LYP) =  -844.561189588     A.U. after   12 cycles
 SCF Done:  E(RB3LYP) =  -844.561585079     A.U. after   12 cycles
 SCF Done:  E(RB3LYP) =  -844.558623283     A.U. after   13 cycles
 SCF Done:  E(RB3LYP) =  -844.562147678     A.U. after   12 cycles
 SCF Done:  E(RB3LYP) =  -844.562552059     A.U. after   12 cycles
 SCF Done:  E(RB3LYP) =  -844.562755200     A.U. after   14 cycles
 SCF Done:  E(RB3LYP) =  -844.564246420     A.U. after   10 cycles
 SCF Done:  E(RB3LYP) =  -844.564263277     A.U. after   10 cycles
 SCF Done:  E(RB3LYP) =  -844.564296777     A.U. after   12 cycles
 SCF Done:  E(RB3LYP) =  -844.564314419     A.U. after   12 cycles
 SCF Done:  E(RB3LYP) =  -844.564321945     A.U. after   11 cycles
 SCF Done:  E(RB3LYP) =  -844.564328075     A.U. after   10 cycles
 SCF Done:  E(RB3LYP) =  -844.564329253     A.U. after   10 cycles
 SCF Done:  E(RB3LYP) =  -844.564329557     A.U. after    9 cycles
 Optimization completed.
    -- Stationary point found.
 Normal termination of Gaussian 16 at Wed Feb 27 04:09:53 2019.

 ----------------------------------------------------------------------
 # freq B3LYP/6-31G* volume NMR pop=NPA density=current Geom=AllCheck G
 uess=Read
 ----------------------------------------------------------------------

 Structure from the checkpoint file:  "direct_arylation_ligand_62_conf62.chk"
 -------------------
 Title Card Required
 -------------------
 Charge =  0 Multiplicity = 1

 SCF Done:  E(RB3LYP) =  -844.564329557     A.U. after    1 cycles

      1  P    Isotropic =   385.0767   Anisotropy =    60.2181

      2  C    Isotropic =    51.8710   Anisotropy =   182.8433

      3  C    Isotropic =    60.5083   Anisotropy =   159.8393

      4  C    Isotropic =    69.1696   Anisotropy =   163.2067

      5  C    Isotropic =    67.5060   Anisotropy =   168.3001

      6  C    Isotropic =    68.2792   Anisotropy =   164.2380

      7  C    Isotropic =    62.8759   Anisotropy =   171.1489

      8  C    Isotropic =    52.7918   Anisotropy =   183.2175

      9  C    Isotropic =    67.9817   Anisotropy =   167.4399

     10  C    Isotropic =    68.8486   Anisotropy =   164.0557

     11  C    Isotropic =    69.4138   Anisotropy =   165.2709

     12  C    Isotropic =    68.8089   Anisotropy =   164.5520

     13  C    Isotropic =    62.6033   Anisotropy =   166.8324

     14  C    Isotropic =   173.0293   Anisotropy =    19.3250

     15  H    Isotropic =    31.0015   Anisotropy =     8.5259

     16  H    Isotropic =    30.7455   Anisotropy =    10.5226

     17  H    Isotropic =    30.7059   Anisotropy =     7.2638

     18  H    Isotropic =    24.4818   Anisotropy =     7.9897

     19  H    Isotropic =    24.9616   Anisotropy =     4.4623

     20  H    Isotropic =    25.0153   Anisotropy =     3.8947

     21  H    Isotropic =    25.0795   Anisotropy =     5.9092

     22  H    Isotropic =    25.1719   Anisotropy =    11.3367

     23  H    Isotropic =    24.8795   Anisotropy =     9.9833

     24  H    Isotropic =    24.9264   Anisotropy =     4.8986

     25  H    Isotropic =    25.0795   Anisotropy =     3.7304

     26  H    Isotropic =    25.0469   Anisotropy =     4.9714

     27  H    Isotropic =    24.9778   Anisotropy =    10.0486

  Exact polarizability: 201.364   1.876 138.238 -20.879  -1.679 117.946
 Approx polarizability: 285.393   3.926 225.327 -48.280  -5.092 209.315

                      1                      2                      3
                      A                      A                      A
 Frequencies --     19.6515                29.9126                55.9304
 Red. masses --      3.7896                 3.8330                 5.0673
 Frc consts  --      0.0009                 0.0020                 0.0093
 IR Inten    --      0.2503                 0.0666                 0.0708

                      4                      5                      6
                      A                      A                      A
 Frequencies --    117.5813               178.5795               186.8969
 Red. masses --      3.3695                 3.4616                 3.6212
 Frc consts  --      0.0274                 0.0650                 0.0745
 IR Inten    --      0.5135                 0.7296                 0.2038

                      7                      8                      9
                      A                      A                      A
 Frequencies --    233.3196               246.4083               267.1215
 Red. masses --      1.8310                 1.6575                 3.6669
 Frc consts  --      0.0587                 0.0593                 0.1542
 IR Inten    --      0.4887                 0.3054                 0.1576

                     10                     11                     12
                      A                      A                      A
 Frequencies --    323.2000               396.5556               408.1573
 Red. masses --      4.4974                 5.9081                 3.1698
 Frc consts  --      0.2768                 0.5474                 0.3111
 IR Inten    --      2.2778                 2.7547                 2.8941

                     13                     14                     15
                      A                      A                      A
 Frequencies --    412.6933               419.7839               488.2668
 Red. masses --      3.0642                 6.9751                 3.5146
 Frc consts  --      0.3075                 0.7242                 0.4937
 IR Inten    --      0.6170                 8.2506                10.4564

                     16                     17                     18
                      A                      A                      A
 Frequencies --    515.9370               632.6631               633.0542
 Red. masses --      3.9376                 6.4093                 6.4011
 Frc consts  --      0.6175                 1.5115                 1.5114
 IR Inten    --     12.4288                 0.1768                 0.0924

                     19                     20                     21
                      A                      A                      A
 Frequencies --    674.2301               702.6852               705.0821
 Red. masses --      5.3393                 6.1945                 4.9228
 Frc consts  --      1.4300                 1.8021                 1.4419
 IR Inten    --      8.3416                 0.9795                 3.2579

                     22                     23                     24
                      A                      A                      A
 Frequencies --    712.0441               713.7087               757.4333
 Red. masses --      2.2696                 2.0651                 1.5778
 Frc consts  --      0.6780                 0.6198                 0.5333
 IR Inten    --     20.8255                26.9447                35.5634

                     25                     26                     27
                      A                      A                      A
 Frequencies --    763.0340               861.1826               867.3673
 Red. masses --      1.7191                 1.2514                 1.2452
 Frc consts  --      0.5897                 0.5468                 0.5520
 IR Inten    --     13.6494                 0.1858                 0.0193

                     28                     29                     30
                      A                      A                      A
 Frequencies --    910.2565               919.8465               922.6494
 Red. masses --      1.3086                 1.2937                 1.3544
 Frc consts  --      0.6388                 0.6449                 0.6793
 IR Inten    --     24.9548                28.3847                 1.4311

                     31                     32                     33
                      A                      A                      A
 Frequencies --    936.6929               969.7286               977.1789
 Red. masses --      1.3619                 1.3597                 1.3601
 Frc consts  --      0.7040                 0.7534                 0.7652
 IR Inten    --      4.6281                 0.0626                 0.1023

                     34                     35                     36
                      A                      A                      A
 Frequencies --    996.8375              1001.2353              1015.2369
 Red. masses --      1.2506                 1.2591                 6.2349
 Frc consts  --      0.7322                 0.7437                 3.7863
 IR Inten    --      0.1418                 0.0536                 1.2334

                     37                     38                     39
                      A                      A                      A
 Frequencies --   1015.9839              1052.1451              1054.4488
 Red. masses --      6.2492                 3.2221                 3.1933
 Frc consts  --      3.8006                 2.1016                 2.0919
 IR Inten    --      2.5450                 1.0739                 1.1864

                     40                     41                     42
                      A                      A                      A
 Frequencies --   1106.2681              1112.2024              1113.0434
 Red. masses --      1.7291                 1.7334                 2.4340
 Frc consts  --      1.2467                 1.2633                 1.7767
 IR Inten    --      1.6958                 2.4133                13.3268

                     43                     44                     45
                      A                      A                      A
 Frequencies --   1117.9823              1193.4826              1194.2056
 Red. masses --      2.5281                 1.1026                 1.0987
 Frc consts  --      1.8618                 0.9254                 0.9232
 IR Inten    --      2.1441                 0.0064                 0.0647

                     46                     47                     48
                      A                      A                      A
 Frequencies --   1216.9025              1223.4345              1323.7514
 Red. masses --      1.1444                 1.1502                 3.2573
 Frc consts  --      0.9985                 1.0143                 3.3630
 IR Inten    --      3.9179                 0.6688                 2.3631

                     49                     50                     51
                      A                      A                      A
 Frequencies --   1331.6626              1351.3797              1363.1509
 Red. masses --      3.3528                 1.2958                 1.7090
 Frc consts  --      3.5031                 1.3943                 1.8711
 IR Inten    --      2.8856                 2.1919                 1.4895

                     52                     53                     54
                      A                      A                      A
 Frequencies --   1371.5833              1479.5012              1482.4635
 Red. masses --      1.5139                 2.0991                 2.0753
 Frc consts  --      1.6780                 2.7071                 2.6872
 IR Inten    --      2.1499                12.2436                 5.4944

                     55                     56                     57
                      A                      A                      A
 Frequencies --   1501.1109              1502.2054              1530.8720
 Red. masses --      1.0620                 1.0627                 2.0236
 Frc consts  --      1.4099                 1.4129                 2.7942
 IR Inten    --      4.2103                16.6991                 4.9326

                     58                     59                     60
                      A                      A                      A
 Frequencies --   1534.8435              1630.0433              1632.4707
 Red. masses --      1.9731                 5.0203                 5.1792
 Frc consts  --      2.7387                 7.8592                 8.1321
 IR Inten    --      6.4894                 1.1108                 0.2823

                     61                     62                     63
                      A                      A                      A
 Frequencies --   1646.7295              1649.4787              3049.4886
 Red. masses --      5.3167                 5.2603                 1.0329
 Frc consts  --      8.4945                 8.4325                 5.6592
 IR Inten    --      1.7948                 3.4153                12.5550

                     64                     65                     66
                      A                      A                      A
 Frequencies --   3131.3079              3138.1027              3174.8706
 Red. masses --      1.1045                 1.1020                 1.0855
 Frc consts  --      6.3805                 6.3941                 6.4465
 IR Inten    --     12.2671                 8.6786                 3.7873

                     67                     68                     69
                      A                      A                      A
 Frequencies --   3176.3348              3181.6176              3182.0415
 Red. masses --      1.0847                 1.0871                 1.0872
 Frc consts  --      6.4480                 6.4835                 6.4860
 IR Inten    --      1.4470                 0.5348                 0.2287

                     70                     71                     72
                      A                      A                      A
 Frequencies --   3190.9945              3192.1176              3198.2308
 Red. masses --      1.0907                 1.0916                 1.0939
 Frc consts  --      6.5433                 6.5537                 6.5927
 IR Inten    --      9.7056                21.0421                33.3507

                     73                     74                     75
                      A                      A                      A
 Frequencies --   3203.7131              3207.1153              3210.6083
 Red. masses --      1.0936                 1.0979                 1.0954
 Frc consts  --      6.6135                 6.6537                 6.6527
 IR Inten    --     34.2072                31.3129                18.4730

 - Thermochemistry -
 -------------------
 Temperature   298.150 Kelvin.  Pressure   1.00000 Atm.
 Atom     1 has atomic number 15 and mass  30.97376

 Molecular mass:   200.07549 amu.
 Principal axes and moments of inertia in atomic units:
                           1         2         3
     Eigenvalues --  1569.903164673.802685299.33832
           X            0.99999   0.00072  -0.00536
           Y           -0.00048   0.99898   0.04507
           Z            0.00538  -0.04507   0.99897
 This molecule is an asymmetric top.
 Rotational symmetry number  1.
 Warning -- assumption of classical behavior for rotation
           may cause significant error
 Rotational temperatures (Kelvin)      0.05517     0.01853     0.01634
 Rotational constants (GHZ):           1.14959     0.38614     0.34056
 Zero-point vibrational energy     579830.2 (Joules/Mol)
                                  138.58273 (Kcal/Mol)
 Warning -- explicit consideration of  16 degrees of freedom as
           vibrations may cause significant error
 Vibrational temperatures:     28.27    43.04    80.47   169.17   256.94
          (Kelvin)            268.90   335.69   354.53   384.33   465.01
                              570.56   587.25   593.77   603.98   702.51
                              742.32   910.26   910.82   970.07  1011.01
                             1014.46  1024.47  1026.87  1089.78  1097.84
                             1239.05  1247.95  1309.66  1323.45  1327.49
                             1347.69  1395.22  1405.94  1434.23  1440.55
                             1460.70  1461.77  1513.80  1517.12  1591.67
                             1600.21  1601.42  1608.53  1717.16  1718.20
                             1750.85  1760.25  1904.58  1915.97  1944.33
                             1961.27  1973.40  2128.67  2132.93  2159.76
                             2161.34  2202.58  2208.30  2345.27  2348.76
                             2369.28  2373.23  4387.53  4505.25  4515.03
                             4567.93  4570.04  4577.64  4578.25  4591.13
                             4592.75  4601.54  4609.43  4614.32  4619.35

 Zero-point correction=                           0.220846 (Hartree/Particle)
 Thermal correction to Energy=                    0.233542
 Thermal correction to Enthalpy=                  0.234486
 Thermal correction to Gibbs Free Energy=         0.179768
 Sum of electronic and zero-point Energies=           -844.343484
 Sum of electronic and thermal Energies=              -844.330788
 Sum of electronic and thermal Enthalpies=            -844.329844
 Sum of electronic and thermal Free Energies=         -844.384561

                     E (Thermal)             CV                S
                      KCal/Mol        Cal/Mol-Kelvin    Cal/Mol-Kelvin
 Total                  146.550             49.332            115.163
 Electronic               0.000              0.000              0.000
 Translational            0.889              2.981             41.785
 Rotational               0.889              2.981             32.031
 Vibrational            144.772             43.370             41.347
 Vibration     1          0.593              1.986              6.669
 Vibration     2          0.594              1.984              5.835
 Vibration     3          0.596              1.975              4.596
 Vibration     4          0.608              1.935              3.140
 Vibration     5          0.629              1.869              2.343
 Vibration     6          0.632              1.858              2.258
 Vibration     7          0.654              1.790              1.853
 Vibration     8          0.661              1.769              1.756
 Vibration     9          0.672              1.733              1.615
 Vibration    10          0.708              1.629              1.294
 Vibration    11          0.763              1.478              0.975
 Vibration    12          0.773              1.453              0.933
 Vibration    13          0.776              1.443              0.917
 Vibration    14          0.782              1.427              0.893
 Vibration    15          0.844              1.276              0.688
 Vibration    16          0.871              1.215              0.619

 Optimization completed.
    -- Stationary point found.
 Normal termination of Gaussian 16 at Wed Feb 27 04:14:51 2019.
 Gaussian 16:  ES64L-G16RevA.03 25-Dec-2016

 ----------------------------------------------------------------------
 # TD(NStates=10, Root=1) B3LYP/6-31G* volume pop=NPA density=current G
 eom=AllCheck Guess=Read
 ----------------------------------------------------------------------

 Structure from the checkpoint file:  "direct_arylation_ligand_62_conf63.chk"
 -------------------
 Title Card Required
 -------------------
 Charge =  0 Multiplicity = 1

                         Standard orientation:
 ---------------------------------------------------------------------
 Center     Atomic      Atomic             Coordinates (Angstroms)
 Number     Number       Type             X           Y           Z
 ---------------------------------------------------------------------
      1         15           0        0.036695    1.368984   -0.701740
      2          6           0        1.438376    0.263122   -0.190269
      3          6           0        2.620462    0.317232   -0.943318
      4          6           0        3.728578   -0.458117   -0.593204
      5          6           0        3.664131   -1.307134    0.511635
      6          6           0        2.489289   -1.377318    1.265404
      7          6           0        1.386315   -0.598051    0.917770
      8          6           0       -1.434487    0.319080   -0.299659
      9          6           0       -2.399822    0.657844    0.660095
     10          6           0       -3.529991   -0.141961    0.853241
     11          6           0       -3.712831   -1.296689    0.094134
     12          6           0       -2.760786   -1.645437   -0.867894
     13          6           0       -1.640818   -0.841688   -1.067394
     14          6           0        0.056696    2.585697    0.714248
     15          1           0        0.994792    3.146551    0.656972
     16          1           0       -0.766270    3.299993    0.606225
     17          1           0       -0.004191    2.109056    1.698627
     18          1           0        2.670505    0.968745   -1.812664
     19          1           0        4.637109   -0.403308   -1.187475
     20          1           0        4.522639   -1.916069    0.782934
     21          1           0        2.432978   -2.041165    2.124555
     22          1           0        0.474095   -0.666301    1.504710
     23          1           0       -2.279614    1.549507    1.267794
     24          1           0       -4.265224    0.139963    1.602880
     25          1           0       -4.590728   -1.918942    0.246164
     26          1           0       -2.894721   -2.542202   -1.467508
     27          1           0       -0.912450   -1.120079   -1.825840
 ---------------------------------------------------------------------

 SCF Done:  E(RB3LYP) =  -844.564329557     A.U. after    1 cycles

 Excitation energies and oscillator strengths:

 Excited State   1:      Singlet-A      4.6039 eV  269.30 nm  f=0.0435  <S**2>=0.000
      53 -> 54         0.68720
      53 -> 55         0.11757
 This state for optimization and/or second-order correction.
 Total Energy, E(TD-HF/TD-DFT) =  -844.395138644
 Copying the excited state density for this state as the 1-particle RhoCI density.

 Excited State   2:      Singlet-A      4.8959 eV  253.24 nm  f=0.0129  <S**2>=0.000
      51 -> 55        -0.10662
      52 -> 54         0.13703
      52 -> 55        -0.11075
      53 -> 55         0.22383
      53 -> 56         0.62621

 Excited State   3:      Singlet-A      5.0080 eV  247.57 nm  f=0.1455  <S**2>=0.000
      53 -> 54        -0.10821
      53 -> 55         0.61717
      53 -> 56        -0.19984
      53 -> 57         0.18809

 Excited State   4:      Singlet-A      5.1448 eV  240.99 nm  f=0.0379  <S**2>=0.000
      50 -> 55        -0.12106
      51 -> 54        -0.20894
      52 -> 55         0.13439
      52 -> 56        -0.10047
      53 -> 55        -0.16863
      53 -> 56         0.12436
      53 -> 57         0.59544

 Excited State   5:      Singlet-A      5.4215 eV  228.69 nm  f=0.0047  <S**2>=0.000
      50 -> 55         0.19237
      50 -> 56         0.26445
      50 -> 57         0.20854
      51 -> 54         0.36791
      51 -> 55         0.15881
      52 -> 54        -0.31143
      52 -> 56         0.15543
      52 -> 57         0.12170
      53 -> 56         0.12029
      53 -> 57         0.16403

 Excited State   6:      Singlet-A      5.7387 eV  216.05 nm  f=0.0117  <S**2>=0.000
      49 -> 56        -0.20617
      49 -> 57         0.15930
      50 -> 54        -0.15940
      51 -> 54         0.32354
      52 -> 54         0.48479
      53 -> 57         0.18617

 Excited State   7:      Singlet-A      5.8270 eV  212.78 nm  f=0.0123  <S**2>=0.000
      49 -> 56         0.24807
      49 -> 57        -0.17972
      51 -> 54         0.14265
      51 -> 55         0.13222
      51 -> 56        -0.11186
      52 -> 54         0.18672
      52 -> 55         0.51487
      53 -> 57        -0.14790

 Excited State   8:      Singlet-A      5.8570 eV  211.68 nm  f=0.0221  <S**2>=0.000
      49 -> 54         0.18044
      49 -> 56         0.10132
      50 -> 54         0.46225
      50 -> 55        -0.34307
      50 -> 56         0.16416
      51 -> 56        -0.10980
      52 -> 54         0.14577
      52 -> 56         0.19489

 Excited State   9:      Singlet-A      5.9279 eV  209.15 nm  f=0.0005  <S**2>=0.000
      50 -> 54        -0.16596
      51 -> 54        -0.20668
      51 -> 55         0.57140
      51 -> 56        -0.12178
      52 -> 55        -0.21550
      52 -> 56         0.13299

 Excited State  10:      Singlet-A      5.9924 eV  206.90 nm  f=0.0265  <S**2>=0.000
      49 -> 54         0.31222
      50 -> 54         0.20309
      50 -> 55         0.45936
      50 -> 56        -0.17106
      51 -> 54        -0.13434
      51 -> 56        -0.16754
      52 -> 55         0.12342
      52 -> 56         0.14973

 The electronic state is 1-A.
 Alpha  occ. eigenvalues --  -77.07968 -10.19393 -10.19299 -10.19192 -10.19093
 Alpha  occ. eigenvalues --  -10.19069 -10.19059 -10.19011 -10.19001 -10.18964
 Alpha  occ. eigenvalues --  -10.18942 -10.18899 -10.18857 -10.18421  -6.54710
 Alpha  occ. eigenvalues --   -4.70976  -4.70963  -4.70459  -0.85270  -0.84774
 Alpha  occ. eigenvalues --   -0.76468  -0.74321  -0.74256  -0.73796  -0.70921
 Alpha  occ. eigenvalues --   -0.62338  -0.60252  -0.59977  -0.59281  -0.55060
 Alpha  occ. eigenvalues --   -0.51448  -0.49651  -0.45409  -0.44649  -0.44597
 Alpha  occ. eigenvalues --   -0.44242  -0.42401  -0.42079  -0.41685  -0.41109
 Alpha  occ. eigenvalues --   -0.38955  -0.37871  -0.36382  -0.36120  -0.34369
 Alpha  occ. eigenvalues --   -0.34239  -0.32560  -0.31576  -0.26446  -0.25180
 Alpha  occ. eigenvalues --   -0.25018  -0.24726  -0.21380
 Alpha virt. eigenvalues --   -0.01530  -0.00807  -0.00419   0.00541   0.06284
 Alpha virt. eigenvalues --    0.07174   0.09234   0.10908   0.12717   0.13594
 Alpha virt. eigenvalues --    0.14142   0.14681   0.15149   0.15528   0.16192

 Mulliken charges:
               1
     1  P    0.507441
     2  C   -0.150284
     3  C   -0.175823
     4  C   -0.134740
     5  C   -0.192778
     6  C   -0.109917
     7  C   -0.192290
     8  C   -0.067119
     9  C   -0.159621
    10  C   -0.112992
    11  C   -0.121520
    12  C   -0.115324
    13  C   -0.143119
    14  C   -0.640356
    15  H    0.203720
    16  H    0.161072
    17  H    0.215661
    18  H    0.089966
    19  H    0.093473
    20  H    0.085497
    21  H    0.100172
    22  H    0.087354
    23  H    0.148037
    24  H    0.149070
    25  H    0.153101
    26  H    0.152392
    27  H    0.168926
 Sum of Mulliken charges =  -0.00000

 Dipole moment (field-independent basis, Debye):
    X=             -7.0063    Y=              2.3421    Z=             -0.4361  Tot=              7.4003
 Quadrupole moment (field-independent basis, Debye-Ang):
   XX=            -91.9209   YY=            -83.0716   ZZ=            -86.8599
   XY=              6.4531   XZ=             -4.1087   YZ=              1.5627

 Summary of Natural Population Analysis:

                                       Natural Population
                Natural  -----------------------------------------------
    Atom  No    Charge         Core      Valence    Rydberg      Total
 -----------------------------------------------------------------------
      P    1    1.26001      9.99755     3.69254    0.04989    13.73999
      C    2   -0.53819      1.99883     4.51445    0.02492     6.53819
      C    3   -0.23976      1.99902     4.22468    0.01606     6.23976
      C    4   -0.26950      1.99910     4.25446    0.01594     6.26950
      C    5   -0.34751      1.99910     4.33062    0.01779     6.34751
      C    6   -0.21950      1.99908     4.20596    0.01445     6.21950
      C    7   -0.30977      1.99898     4.29102    0.01977     6.30977
      C    8   -0.37073      1.99892     4.34857    0.02324     6.37073
      C    9   -0.21168      1.99900     4.19732    0.01535     6.21168
      C   10   -0.22551      1.99910     4.21217    0.01424     6.22551
      C   11   -0.19008      1.99909     4.17693    0.01406     6.19008
      C   12   -0.23275      1.99910     4.21948    0.01417     6.23275
      C   13   -0.18256      1.99902     4.16714    0.01640     6.18256
      C   14   -1.03465      1.99946     5.02409    0.01111     7.03465
      H   15    0.27449      0.00000     0.72482    0.00069     0.72551
      H   16    0.23977      0.00000     0.75839    0.00183     0.76023
      H   17    0.27674      0.00000     0.72217    0.00109     0.72326
      H   18    0.21174      0.00000     0.78753    0.00073     0.78826
      H   19    0.22042      0.00000     0.77872    0.00086     0.77958
      H   20    0.21568      0.00000     0.78355    0.00078     0.78432
      H   21    0.22424      0.00000     0.77490    0.00086     0.77576
      H   22    0.21299      0.00000     0.78595    0.00106     0.78701
      H   23    0.24186      0.00000     0.75691    0.00123     0.75814
      H   24    0.24608      0.00000     0.75309    0.00083     0.75392
      H   25    0.24448      0.00000     0.75473    0.00079     0.75552
      H   26    0.24841      0.00000     0.75081    0.00078     0.75159
      H   27    0.25529      0.00000     0.74312    0.00159     0.74471
 =======================================================================
   * Total *   -0.00000     35.98536    69.73412    0.28052   106.00000

 Normal termination of Gaussian 16 at Wed Feb 27 04:20:22 2019.
