 Gaussian 16, Revision A.03,

 ---------------------------------
 # opt=CalcFc B3LYP/6-31G* scf=xqc
 ---------------------------------

 -------------------
 Title Card Required
 -------------------
 Symbolic Z-matrix:
 Charge =  0 Multiplicity = 1

 SCF Done:  E(RB3LYP) =  -844.564329553     A.U. after   14 cycles
 Optimization completed.
    -- Stationary point found.
 Normal termination of Gaussian 16 at Thu Mar  7 06:23:14 2019.

 ----------------------------------------------------------------------
 # freq B3LYP/6-31G* volume NMR pop=NPA density=current Geom=AllCheck G
 uess=Read
 ----------------------------------------------------------------------

 Structure from the checkpoint file:  "direct_arylation_ligand_62_conf232.chk"
 -------------------
 Title Card Required
 -------------------
 Charge =  0 Multiplicity = 1

 SCF Done:  E(RB3LYP) =  -844.564329553     A.U. after    1 cycles

      1  P    Isotropic =   385.0767   Anisotropy =    60.2350

      2  C    Isotropic =    52.7822   Anisotropy =   183.2176

      3  C    Isotropic =    62.6085   Anisotropy =   166.8372

      4  C    Isotropic =    68.8100   Anisotropy =   164.5513

      5  C    Isotropic =    69.4156   Anisotropy =   165.2681

      6  C    Isotropic =    68.8487   Anisotropy =   164.0546

      7  C    Isotropic =    67.9819   Anisotropy =   167.4323

      8  C    Isotropic =    51.8717   Anisotropy =   182.8453

      9  C    Isotropic =    62.8739   Anisotropy =   171.1502

     10  C    Isotropic =    68.2788   Anisotropy =   164.2397

     11  C    Isotropic =    67.5043   Anisotropy =   168.3025

     12  C    Isotropic =    69.1696   Anisotropy =   163.2071

     13  C    Isotropic =    60.5033   Anisotropy =   159.8374

     14  C    Isotropic =   173.0279   Anisotropy =    19.3219

     15  H    Isotropic =    30.7450   Anisotropy =    10.5218

     16  H    Isotropic =    31.0013   Anisotropy =     8.5262

     17  H    Isotropic =    30.7061   Anisotropy =     7.2637

     18  H    Isotropic =    24.9785   Anisotropy =    10.0499

     19  H    Isotropic =    25.0472   Anisotropy =     4.9720

     20  H    Isotropic =    25.0797   Anisotropy =     3.7302

     21  H    Isotropic =    24.9266   Anisotropy =     4.8984

     22  H    Isotropic =    24.8796   Anisotropy =     9.9835

     23  H    Isotropic =    25.1713   Anisotropy =    11.3346

     24  H    Isotropic =    25.0794   Anisotropy =     5.9086

     25  H    Isotropic =    25.0152   Anisotropy =     3.8946

     26  H    Isotropic =    24.9616   Anisotropy =     4.4622

     27  H    Isotropic =    24.4815   Anisotropy =     7.9890

  Exact polarizability: 201.357  -1.857 138.246  20.885  -1.675 117.941
 Approx polarizability: 285.386  -3.882 225.342  48.294  -5.083 209.307

                      1                      2                      3
                      A                      A                      A
 Frequencies --     19.6335                29.9694                55.9342
 Red. masses --      3.7891                 3.8339                 5.0668
 Frc consts  --      0.0009                 0.0020                 0.0093
 IR Inten    --      0.2496                 0.0669                 0.0709

                      4                      5                      6
                      A                      A                      A
 Frequencies --    117.5971               178.5590               186.9084
 Red. masses --      3.3695                 3.4617                 3.6223
 Frc consts  --      0.0275                 0.0650                 0.0746
 IR Inten    --      0.5132                 0.7297                 0.2037

                      7                      8                      9
                      A                      A                      A
 Frequencies --    233.3556               246.3764               267.1457
 Red. masses --      1.8302                 1.6580                 3.6659
 Frc consts  --      0.0587                 0.0593                 0.1541
 IR Inten    --      0.4878                 0.3059                 0.1573

                     10                     11                     12
                      A                      A                      A
 Frequencies --    323.2046               396.5620               408.1599
 Red. masses --      4.4981                 5.9069                 3.1696
 Frc consts  --      0.2768                 0.5473                 0.3111
 IR Inten    --      2.2791                 2.7501                 2.8897

                     13                     14                     15
                      A                      A                      A
 Frequencies --    412.6987               419.7784               488.2602
 Red. masses --      3.0646                 6.9767                 3.5147
 Frc consts  --      0.3075                 0.7243                 0.4937
 IR Inten    --      0.6204                 8.2562                10.4554

                     16                     17                     18
                      A                      A                      A
 Frequencies --    515.9447               632.6628               633.0552
 Red. masses --      3.9374                 6.4093                 6.4011
 Frc consts  --      0.6175                 1.5115                 1.5114
 IR Inten    --     12.4285                 0.1768                 0.0924

                     19                     20                     21
                      A                      A                      A
 Frequencies --    674.2447               702.6922               705.0895
 Red. masses --      5.3393                 6.1932                 4.9217
 Frc consts  --      1.4301                 1.8017                 1.4416
 IR Inten    --      8.3378                 0.9826                 3.2568

                     22                     23                     24
                      A                      A                      A
 Frequencies --    712.0447               713.7144               757.4307
 Red. masses --      2.2701                 2.0652                 1.5778
 Frc consts  --      0.6781                 0.6198                 0.5333
 IR Inten    --     20.8338                26.9322                35.5782

                     25                     26                     27
                      A                      A                      A
 Frequencies --    763.0362               861.1770               867.3813
 Red. masses --      1.7189                 1.2514                 1.2452
 Frc consts  --      0.5897                 0.5468                 0.5520
 IR Inten    --     13.6389                 0.1853                 0.0195

                     28                     29                     30
                      A                      A                      A
 Frequencies --    910.2665               919.8585               922.6429
 Red. masses --      1.3086                 1.2937                 1.3544
 Frc consts  --      0.6388                 0.6450                 0.6793
 IR Inten    --     24.9535                28.4018                 1.4288

                     31                     32                     33
                      A                      A                      A
 Frequencies --    936.7048               969.7235               977.1937
 Red. masses --      1.3619                 1.3597                 1.3601
 Frc consts  --      0.7040                 0.7534                 0.7652
 IR Inten    --      4.6126                 0.0626                 0.1023

                     34                     35                     36
                      A                      A                      A
 Frequencies --    996.8320              1001.2402              1015.2372
 Red. masses --      1.2506                 1.2591                 6.2349
 Frc consts  --      0.7322                 0.7437                 3.7863
 IR Inten    --      0.1420                 0.0538                 1.2329

                     37                     38                     39
                      A                      A                      A
 Frequencies --   1015.9836              1052.1447              1054.4493
 Red. masses --      6.2492                 3.2218                 3.1933
 Frc consts  --      3.8005                 2.1013                 2.0919
 IR Inten    --      2.5450                 1.0731                 1.1873

                     40                     41                     42
                      A                      A                      A
 Frequencies --   1106.2684              1112.2021              1113.0534
 Red. masses --      1.7289                 1.7329                 2.4358
 Frc consts  --      1.2467                 1.2629                 1.7779
 IR Inten    --      1.6942                 2.3894                13.3532

                     43                     44                     45
                      A                      A                      A
 Frequencies --   1117.9884              1193.4822              1194.2036
 Red. masses --      2.5281                 1.1026                 1.0987
 Frc consts  --      1.8617                 0.9254                 0.9232
 IR Inten    --      2.1487                 0.0064                 0.0647

                     46                     47                     48
                      A                      A                      A
 Frequencies --   1216.9024              1223.4360              1323.7507
 Red. masses --      1.1444                 1.1502                 3.2577
 Frc consts  --      0.9985                 1.0144                 3.3634
 IR Inten    --      3.9169                 0.6686                 2.3602

                     49                     50                     51
                      A                      A                      A
 Frequencies --   1331.6674              1351.3963              1363.1559
 Red. masses --      3.3536                 1.2959                 1.7088
 Frc consts  --      3.5039                 1.3944                 1.8708
 IR Inten    --      2.8859                 2.1901                 1.4909

                     52                     53                     54
                      A                      A                      A
 Frequencies --   1371.5874              1479.5020              1482.4657
 Red. masses --      1.5137                 2.0991                 2.0753
 Frc consts  --      1.6778                 2.7072                 2.6872
 IR Inten    --      2.1512                12.2432                 5.4967

                     55                     56                     57
                      A                      A                      A
 Frequencies --   1501.1040              1502.2152              1530.8733
 Red. masses --      1.0620                 1.0627                 2.0236
 Frc consts  --      1.4100                 1.4129                 2.7942
 IR Inten    --      4.2264                16.6854                 4.9269

                     58                     59                     60
                      A                      A                      A
 Frequencies --   1534.8455              1630.0415              1632.4698
 Red. masses --      1.9731                 5.0203                 5.1792
 Frc consts  --      2.7386                 7.8592                 8.1321
 IR Inten    --      6.4926                 1.1119                 0.2830

                     61                     62                     63
                      A                      A                      A
 Frequencies --   1646.7288              1649.4785              3049.4841
 Red. masses --      5.3166                 5.2603                 1.0329
 Frc consts  --      8.4943                 8.4325                 5.6592
 IR Inten    --      1.7919                 3.4217                12.5518

                     64                     65                     66
                      A                      A                      A
 Frequencies --   3131.3045              3138.0798              3174.8879
 Red. masses --      1.1045                 1.1020                 1.0855
 Frc consts  --      6.3805                 6.3940                 6.4465
 IR Inten    --     12.2641                 8.6847                 3.7848

                     67                     68                     69
                      A                      A                      A
 Frequencies --   3176.3245              3181.6216              3182.0182
 Red. masses --      1.0847                 1.0871                 1.0872
 Frc consts  --      6.4480                 6.4835                 6.4859
 IR Inten    --      1.4530                 0.5370                 0.2218

                     70                     71                     72
                      A                      A                      A
 Frequencies --   3190.9723              3192.1205              3198.2077
 Red. masses --      1.0907                 1.0916                 1.0939
 Frc consts  --      6.5432                 6.5538                 6.5926
 IR Inten    --      9.6506                21.0333                33.3763

                     73                     74                     75
                      A                      A                      A
 Frequencies --   3203.7068              3207.1124              3210.5965
 Red. masses --      1.0936                 1.0979                 1.0954
 Frc consts  --      6.6134                 6.6536                 6.6527
 IR Inten    --     34.2048                31.3500                18.4808

 - Thermochemistry -
 -------------------
 Temperature   298.150 Kelvin.  Pressure   1.00000 Atm.
 Atom     1 has atomic number 15 and mass  30.97376

 Molecular mass:   200.07549 amu.
 Principal axes and moments of inertia in atomic units:
                           1         2         3
     Eigenvalues --  1569.966864673.527465299.16001
           X            0.99999  -0.00071   0.00536
           Y            0.00047   0.99898   0.04507
           Z           -0.00539  -0.04507   0.99897
 This molecule is an asymmetric top.
 Rotational symmetry number  1.
 Warning -- assumption of classical behavior for rotation
           may cause significant error
 Rotational temperatures (Kelvin)      0.05517     0.01853     0.01634
 Rotational constants (GHZ):           1.14954     0.38616     0.34057
 Zero-point vibrational energy     579830.9 (Joules/Mol)
                                  138.58290 (Kcal/Mol)
 Warning -- explicit consideration of  16 degrees of freedom as
           vibrations may cause significant error
 Vibrational temperatures:     28.25    43.12    80.48   169.20   256.91
          (Kelvin)            268.92   335.75   354.48   384.36   465.02
                              570.56   587.25   593.78   603.97   702.50
                              742.33   910.26   910.83   970.09  1011.02
                             1014.47  1024.47  1026.88  1089.77  1097.84
                             1239.04  1247.97  1309.67  1323.47  1327.48
                             1347.71  1395.22  1405.96  1434.22  1440.56
                             1460.70  1461.77  1513.80  1517.12  1591.67
                             1600.21  1601.44  1608.54  1717.15  1718.19
                             1750.85  1760.25  1904.58  1915.97  1944.36
                             1961.28  1973.41  2128.67  2132.94  2159.75
                             2161.35  2202.59  2208.30  2345.27  2348.76
                             2369.28  2373.23  4387.53  4505.25  4515.00
                             4567.96  4570.02  4577.64  4578.21  4591.10
                             4592.75  4601.51  4609.42  4614.32  4619.33

 Zero-point correction=                           0.220846 (Hartree/Particle)
 Thermal correction to Energy=                    0.233542
 Thermal correction to Enthalpy=                  0.234486
 Thermal correction to Gibbs Free Energy=         0.179770
 Sum of electronic and zero-point Energies=           -844.343484
 Sum of electronic and thermal Energies=              -844.330788
 Sum of electronic and thermal Enthalpies=            -844.329843
 Sum of electronic and thermal Free Energies=         -844.384560

                     E (Thermal)             CV                S
                      KCal/Mol        Cal/Mol-Kelvin    Cal/Mol-Kelvin
 Total                  146.550             49.332            115.161
 Electronic               0.000              0.000              0.000
 Translational            0.889              2.981             41.785
 Rotational               0.889              2.981             32.031
 Vibrational            144.772             43.370             41.345
 Vibration     1          0.593              1.986              6.671
 Vibration     2          0.594              1.984              5.831
 Vibration     3          0.596              1.975              4.596
 Vibration     4          0.608              1.935              3.139
 Vibration     5          0.629              1.869              2.343
 Vibration     6          0.632              1.858              2.258
 Vibration     7          0.654              1.790              1.853
 Vibration     8          0.661              1.769              1.756
 Vibration     9          0.672              1.733              1.615
 Vibration    10          0.708              1.629              1.294
 Vibration    11          0.763              1.478              0.975
 Vibration    12          0.773              1.453              0.933
 Vibration    13          0.776              1.443              0.917
 Vibration    14          0.782              1.427              0.893
 Vibration    15          0.844              1.276              0.688
 Vibration    16          0.871              1.215              0.619

 Optimization completed.
    -- Stationary point found.
 Normal termination of Gaussian 16 at Thu Mar  7 06:28:26 2019.
 Gaussian 16:  ES64L-G16RevA.03 25-Dec-2016

 ----------------------------------------------------------------------
 # TD(NStates=10, Root=1) B3LYP/6-31G* volume pop=NPA density=current G
 eom=AllCheck Guess=Read
 ----------------------------------------------------------------------

 Structure from the checkpoint file:  "direct_arylation_ligand_62_conf233.chk"
 -------------------
 Title Card Required
 -------------------
 Charge =  0 Multiplicity = 1

                         Standard orientation:
 ---------------------------------------------------------------------
 Center     Atomic      Atomic             Coordinates (Angstroms)
 Number     Number       Type             X           Y           Z
 ---------------------------------------------------------------------
      1         15           0       -0.036643    1.369010   -0.701859
      2          6           0        1.434466    0.318992   -0.299785
      3          6           0        1.640327   -0.842250   -1.066909
      4          6           0        2.760212   -1.646098   -0.867303
      5          6           0        3.712624   -1.296988    0.094224
      6          6           0        3.530243   -0.141784    0.852728
      7          6           0        2.400173    0.658123    0.659474
      8          6           0       -1.438343    0.263267   -0.190257
      9          6           0       -1.386478   -0.597339    0.918233
     10          6           0       -2.489436   -1.376592    1.265937
     11          6           0       -3.664066   -1.306955    0.511780
     12          6           0       -3.728323   -0.458486   -0.593491
     13          6           0       -2.620222    0.316863   -0.943667
     14          6           0       -0.056468    2.585756    0.714084
     15          1           0        0.766623    3.299909    0.606081
     16          1           0       -0.994468    3.146774    0.656773
     17          1           0        0.004307    2.109141    1.698484
     18          1           0        0.911653   -1.120928   -1.824950
     19          1           0        2.893782   -2.543232   -1.466446
     20          1           0        4.590444   -1.919328    0.246343
     21          1           0        4.265766    0.140429    1.601975
     22          1           0        2.280341    1.550172    1.266683
     23          1           0       -0.474396   -0.665173    1.505446
     24          1           0       -2.433283   -2.040009    2.125430
     25          1           0       -4.522563   -1.915882    0.783128
     26          1           0       -4.636698   -0.404093   -1.188038
     27          1           0       -2.670122    0.968005   -1.813306
 ---------------------------------------------------------------------

 SCF Done:  E(RB3LYP) =  -844.564329553     A.U. after    1 cycles

 Excitation energies and oscillator strengths:

 Excited State   1:      Singlet-A      4.6037 eV  269.31 nm  f=0.0433  <S**2>=0.000
      53 -> 54         0.68726
      53 -> 55        -0.11725
 This state for optimization and/or second-order correction.
 Total Energy, E(TD-HF/TD-DFT) =  -844.395146667
 Copying the excited state density for this state as the 1-particle RhoCI density.

 Excited State   2:      Singlet-A      4.8958 eV  253.25 nm  f=0.0130  <S**2>=0.000
      51 -> 55         0.10642
      52 -> 54         0.13675
      52 -> 55         0.11098
      53 -> 55        -0.22447
      53 -> 56         0.62600

 Excited State   3:      Singlet-A      5.0081 eV  247.57 nm  f=0.1455  <S**2>=0.000
      53 -> 54         0.10788
      53 -> 55         0.61690
      53 -> 56         0.20031
      53 -> 57        -0.18857

 Excited State   4:      Singlet-A      5.1448 eV  240.99 nm  f=0.0381  <S**2>=0.000
      50 -> 55         0.12115
      51 -> 54        -0.20875
      52 -> 55        -0.13421
      52 -> 56        -0.10065
      53 -> 55         0.16897
      53 -> 56         0.12476
      53 -> 57         0.59532

 Excited State   5:      Singlet-A      5.4212 eV  228.70 nm  f=0.0047  <S**2>=0.000
      50 -> 55        -0.19273
      50 -> 56         0.26431
      50 -> 57         0.20841
      51 -> 54         0.36846
      51 -> 55        -0.15833
      52 -> 54        -0.31086
      52 -> 56         0.15551
      52 -> 57         0.12177
      53 -> 56         0.12022
      53 -> 57         0.16392

 Excited State   6:      Singlet-A      5.7387 eV  216.05 nm  f=0.0117  <S**2>=0.000
      49 -> 56        -0.20532
      49 -> 57         0.15872
      50 -> 54        -0.15939
      51 -> 54         0.32352
      52 -> 54         0.48579
      53 -> 57         0.18565

 Excited State   7:      Singlet-A      5.8269 eV  212.78 nm  f=0.0124  <S**2>=0.000
      49 -> 56        -0.24875
      49 -> 57         0.18029
      51 -> 54        -0.14135
      51 -> 55         0.13165
      51 -> 56         0.11198
      52 -> 54        -0.18605
      52 -> 55         0.51484
      53 -> 57         0.14852

 Excited State   8:      Singlet-A      5.8570 eV  211.68 nm  f=0.0222  <S**2>=0.000
      49 -> 54         0.18061
      49 -> 56         0.10108
      50 -> 54         0.46234
      50 -> 55         0.34283
      50 -> 56         0.16431
      51 -> 56        -0.10998
      52 -> 54         0.14554
      52 -> 56         0.19511

 Excited State   9:      Singlet-A      5.9281 eV  209.15 nm  f=0.0005  <S**2>=0.000
      50 -> 54         0.16629
      51 -> 54         0.20598
      51 -> 55         0.57165
      51 -> 56         0.12203
      52 -> 55        -0.21536
      52 -> 56        -0.13301

 Excited State  10:      Singlet-A      5.9923 eV  206.91 nm  f=0.0264  <S**2>=0.000
      49 -> 54        -0.31175
      50 -> 54        -0.20298
      50 -> 55         0.45950
      50 -> 56         0.17164
      51 -> 54         0.13502
      51 -> 56         0.16785
      52 -> 55         0.12296
      52 -> 56        -0.14901

 The electronic state is 1-A.
 Alpha  occ. eigenvalues --  -77.07968 -10.19392 -10.19299 -10.19192 -10.19094
 Alpha  occ. eigenvalues --  -10.19069 -10.19058 -10.19012 -10.19002 -10.18964
 Alpha  occ. eigenvalues --  -10.18942 -10.18899 -10.18857 -10.18421  -6.54710
 Alpha  occ. eigenvalues --   -4.70976  -4.70963  -4.70459  -0.85270  -0.84774
 Alpha  occ. eigenvalues --   -0.76468  -0.74321  -0.74255  -0.73796  -0.70921
 Alpha  occ. eigenvalues --   -0.62338  -0.60252  -0.59977  -0.59281  -0.55060
 Alpha  occ. eigenvalues --   -0.51448  -0.49651  -0.45409  -0.44650  -0.44597
 Alpha  occ. eigenvalues --   -0.44242  -0.42401  -0.42080  -0.41684  -0.41109
 Alpha  occ. eigenvalues --   -0.38955  -0.37870  -0.36382  -0.36119  -0.34369
 Alpha  occ. eigenvalues --   -0.34240  -0.32560  -0.31576  -0.26446  -0.25180
 Alpha  occ. eigenvalues --   -0.25018  -0.24725  -0.21380
 Alpha virt. eigenvalues --   -0.01530  -0.00807  -0.00419   0.00542   0.06283
 Alpha virt. eigenvalues --    0.07175   0.09234   0.10908   0.12717   0.13593
 Alpha virt. eigenvalues --    0.14142   0.14682   0.15148   0.15528   0.16193

 Mulliken charges:
               1
     1  P    0.507434
     2  C   -0.067074
     3  C   -0.143094
     4  C   -0.115325
     5  C   -0.121486
     6  C   -0.112990
     7  C   -0.159615
     8  C   -0.150319
     9  C   -0.192326
    10  C   -0.109906
    11  C   -0.192804
    12  C   -0.134770
    13  C   -0.175811
    14  C   -0.640362
    15  H    0.161057
    16  H    0.203728
    17  H    0.215672
    18  H    0.168977
    19  H    0.152419
    20  H    0.153132
    21  H    0.149089
    22  H    0.148061
    23  H    0.087302
    24  H    0.100150
    25  H    0.085470
    26  H    0.093447
    27  H    0.089946
 Sum of Mulliken charges =  -0.00000

 Dipole moment (field-independent basis, Debye):
    X=              7.0125    Y=              2.3415    Z=             -0.4368  Tot=              7.4060
 Quadrupole moment (field-independent basis, Debye-Ang):
   XX=            -91.9213   YY=            -83.0673   ZZ=            -86.8629
   XY=             -6.4539   XZ=              4.1107   YZ=              1.5641

 Summary of Natural Population Analysis:

                                       Natural Population
                Natural  -----------------------------------------------
    Atom  No    Charge         Core      Valence    Rydberg      Total
 -----------------------------------------------------------------------
      P    1    1.26000      9.99755     3.69256    0.04989    13.74000
      C    2   -0.37064      1.99892     4.34848    0.02324     6.37064
      C    3   -0.18252      1.99902     4.16710    0.01640     6.18252
      C    4   -0.23275      1.99910     4.21948    0.01417     6.23275
      C    5   -0.19000      1.99909     4.17685    0.01406     6.19000
      C    6   -0.22552      1.99910     4.21218    0.01424     6.22552
      C    7   -0.21164      1.99900     4.19729    0.01535     6.21164
      C    8   -0.53828      1.99883     4.51454    0.02492     6.53828
      C    9   -0.30987      1.99898     4.29111    0.01977     6.30987
      C   10   -0.21948      1.99908     4.20594    0.01445     6.21948
      C   11   -0.34757      1.99910     4.33068    0.01779     6.34757
      C   12   -0.26954      1.99910     4.25451    0.01594     6.26954
      C   13   -0.23974      1.99902     4.22466    0.01606     6.23974
      C   14   -1.03466      1.99946     5.02409    0.01111     7.03466
      H   15    0.23976      0.00000     0.75841    0.00183     0.76024
      H   16    0.27450      0.00000     0.72481    0.00069     0.72550
      H   17    0.27675      0.00000     0.72215    0.00109     0.72325
      H   18    0.25532      0.00000     0.74309    0.00159     0.74468
      H   19    0.24842      0.00000     0.75080    0.00078     0.75158
      H   20    0.24449      0.00000     0.75472    0.00079     0.75551
      H   21    0.24609      0.00000     0.75308    0.00083     0.75391
      H   22    0.24187      0.00000     0.75690    0.00123     0.75813
      H   23    0.21296      0.00000     0.78598    0.00106     0.78704
      H   24    0.22423      0.00000     0.77491    0.00086     0.77577
      H   25    0.21566      0.00000     0.78356    0.00078     0.78434
      H   26    0.22041      0.00000     0.77873    0.00086     0.77959
      H   27    0.21173      0.00000     0.78754    0.00073     0.78827
 =======================================================================
   * Total *    0.00000     35.98536    69.73413    0.28051   106.00000

 Normal termination of Gaussian 16 at Thu Mar  7 06:34:36 2019.
