 Gaussian 16, Revision A.03,

 ---------------------------------
 # opt=CalcFc B3LYP/6-31G* scf=xqc
 ---------------------------------

 -------------------
 Title Card Required
 -------------------
 Symbolic Z-matrix:
 Charge =  0 Multiplicity = 1

 SCF Done:  E(RB3LYP) =  -844.560477699     A.U. after   14 cycles
 SCF Done:  E(RB3LYP) =  -844.564036850     A.U. after   14 cycles
 SCF Done:  E(RB3LYP) =  -844.562549684     A.U. after   15 cycles
 SCF Done:  E(RB3LYP) =  -844.564270847     A.U. after   12 cycles
 SCF Done:  E(RB3LYP) =  -844.564288615     A.U. after   10 cycles
 SCF Done:  E(RB3LYP) =  -844.564313206     A.U. after   12 cycles
 SCF Done:  E(RB3LYP) =  -844.564321685     A.U. after   11 cycles
 SCF Done:  E(RB3LYP) =  -844.564328890     A.U. after   12 cycles
 SCF Done:  E(RB3LYP) =  -844.564329448     A.U. after    9 cycles
 SCF Done:  E(RB3LYP) =  -844.564329550     A.U. after    8 cycles
 Optimization completed.
    -- Stationary point found.
 Normal termination of Gaussian 16 at Wed Feb 27 03:52:30 2019.

 ----------------------------------------------------------------------
 # freq B3LYP/6-31G* volume NMR pop=NPA density=current Geom=AllCheck G
 uess=Read
 ----------------------------------------------------------------------

 Structure from the checkpoint file:  "direct_arylation_ligand_62_conf172.chk"
 -------------------
 Title Card Required
 -------------------
 Charge =  0 Multiplicity = 1

 SCF Done:  E(RB3LYP) =  -844.564329550     A.U. after    1 cycles

      1  P    Isotropic =   385.0757   Anisotropy =    60.2340

      2  C    Isotropic =    52.7824   Anisotropy =   183.2158

      3  C    Isotropic =    62.6097   Anisotropy =   166.8374

      4  C    Isotropic =    68.8103   Anisotropy =   164.5513

      5  C    Isotropic =    69.4154   Anisotropy =   165.2681

      6  C    Isotropic =    68.8481   Anisotropy =   164.0558

      7  C    Isotropic =    67.9801   Anisotropy =   167.4358

      8  C    Isotropic =    51.8706   Anisotropy =   182.8447

      9  C    Isotropic =    62.8741   Anisotropy =   171.1477

     10  C    Isotropic =    68.2793   Anisotropy =   164.2385

     11  C    Isotropic =    67.5049   Anisotropy =   168.3017

     12  C    Isotropic =    69.1690   Anisotropy =   163.2078

     13  C    Isotropic =    60.5059   Anisotropy =   159.8404

     14  C    Isotropic =   173.0237   Anisotropy =    19.3254

     15  H    Isotropic =    30.7451   Anisotropy =    10.5232

     16  H    Isotropic =    31.0017   Anisotropy =     8.5244

     17  H    Isotropic =    30.7058   Anisotropy =     7.2628

     18  H    Isotropic =    24.9784   Anisotropy =    10.0498

     19  H    Isotropic =    25.0471   Anisotropy =     4.9718

     20  H    Isotropic =    25.0797   Anisotropy =     3.7302

     21  H    Isotropic =    24.9266   Anisotropy =     4.8985

     22  H    Isotropic =    24.8797   Anisotropy =     9.9842

     23  H    Isotropic =    25.1715   Anisotropy =    11.3357

     24  H    Isotropic =    25.0794   Anisotropy =     5.9088

     25  H    Isotropic =    25.0152   Anisotropy =     3.8946

     26  H    Isotropic =    24.9615   Anisotropy =     4.4623

     27  H    Isotropic =    24.4816   Anisotropy =     7.9892

  Exact polarizability: 201.371   1.862 138.256  20.884   1.679 117.922
 Approx polarizability: 285.408   3.894 225.366  48.291   5.092 209.266

                      1                      2                      3
                      A                      A                      A
 Frequencies --     19.6578                29.9659                55.9423
 Red. masses --      3.7893                 3.8337                 5.0666
 Frc consts  --      0.0009                 0.0020                 0.0093
 IR Inten    --      0.2498                 0.0668                 0.0708

                      4                      5                      6
                      A                      A                      A
 Frequencies --    117.5893               178.5822               186.9120
 Red. masses --      3.3697                 3.4629                 3.6205
 Frc consts  --      0.0275                 0.0651                 0.0745
 IR Inten    --      0.5136                 0.7297                 0.2037

                      7                      8                      9
                      A                      A                      A
 Frequencies --    233.3584               246.4243               267.1294
 Red. masses --      1.8309                 1.6573                 3.6682
 Frc consts  --      0.0587                 0.0593                 0.1542
 IR Inten    --      0.4882                 0.3051                 0.1576

                     10                     11                     12
                      A                      A                      A
 Frequencies --    323.2034               396.5621               408.1609
 Red. masses --      4.4969                 5.9074                 3.1694
 Frc consts  --      0.2768                 0.5474                 0.3111
 IR Inten    --      2.2787                 2.7509                 2.8901

                     13                     14                     15
                      A                      A                      A
 Frequencies --    412.6993               419.7832               488.2699
 Red. masses --      3.0647                 6.9763                 3.5147
 Frc consts  --      0.3075                 0.7243                 0.4937
 IR Inten    --      0.6193                 8.2547                10.4582

                     16                     17                     18
                      A                      A                      A
 Frequencies --    515.9398               632.6627               633.0554
 Red. masses --      3.9374                 6.4093                 6.4011
 Frc consts  --      0.6175                 1.5115                 1.5114
 IR Inten    --     12.4227                 0.1769                 0.0924

                     19                     20                     21
                      A                      A                      A
 Frequencies --    674.2192               702.6882               705.0753
 Red. masses --      5.3392                 6.1946                 4.9263
 Frc consts  --      1.4300                 1.8021                 1.4429
 IR Inten    --      8.3444                 0.9788                 3.2561

                     22                     23                     24
                      A                      A                      A
 Frequencies --    712.0452               713.7117               757.4316
 Red. masses --      2.2696                 2.0648                 1.5779
 Frc consts  --      0.6780                 0.6197                 0.5333
 IR Inten    --     20.8496                26.9078                35.5822

                     25                     26                     27
                      A                      A                      A
 Frequencies --    763.0339               861.1787               867.3800
 Red. masses --      1.7189                 1.2514                 1.2452
 Frc consts  --      0.5896                 0.5468                 0.5520
 IR Inten    --     13.6388                 0.1860                 0.0193

                     28                     29                     30
                      A                      A                      A
 Frequencies --    910.2542               919.8569               922.6437
 Red. masses --      1.3086                 1.2937                 1.3544
 Frc consts  --      0.6388                 0.6449                 0.6793
 IR Inten    --     24.9546                28.3938                 1.4260

                     31                     32                     33
                      A                      A                      A
 Frequencies --    936.7042               969.7258               977.1914
 Red. masses --      1.3619                 1.3597                 1.3601
 Frc consts  --      0.7040                 0.7534                 0.7652
 IR Inten    --      4.6151                 0.0626                 0.1024

                     34                     35                     36
                      A                      A                      A
 Frequencies --    996.8329              1001.2396              1015.2366
 Red. masses --      1.2506                 1.2591                 6.2349
 Frc consts  --      0.7322                 0.7437                 3.7863
 IR Inten    --      0.1420                 0.0538                 1.2335

                     37                     38                     39
                      A                      A                      A
 Frequencies --   1015.9827              1052.1443              1054.4502
 Red. masses --      6.2496                 3.2221                 3.1932
 Frc consts  --      3.8008                 2.1015                 2.0918
 IR Inten    --      2.5448                 1.0733                 1.1878

                     40                     41                     42
                      A                      A                      A
 Frequencies --   1106.2698              1112.2018              1113.0474
 Red. masses --      1.7290                 1.7334                 2.4351
 Frc consts  --      1.2467                 1.2633                 1.7775
 IR Inten    --      1.6946                 2.3985                13.3460

                     43                     44                     45
                      A                      A                      A
 Frequencies --   1117.9889              1193.4829              1194.2044
 Red. masses --      2.5275                 1.1026                 1.0987
 Frc consts  --      1.8613                 0.9254                 0.9232
 IR Inten    --      2.1400                 0.0064                 0.0647

                     46                     47                     48
                      A                      A                      A
 Frequencies --   1216.9048              1223.4373              1323.7473
 Red. masses --      1.1444                 1.1502                 3.2579
 Frc consts  --      0.9985                 1.0144                 3.3635
 IR Inten    --      3.9175                 0.6688                 2.3593

                     49                     50                     51
                      A                      A                      A
 Frequencies --   1331.6652              1351.3840              1363.1567
 Red. masses --      3.3536                 1.2958                 1.7088
 Frc consts  --      3.5039                 1.3943                 1.8708
 IR Inten    --      2.8854                 2.1914                 1.4905

                     52                     53                     54
                      A                      A                      A
 Frequencies --   1371.5887              1479.5011              1482.4662
 Red. masses --      1.5137                 2.0991                 2.0753
 Frc consts  --      1.6778                 2.7072                 2.6872
 IR Inten    --      2.1491                12.2398                 5.4990

                     55                     56                     57
                      A                      A                      A
 Frequencies --   1501.1011              1502.2234              1530.8734
 Red. masses --      1.0619                 1.0627                 2.0236
 Frc consts  --      1.4098                 1.4130                 2.7941
 IR Inten    --      4.1959                16.7133                 4.9284

                     58                     59                     60
                      A                      A                      A
 Frequencies --   1534.8451              1630.0404              1632.4698
 Red. masses --      1.9731                 5.0202                 5.1792
 Frc consts  --      2.7386                 7.8590                 8.1321
 IR Inten    --      6.4938                 1.1120                 0.2825

                     61                     62                     63
                      A                      A                      A
 Frequencies --   1646.7275              1649.4780              3049.4905
 Red. masses --      5.3166                 5.2603                 1.0329
 Frc consts  --      8.4943                 8.4324                 5.6592
 IR Inten    --      1.7927                 3.4220                12.5537

                     64                     65                     66
                      A                      A                      A
 Frequencies --   3131.3131              3138.0991              3174.8869
 Red. masses --      1.1045                 1.1020                 1.0855
 Frc consts  --      6.3805                 6.3941                 6.4465
 IR Inten    --     12.2633                 8.6867                 3.7831

                     67                     68                     69
                      A                      A                      A
 Frequencies --   3176.3204              3181.6264              3182.0134
 Red. masses --      1.0847                 1.0871                 1.0872
 Frc consts  --      6.4480                 6.4835                 6.4859
 IR Inten    --      1.4536                 0.5361                 0.2208

                     70                     71                     72
                      A                      A                      A
 Frequencies --   3190.9686              3192.1209              3198.2079
 Red. masses --      1.0907                 1.0916                 1.0939
 Frc consts  --      6.5432                 6.5538                 6.5926
 IR Inten    --      9.6600                21.0437                33.3698

                     73                     74                     75
                      A                      A                      A
 Frequencies --   3203.7100              3207.1106              3210.6049
 Red. masses --      1.0936                 1.0979                 1.0954
 Frc consts  --      6.6135                 6.6536                 6.6527
 IR Inten    --     34.2027                31.3428                18.4787

 - Thermochemistry -
 -------------------
 Temperature   298.150 Kelvin.  Pressure   1.00000 Atm.
 Atom     1 has atomic number 15 and mass  30.97376

 Molecular mass:   200.07549 amu.
 Principal axes and moments of inertia in atomic units:
                           1         2         3
     Eigenvalues --  1569.845864673.615095299.42296
           X            0.99999   0.00071   0.00536
           Y           -0.00047   0.99898  -0.04505
           Z           -0.00538   0.04505   0.99897
 This molecule is an asymmetric top.
 Rotational symmetry number  1.
 Warning -- assumption of classical behavior for rotation
           may cause significant error
 Rotational temperatures (Kelvin)      0.05517     0.01853     0.01634
 Rotational constants (GHZ):           1.14963     0.38616     0.34055
 Zero-point vibrational energy     579831.2 (Joules/Mol)
                                  138.58298 (Kcal/Mol)
 Warning -- explicit consideration of  16 degrees of freedom as
           vibrations may cause significant error
 Vibrational temperatures:     28.28    43.11    80.49   169.18   256.94
          (Kelvin)            268.92   335.75   354.55   384.34   465.02
                              570.56   587.25   593.78   603.97   702.51
                              742.32   910.26   910.83   970.05  1011.01
                             1014.45  1024.47  1026.87  1089.78  1097.84
                             1239.04  1247.97  1309.65  1323.47  1327.48
                             1347.71  1395.22  1405.96  1434.22  1440.56
                             1460.70  1461.77  1513.80  1517.12  1591.68
                             1600.21  1601.43  1608.54  1717.16  1718.19
                             1750.85  1760.25  1904.58  1915.97  1944.34
                             1961.28  1973.41  2128.67  2132.94  2159.75
                             2161.36  2202.59  2208.30  2345.26  2348.76
                             2369.27  2373.23  4387.54  4505.26  4515.02
                             4567.95  4570.02  4577.65  4578.21  4591.09
                             4592.75  4601.51  4609.42  4614.32  4619.34

 Zero-point correction=                           0.220846 (Hartree/Particle)
 Thermal correction to Energy=                    0.233542
 Thermal correction to Enthalpy=                  0.234486
 Thermal correction to Gibbs Free Energy=         0.179771
 Sum of electronic and zero-point Energies=           -844.343484
 Sum of electronic and thermal Energies=              -844.330788
 Sum of electronic and thermal Enthalpies=            -844.329843
 Sum of electronic and thermal Free Energies=         -844.384559

                     E (Thermal)             CV                S
                      KCal/Mol        Cal/Mol-Kelvin    Cal/Mol-Kelvin
 Total                  146.550             49.332            115.158
 Electronic               0.000              0.000              0.000
 Translational            0.889              2.981             41.785
 Rotational               0.889              2.981             32.031
 Vibrational            144.772             43.370             41.342
 Vibration     1          0.593              1.986              6.668
 Vibration     2          0.594              1.984              5.832
 Vibration     3          0.596              1.975              4.595
 Vibration     4          0.608              1.935              3.140
 Vibration     5          0.629              1.869              2.343
 Vibration     6          0.632              1.858              2.258
 Vibration     7          0.654              1.790              1.853
 Vibration     8          0.661              1.769              1.756
 Vibration     9          0.672              1.733              1.615
 Vibration    10          0.708              1.629              1.294
 Vibration    11          0.763              1.478              0.975
 Vibration    12          0.773              1.452              0.933
 Vibration    13          0.776              1.443              0.917
 Vibration    14          0.782              1.427              0.893
 Vibration    15          0.844              1.276              0.688
 Vibration    16          0.871              1.215              0.619

 Optimization completed.
    -- Stationary point found.
 Normal termination of Gaussian 16 at Wed Feb 27 03:57:41 2019.
 Gaussian 16:  ES64L-G16RevA.03 25-Dec-2016

 ----------------------------------------------------------------------
 # TD(NStates=10, Root=1) B3LYP/6-31G* volume pop=NPA density=current G
 eom=AllCheck Guess=Read
 ----------------------------------------------------------------------

 Structure from the checkpoint file:  "direct_arylation_ligand_62_conf173.chk"
 -------------------
 Title Card Required
 -------------------
 Charge =  0 Multiplicity = 1

                         Standard orientation:
 ---------------------------------------------------------------------
 Center     Atomic      Atomic             Coordinates (Angstroms)
 Number     Number       Type             X           Y           Z
 ---------------------------------------------------------------------
      1         15           0        0.036639    1.368991    0.701808
      2          6           0       -1.434460    0.318960    0.299765
      3          6           0       -1.640320   -0.842323    1.066828
      4          6           0       -2.760272   -1.646087    0.867258
      5          6           0       -3.712746   -1.296852   -0.094164
      6          6           0       -3.530359   -0.141610   -0.852606
      7          6           0       -2.400227    0.658219   -0.659391
      8          6           0        1.438387    0.263250    0.190271
      9          6           0        1.386383   -0.597730   -0.917920
     10          6           0        2.489350   -1.376991   -1.265589
     11          6           0        3.664132   -1.306977   -0.511707
     12          6           0        3.728536   -0.458120    0.593258
     13          6           0        2.620428    0.317229    0.943406
     14          6           0        0.056460    2.585622   -0.714272
     15          1           0       -0.766197    3.300226   -0.605974
     16          1           0        0.994778    3.146155   -0.657450
     17          1           0       -0.005038    2.108913   -1.698582
     18          1           0       -0.911561   -1.121130    1.824740
     19          1           0       -2.893839   -2.543263    1.466339
     20          1           0       -4.590611   -1.919134   -0.246256
     21          1           0       -4.265925    0.140695   -1.601776
     22          1           0       -2.280387    1.550300   -1.266550
     23          1           0        0.474204   -0.665825   -1.504951
     24          1           0        2.433087   -2.040694   -2.124853
     25          1           0        4.522638   -1.915903   -0.783034
     26          1           0        4.637033   -0.403422    1.187589
     27          1           0        2.670462    0.968677    1.812811
 ---------------------------------------------------------------------

 SCF Done:  E(RB3LYP) =  -844.564329550     A.U. after    1 cycles

 Excitation energies and oscillator strengths:

 Excited State   1:      Singlet-A      4.6038 eV  269.31 nm  f=0.0434  <S**2>=0.000
      53 -> 54         0.68726
      53 -> 55         0.11731
 This state for optimization and/or second-order correction.
 Total Energy, E(TD-HF/TD-DFT) =  -844.395142439
 Copying the excited state density for this state as the 1-particle RhoCI density.

 Excited State   2:      Singlet-A      4.8957 eV  253.25 nm  f=0.0129  <S**2>=0.000
      51 -> 55         0.10647
      52 -> 54         0.13682
      52 -> 55        -0.11095
      53 -> 55         0.22384
      53 -> 56         0.62622

 Excited State   3:      Singlet-A      5.0081 eV  247.57 nm  f=0.1456  <S**2>=0.000
      53 -> 54        -0.10796
      53 -> 55         0.61715
      53 -> 56        -0.19977
      53 -> 57         0.18838

 Excited State   4:      Singlet-A      5.1448 eV  240.99 nm  f=0.0380  <S**2>=0.000
      50 -> 55         0.12106
      51 -> 54         0.20882
      52 -> 55         0.13439
      52 -> 56        -0.10060
      53 -> 55        -0.16887
      53 -> 56         0.12454
      53 -> 57         0.59536

 Excited State   5:      Singlet-A      5.4214 eV  228.70 nm  f=0.0047  <S**2>=0.000
      50 -> 55         0.19236
      50 -> 56         0.26447
      50 -> 57         0.20849
      51 -> 54         0.36828
      51 -> 55         0.15858
      52 -> 54         0.31109
      52 -> 56        -0.15551
      52 -> 57        -0.12167
      53 -> 56        -0.12022
      53 -> 57        -0.16397

 Excited State   6:      Singlet-A      5.7387 eV  216.05 nm  f=0.0117  <S**2>=0.000
      49 -> 56        -0.20557
      49 -> 57         0.15891
      50 -> 54         0.15957
      51 -> 54        -0.32345
      52 -> 54         0.48548
      53 -> 57         0.18581

 Excited State   7:      Singlet-A      5.8269 eV  212.78 nm  f=0.0124  <S**2>=0.000
      49 -> 56         0.24856
      49 -> 57        -0.18014
      51 -> 54        -0.14179
      51 -> 55        -0.13179
      51 -> 56         0.11206
      52 -> 54         0.18633
      52 -> 55         0.51482
      53 -> 57        -0.14836

 Excited State   8:      Singlet-A      5.8571 eV  211.68 nm  f=0.0221  <S**2>=0.000
      49 -> 54        -0.18058
      49 -> 56        -0.10109
      50 -> 54         0.46217
      50 -> 55        -0.34305
      50 -> 56         0.16432
      51 -> 56        -0.10986
      52 -> 54        -0.14553
      52 -> 56        -0.19507

 Excited State   9:      Singlet-A      5.9281 eV  209.15 nm  f=0.0005  <S**2>=0.000
      50 -> 54        -0.16601
      51 -> 54        -0.20642
      51 -> 55         0.57162
      51 -> 56        -0.12198
      52 -> 55         0.21529
      52 -> 56        -0.13295

 Excited State  10:      Singlet-A      5.9924 eV  206.90 nm  f=0.0264  <S**2>=0.000
      49 -> 54        -0.31158
      50 -> 54         0.20341
      50 -> 55         0.45954
      50 -> 56        -0.17124
      51 -> 54        -0.13442
      51 -> 56        -0.16788
      52 -> 55        -0.12309
      52 -> 56        -0.14950

 The electronic state is 1-A.
 Alpha  occ. eigenvalues --  -77.07969 -10.19393 -10.19299 -10.19192 -10.19094
 Alpha  occ. eigenvalues --  -10.19069 -10.19058 -10.19012 -10.19002 -10.18964
 Alpha  occ. eigenvalues --  -10.18942 -10.18899 -10.18857 -10.18421  -6.54711
 Alpha  occ. eigenvalues --   -4.70976  -4.70963  -4.70460  -0.85270  -0.84774
 Alpha  occ. eigenvalues --   -0.76468  -0.74321  -0.74256  -0.73796  -0.70921
 Alpha  occ. eigenvalues --   -0.62338  -0.60252  -0.59977  -0.59281  -0.55060
 Alpha  occ. eigenvalues --   -0.51448  -0.49651  -0.45409  -0.44649  -0.44597
 Alpha  occ. eigenvalues --   -0.44242  -0.42401  -0.42079  -0.41685  -0.41109
 Alpha  occ. eigenvalues --   -0.38955  -0.37870  -0.36382  -0.36120  -0.34369
 Alpha  occ. eigenvalues --   -0.34240  -0.32560  -0.31576  -0.26446  -0.25180
 Alpha  occ. eigenvalues --   -0.25018  -0.24725  -0.21380
 Alpha virt. eigenvalues --   -0.01530  -0.00807  -0.00420   0.00542   0.06283
 Alpha virt. eigenvalues --    0.07174   0.09234   0.10908   0.12717   0.13593
 Alpha virt. eigenvalues --    0.14142   0.14681   0.15148   0.15527   0.16193

 Mulliken charges:
               1
     1  P    0.507419
     2  C   -0.067099
     3  C   -0.143108
     4  C   -0.115321
     5  C   -0.121490
     6  C   -0.113002
     7  C   -0.159607
     8  C   -0.150316
     9  C   -0.192321
    10  C   -0.109909
    11  C   -0.192793
    12  C   -0.134764
    13  C   -0.175812
    14  C   -0.640353
    15  H    0.161065
    16  H    0.203742
    17  H    0.215643
    18  H    0.168979
    19  H    0.152414
    20  H    0.153125
    21  H    0.149083
    22  H    0.148058
    23  H    0.087322
    24  H    0.100157
    25  H    0.085480
    26  H    0.093455
    27  H    0.089955
 Sum of Mulliken charges =  -0.00000

 Dipole moment (field-independent basis, Debye):
    X=             -7.0108    Y=              2.3412    Z=              0.4364  Tot=              7.4043
 Quadrupole moment (field-independent basis, Debye-Ang):
   XX=            -91.9188   YY=            -83.0671   ZZ=            -86.8658
   XY=              6.4530   XZ=              4.1103   YZ=             -1.5637

 Summary of Natural Population Analysis:

                                       Natural Population
                Natural  -----------------------------------------------
    Atom  No    Charge         Core      Valence    Rydberg      Total
 -----------------------------------------------------------------------
      P    1    1.25995      9.99755     3.69261    0.04989    13.74005
      C    2   -0.37066      1.99892     4.34850    0.02324     6.37066
      C    3   -0.18255      1.99902     4.16713    0.01640     6.18255
      C    4   -0.23274      1.99910     4.21947    0.01417     6.23274
      C    5   -0.19001      1.99909     4.17686    0.01406     6.19001
      C    6   -0.22553      1.99910     4.21219    0.01424     6.22553
      C    7   -0.21163      1.99900     4.19728    0.01535     6.21163
      C    8   -0.53825      1.99883     4.51450    0.02492     6.53825
      C    9   -0.30984      1.99898     4.29109    0.01977     6.30984
      C   10   -0.21948      1.99908     4.20594    0.01445     6.21948
      C   11   -0.34754      1.99910     4.33065    0.01779     6.34754
      C   12   -0.26954      1.99910     4.25450    0.01594     6.26954
      C   13   -0.23974      1.99902     4.22466    0.01606     6.23974
      C   14   -1.03464      1.99946     5.02408    0.01111     7.03464
      H   15    0.23977      0.00000     0.75840    0.00183     0.76023
      H   16    0.27451      0.00000     0.72480    0.00069     0.72549
      H   17    0.27673      0.00000     0.72218    0.00109     0.72327
      H   18    0.25533      0.00000     0.74309    0.00159     0.74467
      H   19    0.24842      0.00000     0.75080    0.00078     0.75158
      H   20    0.24449      0.00000     0.75472    0.00079     0.75551
      H   21    0.24608      0.00000     0.75308    0.00083     0.75392
      H   22    0.24187      0.00000     0.75690    0.00123     0.75813
      H   23    0.21297      0.00000     0.78597    0.00106     0.78703
      H   24    0.22423      0.00000     0.77490    0.00086     0.77577
      H   25    0.21567      0.00000     0.78355    0.00078     0.78433
      H   26    0.22042      0.00000     0.77873    0.00086     0.77958
      H   27    0.21173      0.00000     0.78753    0.00073     0.78827
 =======================================================================
   * Total *   -0.00000     35.98536    69.73413    0.28052   106.00000

 Normal termination of Gaussian 16 at Wed Feb 27 04:03:59 2019.
