 Gaussian 16, Revision A.03,

 ---------------------------------
 # opt=CalcFc B3LYP/6-31G* scf=xqc
 ---------------------------------

 -------------------
 Title Card Required
 -------------------
 Symbolic Z-matrix:
 Charge =  0 Multiplicity = 1

 SCF Done:  E(RB3LYP) =  -844.560592515     A.U. after   14 cycles
 SCF Done:  E(RB3LYP) =  -844.563969222     A.U. after   14 cycles
 SCF Done:  E(RB3LYP) =  -844.563322955     A.U. after   14 cycles
 SCF Done:  E(RB3LYP) =  -844.564228517     A.U. after   12 cycles
 SCF Done:  E(RB3LYP) =  -844.564291953     A.U. after   12 cycles
 SCF Done:  E(RB3LYP) =  -844.564316424     A.U. after   12 cycles
 SCF Done:  E(RB3LYP) =  -844.564327645     A.U. after   12 cycles
 SCF Done:  E(RB3LYP) =  -844.564328657     A.U. after    9 cycles
 SCF Done:  E(RB3LYP) =  -844.564329501     A.U. after   10 cycles
 SCF Done:  E(RB3LYP) =  -844.564329552     A.U. after    7 cycles
 Optimization completed.
    -- Stationary point found.
 Normal termination of Gaussian 16 at Wed Feb 27 03:57:11 2019.

 ----------------------------------------------------------------------
 # freq B3LYP/6-31G* volume NMR pop=NPA density=current Geom=AllCheck G
 uess=Read
 ----------------------------------------------------------------------

 Structure from the checkpoint file:  "direct_arylation_ligand_62_conf262.chk"
 -------------------
 Title Card Required
 -------------------
 Charge =  0 Multiplicity = 1

 SCF Done:  E(RB3LYP) =  -844.564329552     A.U. after    1 cycles

      1  P    Isotropic =   385.0693   Anisotropy =    60.2264

      2  C    Isotropic =    52.7884   Anisotropy =   183.2192

      3  C    Isotropic =    62.6053   Anisotropy =   166.8341

      4  C    Isotropic =    68.8103   Anisotropy =   164.5521

      5  C    Isotropic =    69.4142   Anisotropy =   165.2698

      6  C    Isotropic =    68.8485   Anisotropy =   164.0564

      7  C    Isotropic =    67.9826   Anisotropy =   167.4375

      8  C    Isotropic =    51.8678   Anisotropy =   182.8435

      9  C    Isotropic =    62.8767   Anisotropy =   171.1514

     10  C    Isotropic =    68.2791   Anisotropy =   164.2387

     11  C    Isotropic =    67.5057   Anisotropy =   168.3002

     12  C    Isotropic =    69.1700   Anisotropy =   163.2059

     13  C    Isotropic =    60.5037   Anisotropy =   159.8406

     14  C    Isotropic =   173.0296   Anisotropy =    19.3266

     15  H    Isotropic =    30.7453   Anisotropy =    10.5216

     16  H    Isotropic =    31.0012   Anisotropy =     8.5267

     17  H    Isotropic =    30.7061   Anisotropy =     7.2643

     18  H    Isotropic =    24.9781   Anisotropy =    10.0495

     19  H    Isotropic =    25.0471   Anisotropy =     4.9716

     20  H    Isotropic =    25.0795   Anisotropy =     3.7302

     21  H    Isotropic =    24.9265   Anisotropy =     4.8982

     22  H    Isotropic =    24.8795   Anisotropy =     9.9824

     23  H    Isotropic =    25.1724   Anisotropy =    11.3367

     24  H    Isotropic =    25.0796   Anisotropy =     5.9094

     25  H    Isotropic =    25.0153   Anisotropy =     3.8946

     26  H    Isotropic =    24.9616   Anisotropy =     4.4623

     27  H    Isotropic =    24.4816   Anisotropy =     7.9903

  Exact polarizability: 201.353  -1.873 138.265  20.886  -1.683 117.925
 Approx polarizability: 285.385  -3.919 225.379  48.294  -5.104 209.273

                      1                      2                      3
                      A                      A                      A
 Frequencies --     19.6732                29.9297                55.9431
 Red. masses --      3.7898                 3.8331                 5.0666
 Frc consts  --      0.0009                 0.0020                 0.0093
 IR Inten    --      0.2504                 0.0664                 0.0708

                      4                      5                      6
                      A                      A                      A
 Frequencies --    117.5829               178.5676               186.9059
 Red. masses --      3.3695                 3.4614                 3.6213
 Frc consts  --      0.0274                 0.0650                 0.0745
 IR Inten    --      0.5137                 0.7295                 0.2036

                      7                      8                      9
                      A                      A                      A
 Frequencies --    233.3190               246.3929               267.1282
 Red. masses --      1.8299                 1.6580                 3.6687
 Frc consts  --      0.0587                 0.0593                 0.1542
 IR Inten    --      0.4884                 0.3060                 0.1576

                     10                     11                     12
                      A                      A                      A
 Frequencies --    323.1929               396.5615               408.1584
 Red. masses --      4.4974                 5.9084                 3.1697
 Frc consts  --      0.2768                 0.5474                 0.3111
 IR Inten    --      2.2776                 2.7565                 2.8925

                     13                     14                     15
                      A                      A                      A
 Frequencies --    412.6965               419.7857               488.2725
 Red. masses --      3.0645                 6.9755                 3.5146
 Frc consts  --      0.3075                 0.7242                 0.4937
 IR Inten    --      0.6164                 8.2458                10.4576

                     16                     17                     18
                      A                      A                      A
 Frequencies --    515.9259               632.6622               633.0546
 Red. masses --      3.9374                 6.4093                 6.4011
 Frc consts  --      0.6175                 1.5115                 1.5114
 IR Inten    --     12.4238                 0.1768                 0.0927

                     19                     20                     21
                      A                      A                      A
 Frequencies --    674.2142               702.6871               705.0908
 Red. masses --      5.3391                 6.1967                 4.9266
 Frc consts  --      1.4299                 1.8028                 1.4431
 IR Inten    --      8.3463                 0.9706                 3.2578

                     22                     23                     24
                      A                      A                      A
 Frequencies --    712.0442               713.7071               757.4347
 Red. masses --      2.2693                 2.0650                 1.5778
 Frc consts  --      0.6779                 0.6197                 0.5333
 IR Inten    --     20.8469                26.9176                35.5917

                     25                     26                     27
                      A                      A                      A
 Frequencies --    763.0327               861.1923               867.3713
 Red. masses --      1.7188                 1.2514                 1.2452
 Frc consts  --      0.5896                 0.5468                 0.5520
 IR Inten    --     13.6403                 0.1857                 0.0193

                     28                     29                     30
                      A                      A                      A
 Frequencies --    910.2593               919.8365               922.6507
 Red. masses --      1.3086                 1.2937                 1.3544
 Frc consts  --      0.6388                 0.6449                 0.6793
 IR Inten    --     24.9316                28.4014                 1.4400

                     31                     32                     33
                      A                      A                      A
 Frequencies --    936.6992               969.7337               977.1839
 Red. masses --      1.3619                 1.3597                 1.3601
 Frc consts  --      0.7040                 0.7534                 0.7652
 IR Inten    --      4.6224                 0.0628                 0.1021

                     34                     35                     36
                      A                      A                      A
 Frequencies --    996.8372              1001.2370              1015.2382
 Red. masses --      1.2506                 1.2591                 6.2351
 Frc consts  --      0.7322                 0.7437                 3.7864
 IR Inten    --      0.1422                 0.0536                 1.2320

                     37                     38                     39
                      A                      A                      A
 Frequencies --   1015.9819              1052.1433              1054.4484
 Red. masses --      6.2493                 3.2222                 3.1929
 Frc consts  --      3.8006                 2.1016                 2.0916
 IR Inten    --      2.5451                 1.0736                 1.1869

                     40                     41                     42
                      A                      A                      A
 Frequencies --   1106.2660              1112.2038              1113.0484
 Red. masses --      1.7294                 1.7338                 2.4315
 Frc consts  --      1.2470                 1.2637                 1.7748
 IR Inten    --      1.6980                 2.4482                13.2876

                     43                     44                     45
                      A                      A                      A
 Frequencies --   1117.9884              1193.4819              1194.2032
 Red. masses --      2.5294                 1.1026                 1.0987
 Frc consts  --      1.8627                 0.9254                 0.9232
 IR Inten    --      2.1428                 0.0064                 0.0648

                     46                     47                     48
                      A                      A                      A
 Frequencies --   1216.9041              1223.4324              1323.7540
 Red. masses --      1.1444                 1.1502                 3.2574
 Frc consts  --      0.9985                 1.0143                 3.3631
 IR Inten    --      3.9179                 0.6686                 2.3605

                     49                     50                     51
                      A                      A                      A
 Frequencies --   1331.6669              1351.3766              1363.1522
 Red. masses --      3.3534                 1.2958                 1.7088
 Frc consts  --      3.5037                 1.3943                 1.8708
 IR Inten    --      2.8882                 2.1912                 1.4898

                     52                     53                     54
                      A                      A                      A
 Frequencies --   1371.5864              1479.5042              1482.4658
 Red. masses --      1.5139                 2.0991                 2.0753
 Frc consts  --      1.6780                 2.7072                 2.6872
 IR Inten    --      2.1484                12.2455                 5.4936

                     55                     56                     57
                      A                      A                      A
 Frequencies --   1501.1096              1502.2045              1530.8696
 Red. masses --      1.0620                 1.0627                 2.0236
 Frc consts  --      1.4099                 1.4129                 2.7941
 IR Inten    --      4.2186                16.6915                 4.9316

                     58                     59                     60
                      A                      A                      A
 Frequencies --   1534.8472              1630.0417              1632.4647
 Red. masses --      1.9731                 5.0205                 5.1790
 Frc consts  --      2.7387                 7.8596                 8.1318
 IR Inten    --      6.4910                 1.1122                 0.2806

                     61                     62                     63
                      A                      A                      A
 Frequencies --   1646.7288              1649.4805              3049.4807
 Red. masses --      5.3167                 5.2602                 1.0329
 Frc consts  --      8.4944                 8.4323                 5.6592
 IR Inten    --      1.7942                 3.4197                12.5562

                     64                     65                     66
                      A                      A                      A
 Frequencies --   3131.3036              3138.0736              3174.8510
 Red. masses --      1.1045                 1.1020                 1.0855
 Frc consts  --      6.3805                 6.3940                 6.4465
 IR Inten    --     12.2686                 8.6751                 3.7927

                     67                     68                     69
                      A                      A                      A
 Frequencies --   3176.3221              3181.6058              3182.0220
 Red. masses --      1.0847                 1.0871                 1.0872
 Frc consts  --      6.4480                 6.4834                 6.4859
 IR Inten    --      1.4532                 0.5318                 0.2243

                     70                     71                     72
                      A                      A                      A
 Frequencies --   3190.9846              3192.1068              3198.2308
 Red. masses --      1.0907                 1.0916                 1.0939
 Frc consts  --      6.5432                 6.5537                 6.5927
 IR Inten    --      9.7292                21.0284                33.3244

                     73                     74                     75
                      A                      A                      A
 Frequencies --   3203.7026              3207.1133              3210.5948
 Red. masses --      1.0936                 1.0979                 1.0954
 Frc consts  --      6.6134                 6.6536                 6.6527
 IR Inten    --     34.1978                31.3162                18.4879

 - Thermochemistry -
 -------------------
 Temperature   298.150 Kelvin.  Pressure   1.00000 Atm.
 Atom     1 has atomic number 15 and mass  30.97376

 Molecular mass:   200.07549 amu.
 Principal axes and moments of inertia in atomic units:
                           1         2         3
     Eigenvalues --  1570.088424673.065485299.07462
           X            0.99999  -0.00072   0.00536
           Y            0.00047   0.99899   0.04503
           Z           -0.00539  -0.04503   0.99897
 This molecule is an asymmetric top.
 Rotational symmetry number  1.
 Warning -- assumption of classical behavior for rotation
           may cause significant error
 Rotational temperatures (Kelvin)      0.05516     0.01853     0.01635
 Rotational constants (GHZ):           1.14945     0.38620     0.34058
 Zero-point vibrational energy     579829.7 (Joules/Mol)
                                  138.58261 (Kcal/Mol)
 Warning -- explicit consideration of  16 degrees of freedom as
           vibrations may cause significant error
 Vibrational temperatures:     28.31    43.06    80.49   169.18   256.92
          (Kelvin)            268.92   335.69   354.50   384.34   465.00
                              570.56   587.25   593.78   603.98   702.52
                              742.30   910.26   910.82   970.04  1011.01
                             1014.47  1024.47  1026.87  1089.78  1097.83
                             1239.06  1247.95  1309.66  1323.44  1327.49
                             1347.70  1395.23  1405.95  1434.23  1440.56
                             1460.70  1461.77  1513.80  1517.12  1591.67
                             1600.21  1601.43  1608.54  1717.15  1718.19
                             1750.85  1760.25  1904.59  1915.97  1944.33
                             1961.27  1973.41  2128.68  2132.94  2159.76
                             2161.34  2202.58  2208.30  2345.27  2348.75
                             2369.28  2373.23  4387.52  4505.25  4514.99
                             4567.90  4570.02  4577.62  4578.22  4591.12
                             4592.73  4601.54  4609.41  4614.32  4619.33

 Zero-point correction=                           0.220845 (Hartree/Particle)
 Thermal correction to Energy=                    0.233542
 Thermal correction to Enthalpy=                  0.234486
 Thermal correction to Gibbs Free Energy=         0.179770
 Sum of electronic and zero-point Energies=           -844.343484
 Sum of electronic and thermal Energies=              -844.330788
 Sum of electronic and thermal Enthalpies=            -844.329844
 Sum of electronic and thermal Free Energies=         -844.384560

                     E (Thermal)             CV                S
                      KCal/Mol        Cal/Mol-Kelvin    Cal/Mol-Kelvin
 Total                  146.550             49.332            115.160
 Electronic               0.000              0.000              0.000
 Translational            0.889              2.981             41.785
 Rotational               0.889              2.981             32.031
 Vibrational            144.772             43.370             41.344
 Vibration     1          0.593              1.986              6.667
 Vibration     2          0.594              1.984              5.834
 Vibration     3          0.596              1.975              4.595
 Vibration     4          0.608              1.935              3.140
 Vibration     5          0.629              1.869              2.343
 Vibration     6          0.632              1.858              2.258
 Vibration     7          0.654              1.790              1.853
 Vibration     8          0.661              1.769              1.756
 Vibration     9          0.672              1.733              1.615
 Vibration    10          0.708              1.629              1.294
 Vibration    11          0.763              1.478              0.975
 Vibration    12          0.773              1.453              0.933
 Vibration    13          0.776              1.443              0.917
 Vibration    14          0.782              1.427              0.893
 Vibration    15          0.844              1.276              0.688
 Vibration    16          0.871              1.215              0.619

 Optimization completed.
    -- Stationary point found.
 Normal termination of Gaussian 16 at Wed Feb 27 04:02:30 2019.
 Gaussian 16:  ES64L-G16RevA.03 25-Dec-2016

 ----------------------------------------------------------------------
 # TD(NStates=10, Root=1) B3LYP/6-31G* volume pop=NPA density=current G
 eom=AllCheck Guess=Read
 ----------------------------------------------------------------------

 Structure from the checkpoint file:  "direct_arylation_ligand_62_conf263.chk"
 -------------------
 Title Card Required
 -------------------
 Charge =  0 Multiplicity = 1

                         Standard orientation:
 ---------------------------------------------------------------------
 Center     Atomic      Atomic             Coordinates (Angstroms)
 Number     Number       Type             X           Y           Z
 ---------------------------------------------------------------------
      1         15           0       -0.036683    1.369234   -0.701628
      2          6           0        1.434503    0.319273   -0.299788
      3          6           0        1.640334   -0.841732   -1.067274
      4          6           0        2.760100   -1.645768   -0.867780
      5          6           0        3.712404   -1.297075    0.094010
      6          6           0        3.530011   -0.142135    0.852917
      7          6           0        2.400045    0.657953    0.659785
      8          6           0       -1.438263    0.263256   -0.190131
      9          6           0       -1.386090   -0.598155    0.917717
     10          6           0       -2.488997   -1.377569    1.265236
     11          6           0       -3.663887   -1.307298    0.511551
     12          6           0       -3.728458   -0.458024   -0.593088
     13          6           0       -2.620411    0.317466   -0.943097
     14          6           0       -0.056468    2.585892    0.714430
     15          1           0        0.766605    3.300061    0.606345
     16          1           0       -0.994487    3.146891    0.657243
     17          1           0        0.004437    2.109228    1.698795
     18          1           0        0.911690   -1.120074   -1.825478
     19          1           0        2.893668   -2.542717   -1.467201
     20          1           0        4.590147   -1.919547    0.246035
     21          1           0        4.265439    0.139721    1.602391
     22          1           0        2.280151    1.549766    1.267329
     23          1           0       -0.473837   -0.666470    1.504597
     24          1           0       -2.432590   -2.041606    2.124233
     25          1           0       -4.522337   -1.916354    0.782760
     26          1           0       -4.637032   -0.403128   -1.187284
     27          1           0       -2.670555    0.969209   -1.812272
 ---------------------------------------------------------------------

 SCF Done:  E(RB3LYP) =  -844.564329552     A.U. after    1 cycles

 Excitation energies and oscillator strengths:

 Excited State   1:      Singlet-A      4.6037 eV  269.31 nm  f=0.0435  <S**2>=0.000
      53 -> 54         0.68724
      53 -> 55        -0.11737
 This state for optimization and/or second-order correction.
 Total Energy, E(TD-HF/TD-DFT) =  -844.395145854
 Copying the excited state density for this state as the 1-particle RhoCI density.

 Excited State   2:      Singlet-A      4.8956 eV  253.25 nm  f=0.0129  <S**2>=0.000
      51 -> 55         0.10650
      52 -> 54         0.13696
      52 -> 55         0.11078
      53 -> 55        -0.22364
      53 -> 56         0.62630

 Excited State   3:      Singlet-A      5.0081 eV  247.57 nm  f=0.1456  <S**2>=0.000
      53 -> 54         0.10804
      53 -> 55         0.61727
      53 -> 56         0.19969
      53 -> 57        -0.18807

 Excited State   4:      Singlet-A      5.1447 eV  241.00 nm  f=0.0379  <S**2>=0.000
      50 -> 55         0.12103
      51 -> 54        -0.20891
      52 -> 55        -0.13441
      52 -> 56        -0.10054
      53 -> 55         0.16863
      53 -> 56         0.12429
      53 -> 57         0.59547

 Excited State   5:      Singlet-A      5.4215 eV  228.69 nm  f=0.0047  <S**2>=0.000
      50 -> 55        -0.19212
      50 -> 56         0.26448
      50 -> 57         0.20850
      51 -> 54         0.36802
      51 -> 55        -0.15887
      52 -> 54        -0.31146
      52 -> 56         0.15547
      52 -> 57         0.12167
      53 -> 56         0.12025
      53 -> 57         0.16401

 Excited State   6:      Singlet-A      5.7386 eV  216.05 nm  f=0.0117  <S**2>=0.000
      49 -> 56        -0.20593
      49 -> 57         0.15914
      50 -> 54        -0.15964
      51 -> 54         0.32346
      52 -> 54         0.48500
      53 -> 57         0.18605

 Excited State   7:      Singlet-A      5.8270 eV  212.78 nm  f=0.0124  <S**2>=0.000
      49 -> 56        -0.24828
      49 -> 57         0.17988
      51 -> 54        -0.14236
      51 -> 55         0.13205
      51 -> 56         0.11210
      52 -> 54        -0.18659
      52 -> 55         0.51480
      53 -> 57         0.14802

 Excited State   8:      Singlet-A      5.8571 eV  211.68 nm  f=0.0221  <S**2>=0.000
      49 -> 54         0.18066
      49 -> 56         0.10120
      50 -> 54         0.46240
      50 -> 55         0.34277
      50 -> 56         0.16420
      51 -> 56        -0.10974
      52 -> 54         0.14559
      52 -> 56         0.19506

 Excited State   9:      Singlet-A      5.9280 eV  209.15 nm  f=0.0005  <S**2>=0.000
      50 -> 54         0.16557
      51 -> 54         0.20682
      51 -> 55         0.57145
      51 -> 56         0.12202
      52 -> 55        -0.21537
      52 -> 56        -0.13320

 Excited State  10:      Singlet-A      5.9925 eV  206.90 nm  f=0.0264  <S**2>=0.000
      49 -> 54        -0.31210
      50 -> 54        -0.20307
      50 -> 55         0.45954
      50 -> 56         0.17116
      51 -> 54         0.13401
      51 -> 56         0.16754
      52 -> 55         0.12355
      52 -> 56        -0.14964

 The electronic state is 1-A.
 Alpha  occ. eigenvalues --  -77.07968 -10.19392 -10.19299 -10.19192 -10.19093
 Alpha  occ. eigenvalues --  -10.19069 -10.19059 -10.19011 -10.19001 -10.18964
 Alpha  occ. eigenvalues --  -10.18942 -10.18899 -10.18857 -10.18421  -6.54710
 Alpha  occ. eigenvalues --   -4.70976  -4.70963  -4.70459  -0.85270  -0.84774
 Alpha  occ. eigenvalues --   -0.76468  -0.74321  -0.74256  -0.73796  -0.70921
 Alpha  occ. eigenvalues --   -0.62338  -0.60252  -0.59978  -0.59281  -0.55060
 Alpha  occ. eigenvalues --   -0.51448  -0.49651  -0.45409  -0.44649  -0.44597
 Alpha  occ. eigenvalues --   -0.44242  -0.42401  -0.42079  -0.41685  -0.41109
 Alpha  occ. eigenvalues --   -0.38955  -0.37871  -0.36382  -0.36120  -0.34369
 Alpha  occ. eigenvalues --   -0.34239  -0.32560  -0.31576  -0.26446  -0.25180
 Alpha  occ. eigenvalues --   -0.25018  -0.24725  -0.21379
 Alpha virt. eigenvalues --   -0.01530  -0.00807  -0.00420   0.00542   0.06284
 Alpha virt. eigenvalues --    0.07174   0.09234   0.10908   0.12717   0.13595
 Alpha virt. eigenvalues --    0.14142   0.14681   0.15149   0.15527   0.16193

 Mulliken charges:
               1
     1  P    0.507422
     2  C   -0.067141
     3  C   -0.143099
     4  C   -0.115329
     5  C   -0.121518
     6  C   -0.113000
     7  C   -0.159608
     8  C   -0.150287
     9  C   -0.192303
    10  C   -0.109914
    11  C   -0.192772
    12  C   -0.134751
    13  C   -0.175813
    14  C   -0.640347
    15  H    0.161070
    16  H    0.203712
    17  H    0.215662
    18  H    0.168946
    19  H    0.152396
    20  H    0.153101
    21  H    0.149068
    22  H    0.148036
    23  H    0.087357
    24  H    0.100172
    25  H    0.085500
    26  H    0.093472
    27  H    0.089968
 Sum of Mulliken charges =  -0.00000

 Dipole moment (field-independent basis, Debye):
    X=              7.0057    Y=              2.3418    Z=             -0.4359  Tot=              7.3996
 Quadrupole moment (field-independent basis, Debye-Ang):
   XX=            -91.9209   YY=            -83.0672   ZZ=            -86.8633
   XY=             -6.4522   XZ=              4.1099   YZ=              1.5625

 Summary of Natural Population Analysis:

                                       Natural Population
                Natural  -----------------------------------------------
    Atom  No    Charge         Core      Valence    Rydberg      Total
 -----------------------------------------------------------------------
      P    1    1.25999      9.99755     3.69257    0.04989    13.74001
      C    2   -0.37073      1.99892     4.34857    0.02324     6.37073
      C    3   -0.18256      1.99902     4.16714    0.01640     6.18256
      C    4   -0.23275      1.99910     4.21948    0.01417     6.23275
      C    5   -0.19008      1.99909     4.17692    0.01406     6.19008
      C    6   -0.22552      1.99910     4.21218    0.01424     6.22552
      C    7   -0.21167      1.99900     4.19731    0.01535     6.21167
      C    8   -0.53820      1.99883     4.51445    0.02492     6.53820
      C    9   -0.30980      1.99898     4.29104    0.01977     6.30980
      C   10   -0.21949      1.99908     4.20595    0.01445     6.21949
      C   11   -0.34750      1.99910     4.33061    0.01779     6.34750
      C   12   -0.26952      1.99910     4.25448    0.01594     6.26952
      C   13   -0.23974      1.99902     4.22466    0.01606     6.23974
      C   14   -1.03464      1.99946     5.02407    0.01111     7.03464
      H   15    0.23977      0.00000     0.75840    0.00183     0.76023
      H   16    0.27448      0.00000     0.72483    0.00069     0.72552
      H   17    0.27674      0.00000     0.72217    0.00109     0.72326
      H   18    0.25531      0.00000     0.74311    0.00159     0.74469
      H   19    0.24841      0.00000     0.75081    0.00078     0.75159
      H   20    0.24448      0.00000     0.75473    0.00079     0.75552
      H   21    0.24608      0.00000     0.75309    0.00083     0.75392
      H   22    0.24186      0.00000     0.75691    0.00123     0.75814
      H   23    0.21299      0.00000     0.78595    0.00106     0.78701
      H   24    0.22424      0.00000     0.77490    0.00086     0.77576
      H   25    0.21568      0.00000     0.78355    0.00078     0.78432
      H   26    0.22042      0.00000     0.77872    0.00086     0.77958
      H   27    0.21174      0.00000     0.78753    0.00073     0.78826
 =======================================================================
   * Total *    0.00000     35.98536    69.73412    0.28052   106.00000

 Normal termination of Gaussian 16 at Wed Feb 27 04:08:04 2019.
