 Gaussian 16, Revision A.03,

 -----------------------------------------
 # opt=CalcFc B3LYP/6-31G* scf=xqc scf=xqc
 -----------------------------------------

 -------------------
 Title Card Required
 -------------------
 Symbolic Z-matrix:
 Charge =  0 Multiplicity = 1

 SCF Done:  E(RB3LYP) =  -1036.28515284     A.U. after   14 cycles
 SCF Done:  E(RB3LYP) =  -1036.28746131     A.U. after   14 cycles
 SCF Done:  E(RB3LYP) =  -1036.28867986     A.U. after   14 cycles
 SCF Done:  E(RB3LYP) =  -1036.29580640     A.U. after   14 cycles
 SCF Done:  E(RB3LYP) =  -1036.28167640     A.U. after   15 cycles
 SCF Done:  E(RB3LYP) =  -1036.29688381     A.U. after   13 cycles
 SCF Done:  E(RB3LYP) =  -1036.29673146     A.U. after   14 cycles
 SCF Done:  E(RB3LYP) =  -1036.29721212     A.U. after   14 cycles
 SCF Done:  E(RB3LYP) =  -1036.29736956     A.U. after   12 cycles
 SCF Done:  E(RB3LYP) =  -1036.29744171     A.U. after   11 cycles
 SCF Done:  E(RB3LYP) =  -1036.29822870     A.U. after   11 cycles
 SCF Done:  E(RB3LYP) =  -1036.29822973     A.U. after   10 cycles
 SCF Done:  E(RB3LYP) =  -1036.29823311     A.U. after    8 cycles
 SCF Done:  E(RB3LYP) =  -1036.29823550     A.U. after    7 cycles
 SCF Done:  E(RB3LYP) =  -1036.29402245     A.U. after   14 cycles
 SCF Done:  E(RB3LYP) =  -1036.29810296     A.U. after   12 cycles
 SCF Done:  E(RB3LYP) =  -1036.29717614     A.U. after   12 cycles
 SCF Done:  E(RB3LYP) =  -1036.29823104     A.U. after    8 cycles
 Optimization completed.
    -- Stationary point found.
 Normal termination of Gaussian 16 at Sun Dec  8 18:38:40 2019.

 ----------------------------------------------------------------------
 # freq B3LYP/6-31G* scf=xqc volume NMR pop=NPA density=current Geom=Al
 lCheck Guess=Read
 ----------------------------------------------------------------------

 Structure from the checkpoint file:  "direct_arylation_ligand38_conf202.chk"
 -------------------
 Title Card Required
 -------------------
 Charge =  0 Multiplicity = 1

 SCF Done:  E(RB3LYP) =  -1036.29823104     A.U. after    1 cycles

      1  P    Isotropic =   361.4821   Anisotropy =    39.8013

      2  C    Isotropic =    56.1535   Anisotropy =   179.3983

      3  C    Isotropic =    60.9803   Anisotropy =   164.0981

      4  C    Isotropic =    68.7298   Anisotropy =   164.1541

      5  C    Isotropic =    68.1534   Anisotropy =   167.3649

      6  C    Isotropic =    68.6717   Anisotropy =   163.8896

      7  C    Isotropic =    62.5507   Anisotropy =   174.0503

      8  C    Isotropic =    56.0878   Anisotropy =   179.4301

      9  C    Isotropic =    62.6006   Anisotropy =   173.9978

     10  C    Isotropic =    68.6792   Anisotropy =   163.8852

     11  C    Isotropic =    68.1655   Anisotropy =   167.3120

     12  C    Isotropic =    68.7336   Anisotropy =   164.1250

     13  C    Isotropic =    61.0256   Anisotropy =   164.1281

     14  C    Isotropic =    56.1225   Anisotropy =   179.3974

     15  C    Isotropic =    62.6067   Anisotropy =   174.0119

     16  C    Isotropic =    68.6674   Anisotropy =   163.8875

     17  C    Isotropic =    68.1809   Anisotropy =   167.3179

     18  C    Isotropic =    68.7434   Anisotropy =   164.1399

     19  C    Isotropic =    61.0371   Anisotropy =   164.1574

     20  H    Isotropic =    24.6103   Anisotropy =     9.2425

     21  H    Isotropic =    24.9238   Anisotropy =     4.5894

     22  H    Isotropic =    25.0175   Anisotropy =     3.6465

     23  H    Isotropic =    25.0478   Anisotropy =     6.0839

     24  H    Isotropic =    25.3993   Anisotropy =    12.2125

     25  H    Isotropic =    25.4057   Anisotropy =    12.2241

     26  H    Isotropic =    25.0488   Anisotropy =     6.0847

     27  H    Isotropic =    25.0219   Anisotropy =     3.6400

     28  H    Isotropic =    24.9283   Anisotropy =     4.5885

     29  H    Isotropic =    24.6136   Anisotropy =     9.2555

     30  H    Isotropic =    25.4049   Anisotropy =    12.2401

     31  H    Isotropic =    25.0489   Anisotropy =     6.0873

     32  H    Isotropic =    25.0200   Anisotropy =     3.6418

     33  H    Isotropic =    24.9270   Anisotropy =     4.5889

     34  H    Isotropic =    24.6157   Anisotropy =     9.2586

  Exact polarizability: 224.316   0.075 224.060  -0.090   0.079 164.960
 Approx polarizability: 331.256   0.175 330.743  -0.211   0.184 307.855

                      1                      2                      3
                      A                      A                      A
 Frequencies --     22.7622                23.0234                38.2602
 Red. masses --      3.7985                 3.7955                 3.6892
 Frc consts  --      0.0012                 0.0012                 0.0032
 IR Inten    --      0.2819                 0.2841                 0.0013

                      4                      5                      6
                      A                      A                      A
 Frequencies --     53.2792                53.4403                70.5560
 Red. masses --      5.2503                 5.2538                 5.1684
 Frc consts  --      0.0088                 0.0088                 0.0152
 IR Inten    --      0.0831                 0.0853                 0.3103

                      7                      8                      9
                      A                      A                      A
 Frequencies --    181.4134               202.3095               202.6182
 Red. masses --      4.5606                 4.6446                 4.6412
 Frc consts  --      0.0884                 0.1120                 0.1123
 IR Inten    --      0.3537                 1.1384                 1.1395

                     10                     11                     12
                      A                      A                      A
 Frequencies --    245.5077               259.7416               259.9083
 Red. masses --      5.7383                 4.7194                 4.7224
 Frc consts  --      0.2038                 0.1876                 0.1880
 IR Inten    --      0.4828                 0.2233                 0.2253

                     13                     14                     15
                      A                      A                      A
 Frequencies --    408.8044               408.8216               412.3062
 Red. masses --      3.0786                 3.0782                 3.6211
 Frc consts  --      0.3031                 0.3031                 0.3627
 IR Inten    --      1.9590                 1.9637                 0.1672

                     16                     17                     18
                      A                      A                      A
 Frequencies --    417.0073               429.4101               429.5313
 Red. masses --      4.5711                 7.3107                 7.3067
 Frc consts  --      0.4683                 0.7942                 0.7943
 IR Inten    --      0.5532                 7.6685                 7.7183

                     19                     20                     21
                      A                      A                      A
 Frequencies --    509.3133               509.5120               516.3520
 Red. masses --      4.2473                 4.2468                 4.5870
 Frc consts  --      0.6491                 0.6496                 0.7206
 IR Inten    --     26.0384                26.1521                11.9921

                     22                     23                     24
                      A                      A                      A
 Frequencies --    632.7117               632.7457               633.3552
 Red. masses --      6.4270                 6.4272                 6.4370
 Frc consts  --      1.5159                 1.5161                 1.5213
 IR Inten    --      0.1796                 0.1801                 0.0164

                     25                     26                     27
                      A                      A                      A
 Frequencies --    691.8370               705.1020               705.2161
 Red. masses --      6.5810                 5.7321                 5.7162
 Frc consts  --      1.8559                 1.6791                 1.6750
 IR Inten    --      0.7697                 1.1668                 1.1738

                     28                     29                     30
                      A                      A                      A
 Frequencies --    712.2115               712.2792               713.2506
 Red. masses --      2.1965                 2.2041                 2.1333
 Frc consts  --      0.6564                 0.6588                 0.6394
 IR Inten    --     26.4462                26.2111                16.6492

                     31                     32                     33
                      A                      A                      A
 Frequencies --    761.4036               762.8685               762.9179
 Red. masses --      1.6157                 1.6469                 1.6497
 Frc consts  --      0.5519                 0.5647                 0.5657
 IR Inten    --     19.2715                24.9490                24.8582

                     34                     35                     36
                      A                      A                      A
 Frequencies --    866.1432               866.1722               868.7283
 Red. masses --      1.2478                 1.2477                 1.2462
 Frc consts  --      0.5515                 0.5515                 0.5541
 IR Inten    --      0.2248                 0.2234                 0.1332

                     37                     38                     39
                      A                      A                      A
 Frequencies --    932.8873               932.9280               934.1686
 Red. masses --      1.3444                 1.3441                 1.3386
 Frc consts  --      0.6894                 0.6893                 0.6883
 IR Inten    --      1.2620                 1.2705                 0.0287

                     40                     41                     42
                      A                      A                      A
 Frequencies --    975.7626               975.7964               977.6001
 Red. masses --      1.3614                 1.3612                 1.3557
 Frc consts  --      0.7637                 0.7637                 0.7634
 IR Inten    --      0.0148                 0.0171                 0.1417

                     43                     44                     45
                      A                      A                      A
 Frequencies --   1000.3484              1000.3798              1001.0809
 Red. masses --      1.2544                 1.2542                 1.2526
 Frc consts  --      0.7396                 0.7395                 0.7396
 IR Inten    --      0.0789                 0.0815                 0.0002

                     46                     47                     48
                      A                      A                      A
 Frequencies --   1015.3496              1015.3757              1015.7527
 Red. masses --      6.3102                 6.3111                 6.3096
 Frc consts  --      3.8329                 3.8336                 3.8356
 IR Inten    --      4.3601                 4.3628                 0.0478

                     49                     50                     51
                      A                      A                      A
 Frequencies --   1052.6932              1052.7451              1052.9355
 Red. masses --      3.3140                 3.3142                 3.2533
 Frc consts  --      2.1638                 2.1641                 2.1251
 IR Inten    --      2.0789                 2.0906                 0.0514

                     52                     53                     54
                      A                      A                      A
 Frequencies --   1107.8311              1108.0362              1109.4535
 Red. masses --      1.8845                 1.8711                 1.6553
 Frc consts  --      1.3627                 1.3535                 1.2004
 IR Inten    --      4.2602                 4.0591                 2.9023

                     55                     56                     57
                      A                      A                      A
 Frequencies --   1110.7417              1110.8412              1116.0284
 Red. masses --      2.1865                 2.2082                 2.6131
 Frc consts  --      1.5894                 1.6054                 1.9176
 IR Inten    --      9.3008                 9.6182                 1.1957

                     58                     59                     60
                      A                      A                      A
 Frequencies --   1193.4962              1193.9145              1193.9385
 Red. masses --      1.1034                 1.1000                 1.1000
 Frc consts  --      0.9260                 0.9239                 0.9239
 IR Inten    --      0.0012                 0.1307                 0.1297

                     61                     62                     63
                      A                      A                      A
 Frequencies --   1219.2318              1219.3697              1220.8117
 Red. masses --      1.1475                 1.1477                 1.1473
 Frc consts  --      1.0051                 1.0054                 1.0075
 IR Inten    --      6.0083                 6.0603                 0.3685

                     64                     65                     66
                      A                      A                      A
 Frequencies --   1324.9716              1328.7179              1328.7831
 Red. masses --      3.4864                 3.4875                 3.4947
 Frc consts  --      3.6061                 3.6277                 3.6356
 IR Inten    --      2.6369                 2.4503                 2.4353

                     67                     68                     69
                      A                      A                      A
 Frequencies --   1365.1529              1365.2740              1365.6154
 Red. masses --      1.6575                 1.6536                 1.6455
 Frc consts  --      1.8199                 1.8160                 1.8080
 IR Inten    --      0.2620                 0.4302                 2.6887

                     70                     71                     72
                      A                      A                      A
 Frequencies --   1480.4893              1480.9770              1480.9996
 Red. masses --      2.1104                 2.1154                 2.1155
 Frc consts  --      2.7254                 2.7337                 2.7339
 IR Inten    --     16.5581                 6.6828                 6.6086

                     73                     74                     75
                      A                      A                      A
 Frequencies --   1531.0993              1531.5755              1531.6493
 Red. masses --      2.0153                 1.9987                 1.9981
 Frc consts  --      2.7835                 2.7623                 2.7618
 IR Inten    --      2.0657                10.1031                10.1434

                     76                     77                     78
                      A                      A                      A
 Frequencies --   1630.1581              1630.4476              1630.4622
 Red. masses --      5.1003                 5.1138                 5.1116
 Frc consts  --      7.9855                 8.0095                 8.0063
 IR Inten    --      0.3956                 0.0505                 0.0424

                     79                     80                     81
                      A                      A                      A
 Frequencies --   1646.1652              1646.1918              1647.9794
 Red. masses --      5.2716                 5.2703                 5.2824
 Frc consts  --      8.4167                 8.4149                 8.4524
 IR Inten    --      3.5302                 3.5063                 0.3168

                     82                     83                     84
                      A                      A                      A
 Frequencies --   3176.0501              3176.1156              3176.1306
 Red. masses --      1.0854                 1.0853                 1.0853
 Frc consts  --      6.4508                 6.4507                 6.4507
 IR Inten    --      2.1572                 2.0937                 1.7958

                     85                     86                     87
                      A                      A                      A
 Frequencies --   3182.6113              3182.6607              3182.7301
 Red. masses --      1.0875                 1.0875                 1.0876
 Frc consts  --      6.4900                 6.4902                 6.4910
 IR Inten    --      0.7299                 0.7364                 0.2120

                     88                     89                     90
                      A                      A                      A
 Frequencies --   3192.8277              3192.8429              3192.9687
 Red. masses --      1.0916                 1.0916                 1.0917
 Frc consts  --      6.5566                 6.5567                 6.5578
 IR Inten    --     10.1781                10.2885                47.5771

                     91                     92                     93
                      A                      A                      A
 Frequencies --   3203.8352              3203.9402              3204.3206
 Red. masses --      1.0941                 1.0941                 1.0942
 Frc consts  --      6.6166                 6.6173                 6.6197
 IR Inten    --     40.9197                39.7647                 6.3867

                     94                     95                     96
                      A                      A                      A
 Frequencies --   3209.9699              3210.1226              3210.9855
 Red. masses --      1.0958                 1.0957                 1.0956
 Frc consts  --      6.6523                 6.6522                 6.6555
 IR Inten    --     20.6164                19.8240                16.2597

 - Thermochemistry -
 -------------------
 Temperature   298.150 Kelvin.  Pressure   1.00000 Atm.
 Atom     1 has atomic number 15 and mass  30.97376

 Molecular mass:   262.09114 amu.
 Principal axes and moments of inertia in atomic units:
                           1         2         3
     Eigenvalues --  5161.266345164.709688682.37768
           X            0.99973   0.02308  -0.00002
           Y           -0.02308   0.99973   0.00002
           Z            0.00002  -0.00002   1.00000
 This molecule is an asymmetric top.
 Rotational symmetry number  1.
 Warning -- assumption of classical behavior for rotation
           may cause significant error
 Rotational temperatures (Kelvin)      0.01678     0.01677     0.00998
 Rotational constants (GHZ):           0.34967     0.34944     0.20786
 Zero-point vibrational energy     719943.4 (Joules/Mol)
                                  172.07061 (Kcal/Mol)
 Warning -- explicit consideration of  21 degrees of freedom as
           vibrations may cause significant error
 Vibrational temperatures:     32.75    33.13    55.05    76.66    76.89
          (Kelvin)            101.51   261.01   291.08   291.52   353.23
                              373.71   373.95   588.18   588.20   593.22
                              599.98   617.83   618.00   732.79   733.07
                              742.92   910.33   910.38   911.26   995.40
                             1014.48  1014.65  1024.71  1024.81  1026.21
                             1095.49  1097.60  1097.67  1246.19  1246.23
                             1249.91  1342.22  1342.28  1344.06  1403.90
                             1403.95  1406.55  1439.28  1439.32  1440.33
                             1460.86  1460.90  1461.44  1514.59  1514.67
                             1514.94  1593.92  1594.22  1596.26  1598.11
                             1598.25  1605.72  1717.17  1717.78  1717.81
                             1754.20  1754.40  1756.48  1906.34  1911.73
                             1911.82  1964.15  1964.32  1964.82  2130.09
                             2130.80  2130.83  2202.91  2203.60  2203.70
                             2345.43  2345.85  2345.87  2368.46  2368.50
                             2371.07  4569.63  4569.72  4569.74  4579.07
                             4579.14  4579.24  4593.77  4593.79  4593.97
                             4609.60  4609.76  4610.30  4618.43  4618.65
                             4619.89

 Zero-point correction=                           0.274212 (Hartree/Particle)
 Thermal correction to Energy=                    0.290137
 Thermal correction to Enthalpy=                  0.291081
 Thermal correction to Gibbs Free Energy=         0.227712
 Sum of electronic and zero-point Energies=          -1036.024019
 Sum of electronic and thermal Energies=             -1036.008095
 Sum of electronic and thermal Enthalpies=           -1036.007150
 Sum of electronic and thermal Free Energies=        -1036.070519

                     E (Thermal)             CV                S
                      KCal/Mol        Cal/Mol-Kelvin    Cal/Mol-Kelvin
 Total                  182.063             62.540            133.370
 Electronic               0.000              0.000              0.000
 Translational            0.889              2.981             42.590
 Rotational               0.889              2.981             33.803
 Vibrational            180.286             56.578             56.977
 Vibration     1          0.593              1.985              6.377
 Vibration     2          0.593              1.985              6.355
 Vibration     3          0.594              1.982              5.347
 Vibration     4          0.596              1.976              4.692
 Vibration     5          0.596              1.976              4.686
 Vibration     6          0.598              1.968              4.138
 Vibration     7          0.630              1.865              2.314
 Vibration     8          0.639              1.837              2.112
 Vibration     9          0.639              1.836              2.109
 Vibration    10          0.660              1.770              1.763
 Vibration    11          0.668              1.746              1.664
 Vibration    12          0.668              1.746              1.662
 Vibration    13          0.773              1.451              0.931
 Vibration    14          0.773              1.451              0.931
 Vibration    15          0.776              1.444              0.919
 Vibration    16          0.780              1.433              0.902
 Vibration    17          0.791              1.406              0.861
 Vibration    18          0.791              1.406              0.860
 Vibration    19          0.864              1.229              0.635
 Vibration    20          0.865              1.229              0.635
 Vibration    21          0.871              1.214              0.618

                           ! Non-Optimized Parameters !
 Normal termination of Gaussian 16 at Sun Dec  8 18:55:38 2019.
 Gaussian 16:  ES64L-G16RevA.03 25-Dec-2016

 ----------------------------------------------------------------------
 # TD(NStates=10, Root=1) B3LYP/6-31G* scf=xqc volume pop=NPA density=c
 urrent Geom=AllCheck Guess=Read
 ----------------------------------------------------------------------

 Structure from the checkpoint file:  "direct_arylation_ligand38_conf203.chk"
 -------------------
 Title Card Required
 -------------------
 Charge =  0 Multiplicity = 1

                         Standard orientation:
 ---------------------------------------------------------------------
 Center     Atomic      Atomic             Coordinates (Angstroms)
 Number     Number       Type             X           Y           Z
 ---------------------------------------------------------------------
      1         15           0        0.000299    0.000195   -1.206002
      2          6           0        1.641882    0.310738   -0.402058
      3          6           0        2.493948    1.232051   -1.034369
      4          6           0        3.752755    1.521239   -0.508115
      5          6           0        4.189675    0.878340    0.652039
      6          6           0        3.359100   -0.049585    1.282295
      7          6           0        2.093986   -0.330296    0.761483
      8          6           0       -0.551606   -1.576788   -0.402108
      9          6           0       -1.337879   -1.647965    0.757990
     10          6           0       -1.726940   -2.884138    1.278707
     11          6           0       -1.333215   -4.067378    0.651827
     12          6           0       -0.552990   -4.010266   -0.504983
     13          6           0       -0.174416   -2.775408   -1.031194
     14          6           0       -1.089935    1.266512   -0.402727
     15          6           0       -0.757549    1.985760    0.755407
     16          6           0       -1.634005    2.940708    1.275561
     17          6           0       -2.856913    3.188472    0.650137
     18          6           0       -3.198478    2.481432   -0.504716
     19          6           0       -2.317917    1.536306   -1.030445
     20          1           0        2.168567    1.722206   -1.949239
     21          1           0        4.396207    2.239672   -1.009459
     22          1           0        5.174266    1.094549    1.058397
     23          1           0        3.694790   -0.557296    2.183127
     24          1           0        1.457633   -1.054726    1.260801
     25          1           0       -1.651419   -0.734697    1.254688
     26          1           0       -2.338396   -2.921112    2.176880
     27          1           0       -1.637942   -5.028286    1.058138
     28          1           0       -0.248325   -4.926725   -1.003789
     29          1           0        0.416685   -2.738683   -1.943538
     30          1           0        0.191078    1.802784    1.251096
     31          1           0       -1.359590    3.490894    2.172194
     32          1           0       -3.537069    3.932729    1.056043
     33          1           0       -4.145558    2.673522   -1.002378
     34          1           0       -2.582436    1.003848   -1.941300
 ---------------------------------------------------------------------

 SCF Done:  E(RB3LYP) =  -1036.29823104     A.U. after    1 cycles

 Excitation energies and oscillator strengths:

 Excited State   1:      Singlet-A      4.5082 eV  275.02 nm  f=0.1274  <S**2>=0.000
      69 -> 70         0.69711
 This state for optimization and/or second-order correction.
 Total Energy, E(TD-HF/TD-DFT) =  -1036.13255733
 Copying the excited state density for this state as the 1-particle RhoCI density.

 Excited State   2:      Singlet-A      4.5112 eV  274.83 nm  f=0.1287  <S**2>=0.000
      69 -> 71         0.69706

 Excited State   3:      Singlet-A      4.7558 eV  260.70 nm  f=0.0022  <S**2>=0.000
      67 -> 70         0.12296
      68 -> 71        -0.12365
      69 -> 72         0.67476

 Excited State   4:      Singlet-A      5.0567 eV  245.19 nm  f=0.0002  <S**2>=0.000
      66 -> 70        -0.16572
      67 -> 70         0.13084
      68 -> 71         0.13040
      69 -> 74         0.63011

 Excited State   5:      Singlet-A      5.0579 eV  245.13 nm  f=0.0002  <S**2>=0.000
      66 -> 71         0.16663
      67 -> 71         0.13190
      68 -> 70        -0.13166
      69 -> 75         0.62939

 Excited State   6:      Singlet-A      5.1500 eV  240.74 nm  f=0.0085  <S**2>=0.000
      69 -> 73         0.67904

 Excited State   7:      Singlet-A      5.4277 eV  228.43 nm  f=0.0147  <S**2>=0.000
      63 -> 72        -0.16600
      64 -> 74         0.14529
      65 -> 75        -0.14214
      67 -> 70         0.42523
      68 -> 71        -0.41577
      69 -> 72        -0.16478

 Excited State   8:      Singlet-A      5.5136 eV  224.87 nm  f=0.0005  <S**2>=0.000
      63 -> 74         0.14318
      64 -> 71        -0.10129
      64 -> 72        -0.22410
      64 -> 75        -0.10127
      65 -> 70        -0.10440
      65 -> 72         0.17240
      66 -> 70         0.22649
      67 -> 70        -0.26340
      68 -> 71        -0.27727
      68 -> 72         0.16311
      69 -> 74         0.28560

 Excited State   9:      Singlet-A      5.5151 eV  224.81 nm  f=0.0004  <S**2>=0.000
      63 -> 75         0.14383
      64 -> 70         0.10030
      64 -> 72         0.17288
      65 -> 71        -0.10022
      65 -> 72         0.22427
      66 -> 71        -0.22477
      67 -> 71        -0.26868
      67 -> 72        -0.16409
      68 -> 70         0.27547
      69 -> 75         0.28697

 Excited State  10:      Singlet-A      5.6183 eV  220.68 nm  f=0.0009  <S**2>=0.000
      67 -> 71         0.47466
      68 -> 70         0.48575

 The electronic state is 1-A.
 Alpha  occ. eigenvalues --  -77.08112 -10.19448 -10.19447 -10.19446 -10.19150
 Alpha  occ. eigenvalues --  -10.19145 -10.19144 -10.19120 -10.19116 -10.19116
 Alpha  occ. eigenvalues --  -10.19033 -10.19029 -10.19028 -10.19010 -10.19006
 Alpha  occ. eigenvalues --  -10.19006 -10.18965 -10.18961 -10.18959  -6.54843
 Alpha  occ. eigenvalues --   -4.71102  -4.71102  -4.70601  -0.85560  -0.84847
 Alpha  occ. eigenvalues --   -0.84844  -0.76669  -0.74367  -0.74366  -0.74328
 Alpha  occ. eigenvalues --   -0.73822  -0.73820  -0.64436  -0.60335  -0.60309
 Alpha  occ. eigenvalues --   -0.60306  -0.59207  -0.59207  -0.55448  -0.51436
 Alpha  occ. eigenvalues --   -0.51435  -0.49295  -0.45441  -0.45439  -0.44773
 Alpha  occ. eigenvalues --   -0.44345  -0.44345  -0.44067  -0.41946  -0.41869
 Alpha  occ. eigenvalues --   -0.41867  -0.40379  -0.40375  -0.36844  -0.36353
 Alpha  occ. eigenvalues --   -0.36348  -0.35899  -0.34253  -0.34251  -0.34224
 Alpha  occ. eigenvalues --   -0.31885  -0.31883  -0.26781  -0.25451  -0.25443
 Alpha  occ. eigenvalues --   -0.25244  -0.24704  -0.24703  -0.21140
 Alpha virt. eigenvalues --   -0.01883  -0.01875  -0.00831   0.00173   0.00425
 Alpha virt. eigenvalues --    0.00433   0.06877   0.06893   0.09493   0.11037
 Alpha virt. eigenvalues --    0.11039   0.13905   0.14528   0.14529   0.15164

 Mulliken charges:
               1
     1  P    0.450652
     2  C   -0.134333
     3  C   -0.173207
     4  C   -0.122445
     5  C   -0.170065
     6  C   -0.119533
     7  C   -0.174352
     8  C   -0.090723
     9  C   -0.162112
    10  C   -0.115820
    11  C   -0.136423
    12  C   -0.123941
    13  C   -0.152850
    14  C   -0.096251
    15  C   -0.149146
    16  C   -0.122693
    17  C   -0.129694
    18  C   -0.116686
    19  C   -0.166151
    20  H    0.111763
    21  H    0.111919
    22  H    0.105880
    23  H    0.115613
    24  H    0.125709
    25  H    0.149024
    26  H    0.137343
    27  H    0.134599
    28  H    0.134950
    29  H    0.141790
    30  H    0.176122
    31  H    0.142720
    32  H    0.140070
    33  H    0.137678
    34  H    0.140592
 Sum of Mulliken charges =  -0.00000

 Dipole moment (field-independent basis, Debye):
    X=             -3.7852    Y=             -0.1503    Z=             -0.1968  Tot=              3.7933
 Quadrupole moment (field-independent basis, Debye-Ang):
   XX=           -119.4899   YY=           -107.5537   ZZ=           -110.6849
   XY=             -3.7667   XZ=             -1.1412   YZ=              0.7646

 Summary of Natural Population Analysis:

                                       Natural Population
                Natural  -----------------------------------------------
    Atom  No    Charge         Core      Valence    Rydberg      Total
 -----------------------------------------------------------------------
      P    1    1.24220      9.99750     3.71006    0.05024    13.75780
      C    2   -0.48993      1.99886     4.46547    0.02560     6.48993
      C    3   -0.23635      1.99901     4.22095    0.01639     6.23635
      C    4   -0.24420      1.99910     4.23008    0.01502     6.24420
      C    5   -0.30048      1.99910     4.28460    0.01678     6.30048
      C    6   -0.23153      1.99909     4.21779    0.01465     6.23153
      C    7   -0.26093      1.99899     4.24386    0.01808     6.26093
      C    8   -0.40145      1.99888     4.37852    0.02405     6.40145
      C    9   -0.23703      1.99899     4.22111    0.01692     6.23703
      C   10   -0.22332      1.99909     4.21016    0.01407     6.22332
      C   11   -0.22934      1.99909     4.21553    0.01472     6.22934
      C   12   -0.24477      1.99910     4.23093    0.01474     6.24477
      C   13   -0.19988      1.99901     4.18557    0.01529     6.19988
      C   14   -0.40545      1.99890     4.38070    0.02585     6.40545
      C   15   -0.20477      1.99900     4.18940    0.01638     6.20477
      C   16   -0.23520      1.99909     4.22182    0.01429     6.23520
      C   17   -0.21478      1.99909     4.20135    0.01433     6.21478
      C   18   -0.23164      1.99910     4.21834    0.01420     6.23164
      C   19   -0.21802      1.99902     4.20346    0.01554     6.21802
      H   20    0.22278      0.00000     0.77625    0.00097     0.77722
      H   21    0.22875      0.00000     0.77033    0.00092     0.77125
      H   22    0.22468      0.00000     0.77443    0.00089     0.77532
      H   23    0.23119      0.00000     0.76793    0.00088     0.76881
      H   24    0.23326      0.00000     0.76521    0.00153     0.76674
      H   25    0.24663      0.00000     0.75211    0.00127     0.75337
      H   26    0.24117      0.00000     0.75796    0.00087     0.75883
      H   27    0.23717      0.00000     0.76197    0.00086     0.76283
      H   28    0.23988      0.00000     0.75925    0.00087     0.76012
      H   29    0.23925      0.00000     0.75950    0.00124     0.76075
      H   30    0.26132      0.00000     0.73735    0.00133     0.73868
      H   31    0.24380      0.00000     0.75532    0.00087     0.75620
      H   32    0.23941      0.00000     0.75973    0.00086     0.76059
      H   33    0.24044      0.00000     0.75862    0.00094     0.75956
      H   34    0.23715      0.00000     0.76174    0.00111     0.76285
 =======================================================================
   * Total *   -0.00000     45.98001    91.64742    0.37257   138.00000

 Normal termination of Gaussian 16 at Sun Dec  8 19:10:56 2019.
