 Gaussian 16, Revision A.03,

 -----------------------------------------
 # opt=CalcFc B3LYP/6-31G* scf=xqc scf=xqc
 -----------------------------------------

 -------------------
 Title Card Required
 -------------------
 Symbolic Z-matrix:
 Charge =  0 Multiplicity = 1

 SCF Done:  E(RB3LYP) =  -1036.28792260     A.U. after   14 cycles
 SCF Done:  E(RB3LYP) =  -1036.29048259     A.U. after   14 cycles
 SCF Done:  E(RB3LYP) =  -1036.28710397     A.U. after   14 cycles
 SCF Done:  E(RB3LYP) =  -1036.29623036     A.U. after   13 cycles
 SCF Done:  E(RB3LYP) =  -1036.29716554     A.U. after   14 cycles
 SCF Done:  E(RB3LYP) =  -1036.29748249     A.U. after   14 cycles
 SCF Done:  E(RB3LYP) =  -1036.29784730     A.U. after   12 cycles
 SCF Done:  E(RB3LYP) =  -1036.29788922     A.U. after   14 cycles
 SCF Done:  E(RB3LYP) =  -1036.29817102     A.U. after   12 cycles
 SCF Done:  E(RB3LYP) =  -1036.29821298     A.U. after   11 cycles
 SCF Done:  E(RB3LYP) =  -1036.29822920     A.U. after    8 cycles
 SCF Done:  E(RB3LYP) =  -1036.29823553     A.U. after    8 cycles
 SCF Done:  E(RB3LYP) =  -1036.29823344     A.U. after    7 cycles
 SCF Done:  E(RB3LYP) =  -1036.29823313     A.U. after    7 cycles
 SCF Done:  E(RB3LYP) =  -1036.29823936     A.U. after    7 cycles
 SCF Done:  E(RB3LYP) =  -1036.29823165     A.U. after    7 cycles
 SCF Done:  E(RB3LYP) =  -1036.29822750     A.U. after   10 cycles
 SCF Done:  E(RB3LYP) =  -1036.29823690     A.U. after   10 cycles
 Optimization completed.
    -- Stationary point found.
 Normal termination of Gaussian 16 at Sun Dec  8 18:53:14 2019.

 ----------------------------------------------------------------------
 # freq B3LYP/6-31G* scf=xqc volume NMR pop=NPA density=current Geom=Al
 lCheck Guess=Read
 ----------------------------------------------------------------------

 Structure from the checkpoint file:  "direct_arylation_ligand38_conf142.chk"
 -------------------
 Title Card Required
 -------------------
 Charge =  0 Multiplicity = 1

 SCF Done:  E(RB3LYP) =  -1036.29823690     A.U. after    1 cycles

      1  P    Isotropic =   361.6772   Anisotropy =    39.9990

      2  C    Isotropic =    56.1244   Anisotropy =   179.4628

      3  C    Isotropic =    61.0066   Anisotropy =   164.1284

      4  C    Isotropic =    68.7273   Anisotropy =   164.1163

      5  C    Isotropic =    68.1668   Anisotropy =   167.2992

      6  C    Isotropic =    68.6755   Anisotropy =   163.8908

      7  C    Isotropic =    62.5857   Anisotropy =   174.0757

      8  C    Isotropic =    56.1273   Anisotropy =   179.4260

      9  C    Isotropic =    62.5774   Anisotropy =   174.0561

     10  C    Isotropic =    68.6787   Anisotropy =   163.8835

     11  C    Isotropic =    68.1618   Anisotropy =   167.3325

     12  C    Isotropic =    68.7267   Anisotropy =   164.1408

     13  C    Isotropic =    61.0081   Anisotropy =   164.1188

     14  C    Isotropic =    56.1357   Anisotropy =   179.4516

     15  C    Isotropic =    62.5839   Anisotropy =   174.0725

     16  C    Isotropic =    68.6785   Anisotropy =   163.8929

     17  C    Isotropic =    68.1513   Anisotropy =   167.3109

     18  C    Isotropic =    68.7256   Anisotropy =   164.1234

     19  C    Isotropic =    61.0160   Anisotropy =   164.1342

     20  H    Isotropic =    24.6112   Anisotropy =     9.2554

     21  H    Isotropic =    24.9290   Anisotropy =     4.5855

     22  H    Isotropic =    25.0227   Anisotropy =     3.6361

     23  H    Isotropic =    25.0475   Anisotropy =     6.0865

     24  H    Isotropic =    25.3964   Anisotropy =    12.2290

     25  H    Isotropic =    25.3992   Anisotropy =    12.2282

     26  H    Isotropic =    25.0479   Anisotropy =     6.0868

     27  H    Isotropic =    25.0205   Anisotropy =     3.6415

     28  H    Isotropic =    24.9257   Anisotropy =     4.5906

     29  H    Isotropic =    24.6127   Anisotropy =     9.2521

     30  H    Isotropic =    25.3982   Anisotropy =    12.2283

     31  H    Isotropic =    25.0473   Anisotropy =     6.0872

     32  H    Isotropic =    25.0216   Anisotropy =     3.6403

     33  H    Isotropic =    24.9276   Anisotropy =     4.5870

     34  H    Isotropic =    24.6112   Anisotropy =     9.2526

  Exact polarizability: 224.126  -0.004 224.100   0.006   0.005 165.090
 Approx polarizability: 330.869  -0.009 330.822   0.014   0.011 308.133

                      1                      2                      3
                      A                      A                      A
 Frequencies --     23.8572                25.2547                38.9169
 Red. masses --      3.7992                 3.8036                 3.6902
 Frc consts  --      0.0013                 0.0014                 0.0033
 IR Inten    --      0.2814                 0.2813                 0.0022

                      4                      5                      6
                      A                      A                      A
 Frequencies --     53.4480                53.5791                70.7949
 Red. masses --      5.2517                 5.2437                 5.1675
 Frc consts  --      0.0088                 0.0089                 0.0153
 IR Inten    --      0.0874                 0.0872                 0.3098

                      7                      8                      9
                      A                      A                      A
 Frequencies --    181.7457               202.6110               202.7542
 Red. masses --      4.5617                 4.6429                 4.6389
 Frc consts  --      0.0888                 0.1123                 0.1124
 IR Inten    --      0.3529                 1.1315                 1.1268

                     10                     11                     12
                      A                      A                      A
 Frequencies --    245.5554               259.8292               260.1409
 Red. masses --      5.7394                 4.7212                 4.7257
 Frc consts  --      0.2039                 0.1878                 0.1884
 IR Inten    --      0.4831                 0.2295                 0.2278

                     13                     14                     15
                      A                      A                      A
 Frequencies --    408.9175               408.9882               412.4284
 Red. masses --      3.0813                 3.0816                 3.6264
 Frc consts  --      0.3036                 0.3037                 0.3634
 IR Inten    --      1.9849                 1.9680                 0.1664

                     16                     17                     18
                      A                      A                      A
 Frequencies --    417.1086               429.4958               429.5500
 Red. masses --      4.5654                 7.3112                 7.3154
 Frc consts  --      0.4680                 0.7946                 0.7953
 IR Inten    --      0.5579                 7.7068                 7.7215

                     19                     20                     21
                      A                      A                      A
 Frequencies --    509.5516               509.6570               516.4265
 Red. masses --      4.2468                 4.2460                 4.5910
 Frc consts  --      0.6497                 0.6498                 0.7214
 IR Inten    --     26.1217                26.0432                11.9378

                     22                     23                     24
                      A                      A                      A
 Frequencies --    632.7432               632.7702               633.3921
 Red. masses --      6.4273                 6.4273                 6.4370
 Frc consts  --      1.5161                 1.5163                 1.5215
 IR Inten    --      0.1808                 0.1834                 0.0165

                     25                     26                     27
                      A                      A                      A
 Frequencies --    691.8417               705.1667               705.2311
 Red. masses --      6.5803                 5.7504                 5.7748
 Frc consts  --      1.8557                 1.6847                 1.6922
 IR Inten    --      0.7909                 1.1756                 1.0836

                     28                     29                     30
                      A                      A                      A
 Frequencies --    712.3557               712.4937               713.3792
 Red. masses --      2.1987                 2.1924                 2.1363
 Frc consts  --      0.6574                 0.6558                 0.6406
 IR Inten    --     26.3728                26.4745                16.5716

                     31                     32                     33
                      A                      A                      A
 Frequencies --    761.3941               762.8792               762.9273
 Red. masses --      1.6144                 1.6475                 1.6494
 Frc consts  --      0.5514                 0.5649                 0.5657
 IR Inten    --     19.2044                24.9430                24.8947

                     34                     35                     36
                      A                      A                      A
 Frequencies --    866.3138               866.4333               868.8795
 Red. masses --      1.2476                 1.2475                 1.2462
 Frc consts  --      0.5517                 0.5518                 0.5543
 IR Inten    --      0.2235                 0.2140                 0.1305

                     37                     38                     39
                      A                      A                      A
 Frequencies --    933.0037               933.1285               934.3412
 Red. masses --      1.3440                 1.3436                 1.3382
 Frc consts  --      0.6893                 0.6893                 0.6883
 IR Inten    --      1.2586                 1.2721                 0.0296

                     40                     41                     42
                      A                      A                      A
 Frequencies --    975.9503               976.0568               977.7783
 Red. masses --      1.3610                 1.3608                 1.3553
 Frc consts  --      0.7638                 0.7638                 0.7634
 IR Inten    --      0.0161                 0.0146                 0.1381

                     43                     44                     45
                      A                      A                      A
 Frequencies --   1000.4060              1000.4550              1001.1664
 Red. masses --      1.2542                 1.2539                 1.2524
 Frc consts  --      0.7395                 0.7394                 0.7396
 IR Inten    --      0.0774                 0.0821                 0.0003

                     46                     47                     48
                      A                      A                      A
 Frequencies --   1015.3599              1015.4096              1015.7635
 Red. masses --      6.3133                 6.3119                 6.3089
 Frc consts  --      3.8349                 3.8343                 3.8352
 IR Inten    --      4.3374                 4.3775                 0.0708

                     49                     50                     51
                      A                      A                      A
 Frequencies --   1052.7243              1052.7801              1052.9270
 Red. masses --      3.3111                 3.3187                 3.2528
 Frc consts  --      2.1620                 2.1672                 2.1247
 IR Inten    --      2.0837                 2.0740                 0.0499

                     52                     53                     54
                      A                      A                      A
 Frequencies --   1107.7507              1108.1348              1109.4838
 Red. masses --      1.9144                 1.8750                 1.6548
 Frc consts  --      1.3841                 1.3566                 1.2001
 IR Inten    --      4.7825                 4.1041                 2.9561

                     55                     56                     57
                      A                      A                      A
 Frequencies --   1110.7821              1110.9139              1115.9321
 Red. masses --      2.1552                 2.1954                 2.6121
 Frc consts  --      1.5668                 1.5963                 1.9165
 IR Inten    --      8.9839                 9.4403                 1.1526

                     58                     59                     60
                      A                      A                      A
 Frequencies --   1193.5153              1193.9423              1193.9769
 Red. masses --      1.1034                 1.1000                 1.1000
 Frc consts  --      0.9260                 0.9239                 0.9240
 IR Inten    --      0.0013                 0.1303                 0.1258

                     61                     62                     63
                      A                      A                      A
 Frequencies --   1219.1752              1219.5820              1220.7623
 Red. masses --      1.1475                 1.1479                 1.1473
 Frc consts  --      1.0050                 1.0059                 1.0073
 IR Inten    --      5.9073                 6.0983                 0.4464

                     64                     65                     66
                      A                      A                      A
 Frequencies --   1325.0266              1328.6915              1328.9437
 Red. masses --      3.4819                 3.4789                 3.5305
 Frc consts  --      3.6018                 3.6186                 3.6736
 IR Inten    --      2.6447                 2.4352                 2.4455

                     67                     68                     69
                      A                      A                      A
 Frequencies --   1365.0252              1365.4635              1365.5676
 Red. masses --      1.6639                 1.6448                 1.6428
 Frc consts  --      1.8266                 1.8069                 1.8050
 IR Inten    --      0.6385                 0.1744                 2.5853

                     70                     71                     72
                      A                      A                      A
 Frequencies --   1480.5486              1480.9995              1481.0652
 Red. masses --      2.1106                 2.1153                 2.1163
 Frc consts  --      2.7259                 2.7336                 2.7352
 IR Inten    --     16.6305                 6.6521                 6.5981

                     73                     74                     75
                      A                      A                      A
 Frequencies --   1531.0591              1531.5878              1531.6903
 Red. masses --      2.0158                 1.9987                 1.9972
 Frc consts  --      2.7841                 2.7624                 2.7607
 IR Inten    --      2.0201                10.1277                10.1493

                     76                     77                     78
                      A                      A                      A
 Frequencies --   1630.1882              1630.4659              1630.4805
 Red. masses --      5.1023                 5.1127                 5.1119
 Frc consts  --      7.9890                 8.0080                 8.0068
 IR Inten    --      0.3971                 0.0447                 0.0447

                     79                     80                     81
                      A                      A                      A
 Frequencies --   1646.1829              1646.1920              1647.9743
 Red. masses --      5.2716                 5.2685                 5.2825
 Frc consts  --      8.4169                 8.4121                 8.4527
 IR Inten    --      3.5082                 3.5139                 0.3213

                     82                     83                     84
                      A                      A                      A
 Frequencies --   3176.1005              3176.1571              3176.1763
 Red. masses --      1.0853                 1.0853                 1.0853
 Frc consts  --      6.4507                 6.4509                 6.4509
 IR Inten    --      2.0857                 2.0372                 1.8246

                     85                     86                     87
                      A                      A                      A
 Frequencies --   3182.6637              3182.7229              3182.7847
 Red. masses --      1.0875                 1.0875                 1.0876
 Frc consts  --      6.4903                 6.4905                 6.4913
 IR Inten    --      0.7295                 0.8005                 0.1784

                     88                     89                     90
                      A                      A                      A
 Frequencies --   3192.8574              3192.8832              3193.0060
 Red. masses --      1.0916                 1.0917                 1.0917
 Frc consts  --      6.5567                 6.5569                 6.5580
 IR Inten    --     10.2339                11.3262                46.7161

                     91                     92                     93
                      A                      A                      A
 Frequencies --   3203.8585              3203.9980              3204.3580
 Red. masses --      1.0940                 1.0942                 1.0943
 Frc consts  --      6.6165                 6.6181                 6.6202
 IR Inten    --     39.8785                41.5768                 6.4283

                     94                     95                     96
                      A                      A                      A
 Frequencies --   3210.0053              3210.2670              3211.0968
 Red. masses --      1.0958                 1.0955                 1.0955
 Frc consts  --      6.6524                 6.6519                 6.6553
 IR Inten    --     20.4421                18.9756                16.3160

 - Thermochemistry -
 -------------------
 Temperature   298.150 Kelvin.  Pressure   1.00000 Atm.
 Atom     1 has atomic number 15 and mass  30.97376

 Molecular mass:   262.09114 amu.
 Principal axes and moments of inertia in atomic units:
                           1         2         3
     Eigenvalues --  5162.999585163.353898680.44078
           X            0.99987  -0.01612   0.00000
           Y            0.01612   0.99987   0.00000
           Z           -0.00000  -0.00000   1.00000
 This molecule is an asymmetric top.
 Rotational symmetry number  1.
 Warning -- assumption of classical behavior for rotation
           may cause significant error
 Rotational temperatures (Kelvin)      0.01678     0.01677     0.00998
 Rotational constants (GHZ):           0.34955     0.34953     0.20791
 Zero-point vibrational energy     720009.0 (Joules/Mol)
                                  172.08628 (Kcal/Mol)
 Warning -- explicit consideration of  21 degrees of freedom as
           vibrations may cause significant error
 Vibrational temperatures:     34.33    36.34    55.99    76.90    77.09
          (Kelvin)            101.86   261.49   291.51   291.72   353.30
                              373.84   374.28   588.34   588.44   593.39
                              600.13   617.95   618.03   733.13   733.28
                              743.02   910.38   910.42   911.31   995.41
                             1014.58  1014.67  1024.92  1025.12  1026.39
                             1095.48  1097.61  1097.68  1246.43  1246.60
                             1250.12  1342.38  1342.56  1344.31  1404.17
                             1404.33  1406.80  1439.36  1439.43  1440.46
                             1460.88  1460.95  1461.46  1514.64  1514.72
                             1514.93  1593.81  1594.36  1596.30  1598.17
                             1598.36  1605.58  1717.20  1717.82  1717.87
                             1754.12  1754.71  1756.40  1906.42  1911.69
                             1912.05  1963.97  1964.60  1964.75  2130.18
                             2130.83  2130.92  2202.85  2203.61  2203.76
                             2345.48  2345.88  2345.90  2368.49  2368.50
                             2371.07  4569.70  4569.78  4569.81  4579.14
                             4579.23  4579.32  4593.81  4593.85  4594.02
                             4609.64  4609.84  4610.36  4618.48  4618.86
                             4620.05

 Zero-point correction=                           0.274237 (Hartree/Particle)
 Thermal correction to Energy=                    0.290148
 Thermal correction to Enthalpy=                  0.291093
 Thermal correction to Gibbs Free Energy=         0.227888
 Sum of electronic and zero-point Energies=          -1036.024000
 Sum of electronic and thermal Energies=             -1036.008088
 Sum of electronic and thermal Enthalpies=           -1036.007144
 Sum of electronic and thermal Free Energies=        -1036.070349

                     E (Thermal)             CV                S
                      KCal/Mol        Cal/Mol-Kelvin    Cal/Mol-Kelvin
 Total                  182.071             62.531            133.026
 Electronic               0.000              0.000              0.000
 Translational            0.889              2.981             42.590
 Rotational               0.889              2.981             33.803
 Vibrational            180.293             56.569             56.633
 Vibration     1          0.593              1.985              6.284
 Vibration     2          0.593              1.985              6.171
 Vibration     3          0.594              1.981              5.313
 Vibration     4          0.596              1.976              4.686
 Vibration     5          0.596              1.976              4.681
 Vibration     6          0.598              1.968              4.131
 Vibration     7          0.630              1.865              2.310
 Vibration     8          0.639              1.836              2.109
 Vibration     9          0.639              1.836              2.108
 Vibration    10          0.660              1.770              1.762
 Vibration    11          0.668              1.746              1.663
 Vibration    12          0.668              1.746              1.661
 Vibration    13          0.773              1.451              0.930
 Vibration    14          0.773              1.451              0.930
 Vibration    15          0.776              1.443              0.918
 Vibration    16          0.780              1.433              0.902
 Vibration    17          0.791              1.406              0.860
 Vibration    18          0.791              1.406              0.860
 Vibration    19          0.865              1.229              0.635
 Vibration    20          0.865              1.229              0.634
 Vibration    21          0.871              1.214              0.618

                           ! Non-Optimized Parameters !
 Normal termination of Gaussian 16 at Sun Dec  8 19:10:04 2019.
 Gaussian 16:  ES64L-G16RevA.03 25-Dec-2016

 ----------------------------------------------------------------------
 # TD(NStates=10, Root=1) B3LYP/6-31G* scf=xqc volume pop=NPA density=c
 urrent Geom=AllCheck Guess=Read
 ----------------------------------------------------------------------

 Structure from the checkpoint file:  "direct_arylation_ligand38_conf143.chk"
 -------------------
 Title Card Required
 -------------------
 Charge =  0 Multiplicity = 1

                         Standard orientation:
 ---------------------------------------------------------------------
 Center     Atomic      Atomic             Coordinates (Angstroms)
 Number     Number       Type             X           Y           Z
 ---------------------------------------------------------------------
      1         15           0       -0.000019   -0.000019   -1.206465
      2          6           0       -1.595769   -0.494869   -0.402409
      3          6           0       -2.335906   -1.509511   -1.032803
      4          6           0       -3.553667   -1.939936   -0.506589
      5          6           0       -4.062571   -1.348509    0.651614
      6          6           0       -3.344566   -0.329795    1.279911
      7          6           0       -2.119542    0.092990    0.759140
      8          6           0        0.369419    1.629389   -0.402613
      9          6           0        1.140715    1.789032    0.758732
     10          6           0        1.386974    3.061293    1.279629
     11          6           0        0.863341    4.192437    0.651624
     12          6           0        0.096451    4.047457   -0.506423
     13          6           0       -0.139583    2.777664   -1.032749
     14          6           0        1.226419   -1.134644   -0.402676
     15          6           0        0.979177   -1.882066    0.758960
     16          6           0        1.957868   -2.731404    1.279918
     17          6           0        3.199170   -2.843776    0.651730
     18          6           0        3.456915   -2.107492   -0.506569
     19          6           0        2.475226   -1.268264   -1.032991
     20          1           0       -1.955625   -1.961431   -1.946190
     21          1           0       -4.109921   -2.728761   -1.006450
     22          1           0       -5.016196   -1.675293    1.057944
     23          1           0       -3.737107    0.138300    2.179219
     24          1           0       -1.571040    0.886923    1.257046
     25          1           0        1.554284    0.916991    1.256321
     26          1           0        1.988841    3.167192    2.178795
     27          1           0        1.057050    5.181670    1.058059
     28          1           0       -0.308852    4.923601   -1.006048
     29          1           0       -0.721387    2.674295   -1.945951
     30          1           0        0.017317   -1.804027    1.256800
     31          1           0        1.748758   -3.305302    2.179292
     32          1           0        3.959039   -3.506086    1.058223
     33          1           0        4.418243   -2.194779   -1.006323
     34          1           0        2.676468   -0.712993   -1.946387
 ---------------------------------------------------------------------

 SCF Done:  E(RB3LYP) =  -1036.29823690     A.U. after    3 cycles

 Excitation energies and oscillator strengths:

 Excited State   1:      Singlet-A      4.5105 eV  274.88 nm  f=0.1279  <S**2>=0.000
      69 -> 70         0.68587
      69 -> 71         0.12487
 This state for optimization and/or second-order correction.
 Total Energy, E(TD-HF/TD-DFT) =  -1036.13248045
 Copying the excited state density for this state as the 1-particle RhoCI density.

 Excited State   2:      Singlet-A      4.5106 eV  274.88 nm  f=0.1278  <S**2>=0.000
      69 -> 70        -0.12487
      69 -> 71         0.68587

 Excited State   3:      Singlet-A      4.7574 eV  260.61 nm  f=0.0022  <S**2>=0.000
      67 -> 70         0.12050
      68 -> 71         0.12045
      69 -> 72         0.67463

 Excited State   4:      Singlet-A      5.0581 eV  245.12 nm  f=0.0002  <S**2>=0.000
      66 -> 71        -0.17172
      67 -> 71        -0.11632
      68 -> 70        -0.11639
      69 -> 74         0.62567

 Excited State   5:      Singlet-A      5.0581 eV  245.12 nm  f=0.0002  <S**2>=0.000
      66 -> 70        -0.17176
      67 -> 70         0.11638
      68 -> 71        -0.11635
      69 -> 75         0.62565

 Excited State   6:      Singlet-A      5.1511 eV  240.69 nm  f=0.0085  <S**2>=0.000
      69 -> 73         0.67916

 Excited State   7:      Singlet-A      5.4273 eV  228.44 nm  f=0.0147  <S**2>=0.000
      63 -> 72        -0.16614
      64 -> 74        -0.16529
      65 -> 75         0.16522
      67 -> 70         0.39296
      67 -> 71         0.15078
      68 -> 70        -0.15077
      68 -> 71         0.39308
      69 -> 72        -0.16529

 Excited State   8:      Singlet-A      5.5144 eV  224.84 nm  f=0.0004  <S**2>=0.000
      63 -> 74         0.13426
      64 -> 71         0.12478
      64 -> 72         0.25212
      64 -> 75        -0.10083
      65 -> 70         0.12493
      65 -> 72        -0.12797
      65 -> 74         0.10086
      66 -> 71         0.22184
      67 -> 71         0.25512
      67 -> 72        -0.12832
      68 -> 70         0.25545
      68 -> 72         0.10145
      69 -> 74         0.26899
      69 -> 75         0.10647

 Excited State   9:      Singlet-A      5.5144 eV  224.84 nm  f=0.0004  <S**2>=0.000
      63 -> 75         0.13431
      64 -> 70        -0.12466
      64 -> 72        -0.12793
      64 -> 74        -0.10086
      65 -> 71         0.12474
      65 -> 72        -0.25212
      65 -> 75        -0.10089
      66 -> 70         0.22196
      67 -> 70        -0.25545
      67 -> 72         0.10138
      68 -> 71         0.25515
      68 -> 72         0.12853
      69 -> 74        -0.10645
      69 -> 75         0.26902

 Excited State  10:      Singlet-A      5.6180 eV  220.69 nm  f=0.0009  <S**2>=0.000
      64 -> 71        -0.11629
      65 -> 70         0.11619
      67 -> 70         0.14395
      67 -> 71        -0.46087
      68 -> 70         0.46133
      68 -> 71         0.14448

 The electronic state is 1-A.
 Alpha  occ. eigenvalues --  -77.08112 -10.19447 -10.19447 -10.19446 -10.19146
 Alpha  occ. eigenvalues --  -10.19146 -10.19146 -10.19117 -10.19117 -10.19116
 Alpha  occ. eigenvalues --  -10.19031 -10.19030 -10.19030 -10.19007 -10.19007
 Alpha  occ. eigenvalues --  -10.19007 -10.18962 -10.18961 -10.18961  -6.54843
 Alpha  occ. eigenvalues --   -4.71102  -4.71102  -4.70601  -0.85560  -0.84845
 Alpha  occ. eigenvalues --   -0.84845  -0.76669  -0.74366  -0.74366  -0.74329
 Alpha  occ. eigenvalues --   -0.73821  -0.73821  -0.64436  -0.60337  -0.60307
 Alpha  occ. eigenvalues --   -0.60306  -0.59207  -0.59207  -0.55448  -0.51435
 Alpha  occ. eigenvalues --   -0.51435  -0.49296  -0.45440  -0.45439  -0.44774
 Alpha  occ. eigenvalues --   -0.44344  -0.44344  -0.44068  -0.41946  -0.41868
 Alpha  occ. eigenvalues --   -0.41868  -0.40378  -0.40377  -0.36844  -0.36351
 Alpha  occ. eigenvalues --   -0.36351  -0.35898  -0.34252  -0.34251  -0.34224
 Alpha  occ. eigenvalues --   -0.31884  -0.31883  -0.26775  -0.25447  -0.25447
 Alpha  occ. eigenvalues --   -0.25242  -0.24704  -0.24704  -0.21145
 Alpha virt. eigenvalues --   -0.01880  -0.01880  -0.00829   0.00173   0.00428
 Alpha virt. eigenvalues --    0.00428   0.06884   0.06885   0.09492   0.11039
 Alpha virt. eigenvalues --    0.11039   0.13903   0.14529   0.14529   0.15165

 Mulliken charges:
               1
     1  P    0.450628
     2  C   -0.087989
     3  C   -0.161947
     4  C   -0.117297
     5  C   -0.123967
     6  C   -0.121721
     7  C   -0.147525
     8  C   -0.133224
     9  C   -0.170655
    10  C   -0.120997
    11  C   -0.166770
    12  C   -0.120708
    13  C   -0.175321
    14  C   -0.099860
    15  C   -0.167395
    16  C   -0.115373
    17  C   -0.145418
    18  C   -0.125039
    19  C   -0.155034
    20  H    0.145988
    21  H    0.141668
    22  H    0.144946
    23  H    0.146328
    24  H    0.178783
    25  H    0.133263
    26  H    0.117994
    27  H    0.108651
    28  H    0.113781
    29  H    0.113040
    30  H    0.138721
    31  H    0.131352
    32  H    0.126953
    33  H    0.129090
    34  H    0.135055
 Sum of Mulliken charges =  -0.00000

 Dipole moment (field-independent basis, Debye):
    X=             -2.5222    Y=             -2.7628    Z=             -0.1960  Tot=              3.7461
 Quadrupole moment (field-independent basis, Debye-Ang):
   XX=           -106.5858   YY=           -120.4890   ZZ=           -110.6558
   XY=              0.7867   XZ=             -1.3079   YZ=             -0.2734

 Summary of Natural Population Analysis:

                                       Natural Population
                Natural  -----------------------------------------------
    Atom  No    Charge         Core      Valence    Rydberg      Total
 -----------------------------------------------------------------------
      P    1    1.24224      9.99750     3.71001    0.05025    13.75776
      C    2   -0.38925      1.99891     4.36491    0.02544     6.38925
      C    3   -0.21076      1.99902     4.19642    0.01533     6.21076
      C    4   -0.23235      1.99910     4.21909    0.01417     6.23235
      C    5   -0.20267      1.99909     4.18965    0.01392     6.20267
      C    6   -0.23322      1.99909     4.21995    0.01417     6.23322
      C    7   -0.20220      1.99900     4.18705    0.01615     6.20220
      C    8   -0.48609      1.99887     4.46127    0.02596     6.48609
      C    9   -0.25200      1.99899     4.23509    0.01792     6.25200
      C   10   -0.23397      1.99909     4.22021    0.01467     6.23397
      C   11   -0.29345      1.99909     4.27774    0.01661     6.29345
      C   12   -0.24095      1.99910     4.22697    0.01488     6.24095
      C   13   -0.23879      1.99902     4.22338    0.01639     6.23879
      C   14   -0.42126      1.99888     4.39828    0.02411     6.42126
      C   15   -0.24864      1.99899     4.23234    0.01731     6.24864
      C   16   -0.22292      1.99909     4.20966    0.01417     6.22292
      C   17   -0.24843      1.99909     4.23404    0.01530     6.24843
      C   18   -0.24729      1.99910     4.23327    0.01492     6.24729
      C   19   -0.20481      1.99901     4.19028    0.01552     6.20481
      H   20    0.24020      0.00000     0.75865    0.00115     0.75980
      H   21    0.24241      0.00000     0.75668    0.00092     0.75759
      H   22    0.24153      0.00000     0.75763    0.00084     0.75847
      H   23    0.24545      0.00000     0.75368    0.00086     0.75455
      H   24    0.26291      0.00000     0.73583    0.00126     0.73709
      H   25    0.23737      0.00000     0.76106    0.00156     0.76263
      H   26    0.23233      0.00000     0.76679    0.00088     0.76767
      H   27    0.22586      0.00000     0.77324    0.00090     0.77414
      H   28    0.22948      0.00000     0.76959    0.00093     0.77052
      H   29    0.22315      0.00000     0.77590    0.00095     0.77685
      H   30    0.24089      0.00000     0.75781    0.00131     0.75911
      H   31    0.23838      0.00000     0.76074    0.00088     0.76162
      H   32    0.23387      0.00000     0.76525    0.00088     0.76613
      H   33    0.23719      0.00000     0.76194    0.00087     0.76281
      H   34    0.23582      0.00000     0.76297    0.00122     0.76418
 =======================================================================
   * Total *   -0.00000     45.98001    91.64738    0.37261   138.00000

 Normal termination of Gaussian 16 at Sun Dec  8 19:26:00 2019.
