 Gaussian 16, Revision A.03,

 -----------------------------------------
 # opt=CalcFc B3LYP/6-31G* scf=xqc scf=xqc
 -----------------------------------------

 -------------------
 Title Card Required
 -------------------
 Symbolic Z-matrix:
 Charge =  0 Multiplicity = 1

 SCF Done:  E(RB3LYP) =  -1036.28957765     A.U. after   14 cycles
 SCF Done:  E(RB3LYP) =  -1036.29639390     A.U. after   14 cycles
 SCF Done:  E(RB3LYP) =  -1036.29698253     A.U. after   14 cycles
 SCF Done:  E(RB3LYP) =  -1036.25054129     A.U. after   14 cycles
 SCF Done:  E(RB3LYP) =  -1036.29749814     A.U. after   12 cycles
 SCF Done:  E(RB3LYP) =  -1036.29776847     A.U. after   12 cycles
 SCF Done:  E(RB3LYP) =  -1036.29796624     A.U. after   12 cycles
 SCF Done:  E(RB3LYP) =  -1036.29803875     A.U. after   11 cycles
 SCF Done:  E(RB3LYP) =  -1036.29810952     A.U. after   12 cycles
 SCF Done:  E(RB3LYP) =  -1036.29817656     A.U. after   12 cycles
 SCF Done:  E(RB3LYP) =  -1036.29822791     A.U. after   11 cycles
 SCF Done:  E(RB3LYP) =  -1036.29823727     A.U. after   10 cycles
 SCF Done:  E(RB3LYP) =  -1036.29823968     A.U. after   10 cycles
 SCF Done:  E(RB3LYP) =  -1036.29822192     A.U. after   10 cycles
 SCF Done:  E(RB3LYP) =  -1036.29822544     A.U. after   11 cycles
 SCF Done:  E(RB3LYP) =  -1036.29822804     A.U. after   10 cycles
 SCF Done:  E(RB3LYP) =  -1036.29822923     A.U. after   10 cycles
 SCF Done:  E(RB3LYP) =  -1036.29823778     A.U. after    8 cycles
 Optimization completed.
    -- Stationary point found.
 Normal termination of Gaussian 16 at Sun Dec  8 18:55:46 2019.

 ----------------------------------------------------------------------
 # freq B3LYP/6-31G* scf=xqc volume NMR pop=NPA density=current Geom=Al
 lCheck Guess=Read
 ----------------------------------------------------------------------

 Structure from the checkpoint file:  "direct_arylation_ligand38_conf82.chk"
 -------------------
 Title Card Required
 -------------------
 Charge =  0 Multiplicity = 1

 SCF Done:  E(RB3LYP) =  -1036.29823778     A.U. after    1 cycles

      1  P    Isotropic =   361.4639   Anisotropy =    39.7150

      2  C    Isotropic =    56.1169   Anisotropy =   179.3882

      3  C    Isotropic =    60.9873   Anisotropy =   164.0897

      4  C    Isotropic =    68.7338   Anisotropy =   164.1426

      5  C    Isotropic =    68.1746   Anisotropy =   167.3793

      6  C    Isotropic =    68.6783   Anisotropy =   163.8944

      7  C    Isotropic =    62.5623   Anisotropy =   174.0088

      8  C    Isotropic =    56.1274   Anisotropy =   179.4083

      9  C    Isotropic =    62.5889   Anisotropy =   174.0252

     10  C    Isotropic =    68.6741   Anisotropy =   163.8972

     11  C    Isotropic =    68.1773   Anisotropy =   167.3388

     12  C    Isotropic =    68.7311   Anisotropy =   164.1255

     13  C    Isotropic =    61.0063   Anisotropy =   164.1283

     14  C    Isotropic =    56.1125   Anisotropy =   179.4275

     15  C    Isotropic =    61.0234   Anisotropy =   164.1226

     16  C    Isotropic =    68.7314   Anisotropy =   164.1156

     17  C    Isotropic =    68.1700   Anisotropy =   167.3313

     18  C    Isotropic =    68.6794   Anisotropy =   163.8936

     19  C    Isotropic =    62.5831   Anisotropy =   174.0259

     20  H    Isotropic =    24.6141   Anisotropy =     9.2488

     21  H    Isotropic =    24.9248   Anisotropy =     4.5909

     22  H    Isotropic =    25.0171   Anisotropy =     3.6464

     23  H    Isotropic =    25.0477   Anisotropy =     6.0854

     24  H    Isotropic =    25.4018   Anisotropy =    12.2208

     25  H    Isotropic =    25.4012   Anisotropy =    12.2253

     26  H    Isotropic =    25.0475   Anisotropy =     6.0853

     27  H    Isotropic =    25.0199   Anisotropy =     3.6421

     28  H    Isotropic =    24.9275   Anisotropy =     4.5888

     29  H    Isotropic =    24.6140   Anisotropy =     9.2558

     30  H    Isotropic =    24.6148   Anisotropy =     9.2518

     31  H    Isotropic =    24.9282   Anisotropy =     4.5875

     32  H    Isotropic =    25.0202   Anisotropy =     3.6431

     33  H    Isotropic =    25.0477   Anisotropy =     6.0863

     34  H    Isotropic =    25.4017   Anisotropy =    12.2251

  Exact polarizability: 224.186  -0.019 224.141  -0.024   0.001 165.008
 Approx polarizability: 330.979  -0.047 330.905  -0.057   0.006 307.959

                      1                      2                      3
                      A                      A                      A
 Frequencies --     23.4141                25.5948                39.1999
 Red. masses --      3.7982                 3.8021                 3.6904
 Frc consts  --      0.0012                 0.0015                 0.0033
 IR Inten    --      0.2811                 0.2824                 0.0025

                      4                      5                      6
                      A                      A                      A
 Frequencies --     53.4236                53.5488                70.8016
 Red. masses --      5.2517                 5.2511                 5.1667
 Frc consts  --      0.0088                 0.0089                 0.0153
 IR Inten    --      0.0877                 0.0855                 0.3113

                      7                      8                      9
                      A                      A                      A
 Frequencies --    181.8804               202.5733               202.8930
 Red. masses --      4.5643                 4.6413                 4.6399
 Frc consts  --      0.0890                 0.1122                 0.1125
 IR Inten    --      0.3530                 1.1322                 1.1321

                     10                     11                     12
                      A                      A                      A
 Frequencies --    245.5741               260.0487               260.1032
 Red. masses --      5.7410                 4.7245                 4.7241
 Frc consts  --      0.2040                 0.1882                 0.1883
 IR Inten    --      0.4824                 0.2302                 0.2250

                     13                     14                     15
                      A                      A                      A
 Frequencies --    408.9121               409.0208               412.4428
 Red. masses --      3.0781                 3.0841                 3.6422
 Frc consts  --      0.3032                 0.3040                 0.3650
 IR Inten    --      1.9570                 1.9868                 0.1695

                     16                     17                     18
                      A                      A                      A
 Frequencies --    417.1732               429.5449               429.5861
 Red. masses --      4.5403                 7.2946                 7.3296
 Frc consts  --      0.4655                 0.7930                 0.7969
 IR Inten    --      0.5496                 7.6726                 7.7474

                     19                     20                     21
                      A                      A                      A
 Frequencies --    509.5585               509.6925               516.5302
 Red. masses --      4.2474                 4.2472                 4.5927
 Frc consts  --      0.6498                 0.6501                 0.7220
 IR Inten    --     26.1106                26.0513                11.9523

                     22                     23                     24
                      A                      A                      A
 Frequencies --    632.7443               632.7795               633.3896
 Red. masses --      6.4274                 6.4276                 6.4370
 Frc consts  --      1.5162                 1.5164                 1.5215
 IR Inten    --      0.1832                 0.1817                 0.0163

                     25                     26                     27
                      A                      A                      A
 Frequencies --    691.9017               705.1837               705.2575
 Red. masses --      6.5787                 5.7108                 5.7837
 Frc consts  --      1.8556                 1.6732                 1.6949
 IR Inten    --      0.7987                 1.1767                 1.1011

                     28                     29                     30
                      A                      A                      A
 Frequencies --    712.3414               712.5228               713.4475
 Red. masses --      2.2013                 2.1938                 2.1388
 Frc consts  --      0.6581                 0.6562                 0.6414
 IR Inten    --     26.3891                26.4129                16.5789

                     31                     32                     33
                      A                      A                      A
 Frequencies --    761.4339               762.8988               762.9373
 Red. masses --      1.6131                 1.6485                 1.6489
 Frc consts  --      0.5510                 0.5653                 0.5655
 IR Inten    --     19.2881                24.9057                24.8635

                     34                     35                     36
                      A                      A                      A
 Frequencies --    866.2957               866.4674               868.9231
 Red. masses --      1.2476                 1.2475                 1.2461
 Frc consts  --      0.5516                 0.5518                 0.5543
 IR Inten    --      0.2243                 0.2125                 0.1291

                     37                     38                     39
                      A                      A                      A
 Frequencies --    932.9682               933.1433               934.4606
 Red. masses --      1.3441                 1.3436                 1.3381
 Frc consts  --      0.6893                 0.6893                 0.6884
 IR Inten    --      1.2630                 1.2669                 0.0287

                     40                     41                     42
                      A                      A                      A
 Frequencies --    975.9248               976.0885               977.8313
 Red. masses --      1.3611                 1.3607                 1.3551
 Frc consts  --      0.7638                 0.7638                 0.7634
 IR Inten    --      0.0162                 0.0148                 0.1350

                     43                     44                     45
                      A                      A                      A
 Frequencies --   1000.3874              1000.4705              1001.2113
 Red. masses --      1.2542                 1.2539                 1.2523
 Frc consts  --      0.7395                 0.7395                 0.7396
 IR Inten    --      0.0788                 0.0802                 0.0002

                     46                     47                     48
                      A                      A                      A
 Frequencies --   1015.3886              1015.4002              1015.7717
 Red. masses --      6.3120                 6.3120                 6.3076
 Frc consts  --      3.8343                 3.8344                 3.8345
 IR Inten    --      4.3653                 4.3593                 0.0473

                     49                     50                     51
                      A                      A                      A
 Frequencies --   1052.7591              1052.7825              1052.9369
 Red. masses --      3.3134                 3.3166                 3.2524
 Frc consts  --      2.1636                 2.1658                 2.1245
 IR Inten    --      2.0858                 2.0835                 0.0405

                     52                     53                     54
                      A                      A                      A
 Frequencies --   1107.8351              1108.1658              1109.5078
 Red. masses --      1.8900                 1.8715                 1.6551
 Frc consts  --      1.3667                 1.3541                 1.2005
 IR Inten    --      4.3676                 4.0108                 2.9231

                     55                     56                     57
                      A                      A                      A
 Frequencies --   1110.8446              1110.9599              1116.1266
 Red. masses --      2.1885                 2.1999                 2.6132
 Frc consts  --      1.5911                 1.5997                 1.9180
 IR Inten    --      9.4080                 9.5028                 1.1734

                     58                     59                     60
                      A                      A                      A
 Frequencies --   1193.5323              1193.9627              1193.9782
 Red. masses --      1.1034                 1.1001                 1.1000
 Frc consts  --      0.9261                 0.9239                 0.9239
 IR Inten    --      0.0012                 0.1287                 0.1269

                     61                     62                     63
                      A                      A                      A
 Frequencies --   1219.3287              1219.5458              1220.8425
 Red. masses --      1.1477                 1.1478                 1.1473
 Frc consts  --      1.0053                 1.0058                 1.0075
 IR Inten    --      5.9757                 6.0886                 0.4013

                     64                     65                     66
                      A                      A                      A
 Frequencies --   1325.0830              1328.7463              1328.9275
 Red. masses --      3.4957                 3.4954                 3.5204
 Frc consts  --      3.6163                 3.6361                 3.6631
 IR Inten    --      2.6282                 2.4385                 2.4459

                     67                     68                     69
                      A                      A                      A
 Frequencies --   1365.1756              1365.4330              1365.6491
 Red. masses --      1.6574                 1.6472                 1.6412
 Frc consts  --      1.8200                 1.8094                 1.8033
 IR Inten    --      0.5484                 0.1597                 2.6958

                     70                     71                     72
                      A                      A                      A
 Frequencies --   1480.5435              1480.9997              1481.0610
 Red. masses --      2.1106                 2.1154                 2.1162
 Frc consts  --      2.7259                 2.7337                 2.7349
 IR Inten    --     16.5986                 6.6531                 6.6231

                     73                     74                     75
                      A                      A                      A
 Frequencies --   1531.0800              1531.6442              1531.6842
 Red. masses --      2.0155                 1.9983                 1.9975
 Frc consts  --      2.7837                 2.7620                 2.7611
 IR Inten    --      1.9908                10.1432                10.1518

                     76                     77                     78
                      A                      A                      A
 Frequencies --   1630.1891              1630.4637              1630.5137
 Red. masses --      5.1016                 5.1118                 5.1122
 Frc consts  --      7.9880                 8.0066                 8.0076
 IR Inten    --      0.3932                 0.0492                 0.0437

                     79                     80                     81
                      A                      A                      A
 Frequencies --   1646.1835              1646.1920              1647.9712
 Red. masses --      5.2697                 5.2695                 5.2822
 Frc consts  --      8.4137                 8.4136                 8.4521
 IR Inten    --      3.5165                 3.5132                 0.3199

                     82                     83                     84
                      A                      A                      A
 Frequencies --   3176.0817              3176.1215              3176.1363
 Red. masses --      1.0854                 1.0854                 1.0853
 Frc consts  --      6.4507                 6.4509                 6.4509
 IR Inten    --      2.1312                 2.1014                 1.8058

                     85                     86                     87
                      A                      A                      A
 Frequencies --   3182.6451              3182.6736              3182.7432
 Red. masses --      1.0875                 1.0875                 1.0876
 Frc consts  --      6.4901                 6.4903                 6.4911
 IR Inten    --      0.7600                 0.7512                 0.1658

                     88                     89                     90
                      A                      A                      A
 Frequencies --   3192.8405              3192.8869              3193.0001
 Red. masses --      1.0916                 1.0917                 1.0917
 Frc consts  --      6.5567                 6.5569                 6.5579
 IR Inten    --     11.2771                10.2981                46.7041

                     91                     92                     93
                      A                      A                      A
 Frequencies --   3203.9097              3204.0232              3204.3716
 Red. masses --      1.0941                 1.0942                 1.0943
 Frc consts  --      6.6172                 6.6181                 6.6201
 IR Inten    --     40.7522                42.2185                 5.0913

                     94                     95                     96
                      A                      A                      A
 Frequencies --   3210.0930              3210.2498              3211.0821
 Red. masses --      1.0957                 1.0955                 1.0955
 Frc consts  --      6.6521                 6.6520                 6.6555
 IR Inten    --     19.9202                19.2553                16.3182

 - Thermochemistry -
 -------------------
 Temperature   298.150 Kelvin.  Pressure   1.00000 Atm.
 Atom     1 has atomic number 15 and mass  30.97376

 Molecular mass:   262.09114 amu.
 Principal axes and moments of inertia in atomic units:
                           1         2         3
     Eigenvalues --  5162.421895164.035318682.12530
           X            0.99990  -0.01402  -0.00001
           Y            0.01402   0.99990  -0.00000
           Z            0.00001   0.00000   1.00000
 This molecule is an asymmetric top.
 Rotational symmetry number  1.
 Warning -- assumption of classical behavior for rotation
           may cause significant error
 Rotational temperatures (Kelvin)      0.01678     0.01677     0.00998
 Rotational constants (GHZ):           0.34959     0.34948     0.20787
 Zero-point vibrational energy     720023.9 (Joules/Mol)
                                  172.08984 (Kcal/Mol)
 Warning -- explicit consideration of  21 degrees of freedom as
           vibrations may cause significant error
 Vibrational temperatures:     33.69    36.83    56.40    76.86    77.04
          (Kelvin)            101.87   261.69   291.46   291.92   353.33
                              374.15   374.23   588.33   588.49   593.41
                              600.22   618.02   618.08   733.14   733.33
                              743.17   910.38   910.43   911.31   995.49
                             1014.60  1014.71  1024.90  1025.16  1026.49
                             1095.53  1097.64  1097.70  1246.41  1246.65
                             1250.19  1342.33  1342.59  1344.48  1404.14
                             1404.37  1406.88  1439.33  1439.45  1440.52
                             1460.92  1460.93  1461.47  1514.69  1514.72
                             1514.94  1593.93  1594.40  1596.33  1598.26
                             1598.42  1605.86  1717.23  1717.85  1717.87
                             1754.34  1754.65  1756.52  1906.50  1911.77
                             1912.03  1964.18  1964.55  1964.86  2130.17
                             2130.83  2130.92  2202.88  2203.69  2203.75
                             2345.48  2345.87  2345.95  2368.49  2368.50
                             2371.06  4569.67  4569.73  4569.75  4579.12
                             4579.16  4579.26  4593.79  4593.85  4594.02
                             4609.71  4609.87  4610.38  4618.61  4618.83
                             4620.03

 Zero-point correction=                           0.274243 (Hartree/Particle)
 Thermal correction to Energy=                    0.290153
 Thermal correction to Enthalpy=                  0.291097
 Thermal correction to Gibbs Free Energy=         0.227895
 Sum of electronic and zero-point Energies=          -1036.023995
 Sum of electronic and thermal Energies=             -1036.008085
 Sum of electronic and thermal Enthalpies=           -1036.007141
 Sum of electronic and thermal Free Energies=        -1036.070343

                     E (Thermal)             CV                S
                      KCal/Mol        Cal/Mol-Kelvin    Cal/Mol-Kelvin
 Total                  182.074             62.528            133.019
 Electronic               0.000              0.000              0.000
 Translational            0.889              2.981             42.590
 Rotational               0.889              2.981             33.803
 Vibrational            180.296             56.566             56.626
 Vibration     1          0.593              1.985              6.321
 Vibration     2          0.593              1.985              6.145
 Vibration     3          0.594              1.981              5.299
 Vibration     4          0.596              1.976              4.686
 Vibration     5          0.596              1.976              4.682
 Vibration     6          0.598              1.968              4.131
 Vibration     7          0.630              1.864              2.309
 Vibration     8          0.639              1.836              2.110
 Vibration     9          0.639              1.836              2.107
 Vibration    10          0.660              1.770              1.762
 Vibration    11          0.668              1.746              1.661
 Vibration    12          0.668              1.746              1.661
 Vibration    13          0.773              1.451              0.930
 Vibration    14          0.773              1.451              0.930
 Vibration    15          0.776              1.443              0.918
 Vibration    16          0.780              1.433              0.902
 Vibration    17          0.791              1.406              0.860
 Vibration    18          0.791              1.406              0.860
 Vibration    19          0.865              1.229              0.635
 Vibration    20          0.865              1.229              0.634
 Vibration    21          0.872              1.213              0.618

                           ! Non-Optimized Parameters !
 Normal termination of Gaussian 16 at Sun Dec  8 19:10:18 2019.
 Gaussian 16:  ES64L-G16RevA.03 25-Dec-2016

 ----------------------------------------------------------------------
 # TD(NStates=10, Root=1) B3LYP/6-31G* scf=xqc volume pop=NPA density=c
 urrent Geom=AllCheck Guess=Read
 ----------------------------------------------------------------------

 Structure from the checkpoint file:  "direct_arylation_ligand38_conf83.chk"
 -------------------
 Title Card Required
 -------------------
 Charge =  0 Multiplicity = 1

                         Standard orientation:
 ---------------------------------------------------------------------
 Center     Atomic      Atomic             Coordinates (Angstroms)
 Number     Number       Type             X           Y           Z
 ---------------------------------------------------------------------
      1         15           0       -0.000067   -0.000236   -1.205892
      2          6           0        1.408225   -0.899307   -0.402217
      3          6           0        1.853871   -2.073358   -1.032845
      4          6           0        2.914523   -2.810469   -0.506758
      5          6           0        3.561662   -2.374755    0.651512
      6          6           0        3.138538   -1.202558    1.279982
      7          6           0        2.068785   -0.470943    0.759382
      8          6           0       -1.483021   -0.769785   -0.402106
      9          6           0       -1.442623   -1.557402    0.758518
     10          6           0       -2.611367   -2.117866    1.278724
     11          6           0       -3.838081   -1.896667    0.650814
     12          6           0       -3.891588   -1.116836   -0.506424
     13          6           0       -2.722667   -0.566953   -1.032097
     14          6           0        0.074959    1.668918   -0.402310
     15          6           0        0.870377    2.641242   -1.032049
     16          6           0        0.978510    3.928367   -0.506020
     17          6           0        0.276283    4.271636    0.651248
     18          6           0       -0.528688    3.319713    1.278854
     19          6           0       -0.627540    2.027447    0.758328
     20          1           0        1.367643   -2.408497   -1.946304
     21          1           0        3.242521   -3.718177   -1.006762
     22          1           0        4.395018   -2.942026    1.057730
     23          1           0        3.640918   -0.854991    2.179300
     24          1           0        1.749700    0.439723    1.257353
     25          1           0       -0.494475   -1.737487    1.256161
     26          1           0       -2.561740   -2.727826    2.177301
     27          1           0       -4.746227   -2.334655    1.056683
     28          1           0       -4.841684   -0.945697   -1.005980
     29          1           0       -2.769697    0.022923   -1.944765
     30          1           0        1.404806    2.387238   -1.944728
     31          1           0        1.601768    4.665774   -1.005326
     32          1           0        0.351000    5.277010    1.057367
     33          1           0       -1.081878    3.581489    2.177416
     34          1           0       -1.257617    1.296198    1.255716
 ---------------------------------------------------------------------

 SCF Done:  E(RB3LYP) =  -1036.29823778     A.U. after    1 cycles

 Excitation energies and oscillator strengths:

 Excited State   1:      Singlet-A      4.5095 eV  274.94 nm  f=0.1279  <S**2>=0.000
      69 -> 70         0.69496
 This state for optimization and/or second-order correction.
 Total Energy, E(TD-HF/TD-DFT) =  -1036.13251710
 Copying the excited state density for this state as the 1-particle RhoCI density.

 Excited State   2:      Singlet-A      4.5103 eV  274.89 nm  f=0.1281  <S**2>=0.000
      69 -> 71         0.69495

 Excited State   3:      Singlet-A      4.7565 eV  260.66 nm  f=0.0022  <S**2>=0.000
      67 -> 70        -0.12466
      68 -> 71        -0.12479
      69 -> 72         0.67471

 Excited State   4:      Singlet-A      5.0573 eV  245.16 nm  f=0.0002  <S**2>=0.000
      66 -> 70         0.16976
      67 -> 71        -0.11793
      68 -> 70        -0.11790
      69 -> 74         0.63135

 Excited State   5:      Singlet-A      5.0576 eV  245.14 nm  f=0.0002  <S**2>=0.000
      66 -> 71        -0.16993
      67 -> 70         0.11828
      68 -> 71        -0.11815
      69 -> 75         0.63116

 Excited State   6:      Singlet-A      5.1506 eV  240.72 nm  f=0.0085  <S**2>=0.000
      69 -> 73         0.67914

 Excited State   7:      Singlet-A      5.4275 eV  228.44 nm  f=0.0147  <S**2>=0.000
      63 -> 72         0.16608
      64 -> 74         0.11641
      64 -> 75         0.11866
      65 -> 74         0.11913
      65 -> 75        -0.11564
      67 -> 70         0.41969
      68 -> 71         0.41787
      69 -> 72         0.16502

 Excited State   8:      Singlet-A      5.5141 eV  224.85 nm  f=0.0004  <S**2>=0.000
      63 -> 74         0.14509
      64 -> 71        -0.11565
      64 -> 72         0.20588
      64 -> 74        -0.11562
      65 -> 70        -0.11672
      65 -> 72         0.19380
      65 -> 75        -0.11608
      66 -> 70        -0.22370
      67 -> 70        -0.15033
      67 -> 71         0.22515
      68 -> 70         0.22704
      68 -> 71         0.15302
      68 -> 72         0.16337
      69 -> 74         0.28853

 Excited State   9:      Singlet-A      5.5145 eV  224.83 nm  f=0.0004  <S**2>=0.000
      63 -> 75         0.14515
      64 -> 70         0.11562
      64 -> 72         0.19393
      64 -> 75         0.11585
      65 -> 71        -0.11505
      65 -> 72        -0.20605
      65 -> 74        -0.11547
      66 -> 71         0.22316
      67 -> 70        -0.22570
      67 -> 71        -0.15115
      67 -> 72         0.16324
      68 -> 70        -0.15240
      68 -> 71         0.22750
      69 -> 75         0.28883

 Excited State  10:      Singlet-A      5.6182 eV  220.68 nm  f=0.0009  <S**2>=0.000
      67 -> 71        -0.48077
      68 -> 70         0.48473

 The electronic state is 1-A.
 Alpha  occ. eigenvalues --  -77.08112 -10.19447 -10.19447 -10.19446 -10.19147
 Alpha  occ. eigenvalues --  -10.19146 -10.19145 -10.19117 -10.19117 -10.19116
 Alpha  occ. eigenvalues --  -10.19031 -10.19031 -10.19030 -10.19007 -10.19007
 Alpha  occ. eigenvalues --  -10.19006 -10.18963 -10.18962 -10.18961  -6.54843
 Alpha  occ. eigenvalues --   -4.71102  -4.71102  -4.70600  -0.85560  -0.84846
 Alpha  occ. eigenvalues --   -0.84845  -0.76670  -0.74366  -0.74366  -0.74329
 Alpha  occ. eigenvalues --   -0.73822  -0.73821  -0.64436  -0.60335  -0.60308
 Alpha  occ. eigenvalues --   -0.60307  -0.59207  -0.59207  -0.55448  -0.51436
 Alpha  occ. eigenvalues --   -0.51435  -0.49295  -0.45440  -0.45440  -0.44774
 Alpha  occ. eigenvalues --   -0.44345  -0.44344  -0.44067  -0.41946  -0.41868
 Alpha  occ. eigenvalues --   -0.41868  -0.40378  -0.40377  -0.36844  -0.36352
 Alpha  occ. eigenvalues --   -0.36351  -0.35898  -0.34252  -0.34251  -0.34224
 Alpha  occ. eigenvalues --   -0.31885  -0.31883  -0.26778  -0.25448  -0.25446
 Alpha  occ. eigenvalues --   -0.25243  -0.24704  -0.24703  -0.21142
 Alpha virt. eigenvalues --   -0.01880  -0.01878  -0.00830   0.00173   0.00428
 Alpha virt. eigenvalues --    0.00429   0.06884   0.06888   0.09492   0.11038
 Alpha virt. eigenvalues --    0.11039   0.13904   0.14528   0.14529   0.15165

 Mulliken charges:
               1
     1  P    0.450576
     2  C   -0.124218
     3  C   -0.165167
     4  C   -0.124989
     5  C   -0.165617
     6  C   -0.116693
     7  C   -0.176040
     8  C   -0.116606
     9  C   -0.157568
    10  C   -0.123298
    11  C   -0.147633
    12  C   -0.117195
    13  C   -0.173867
    14  C   -0.080253
    15  C   -0.153267
    16  C   -0.120860
    17  C   -0.122908
    18  C   -0.118080
    19  C   -0.151970
    20  H    0.117931
    21  H    0.115521
    22  H    0.109756
    23  H    0.118185
    24  H    0.122041
    25  H    0.159331
    26  H    0.130914
    27  H    0.124806
    28  H    0.125774
    29  H    0.125923
    30  H    0.150264
    31  H    0.143247
    32  H    0.145989
    33  H    0.146574
    34  H    0.169396
 Sum of Mulliken charges =  -0.00000

 Dipole moment (field-independent basis, Debye):
    X=             -1.3905    Y=              3.4860    Z=             -0.1960  Tot=              3.7582
 Quadrupole moment (field-independent basis, Debye-Ang):
   XX=           -119.4877   YY=           -107.5709   ZZ=           -110.6710
   XY=              3.6983   XZ=             -1.1368   YZ=              0.7194

 Summary of Natural Population Analysis:

                                       Natural Population
                Natural  -----------------------------------------------
    Atom  No    Charge         Core      Valence    Rydberg      Total
 -----------------------------------------------------------------------
      P    1    1.24228      9.99750     3.70997    0.05025    13.75772
      C    2   -0.47172      1.99886     4.44806    0.02480     6.47172
      C    3   -0.22367      1.99901     4.20851    0.01614     6.22367
      C    4   -0.24845      1.99910     4.23423    0.01513     6.24845
      C    5   -0.29116      1.99910     4.27555    0.01652     6.29116
      C    6   -0.22625      1.99909     4.21269    0.01448     6.22625
      C    7   -0.26620      1.99899     4.24920    0.01801     6.26620
      C    8   -0.44840      1.99889     4.42319    0.02632     6.44840
      C    9   -0.22251      1.99899     4.20640    0.01712     6.22251
      C   10   -0.23714      1.99909     4.22351    0.01454     6.23714
      C   11   -0.25289      1.99909     4.23829    0.01550     6.25289
      C   12   -0.23357      1.99910     4.22002    0.01445     6.23357
      C   13   -0.23279      1.99902     4.21773    0.01604     6.23279
      C   14   -0.37670      1.99890     4.35342    0.02438     6.37670
      C   15   -0.19785      1.99902     4.18379    0.01505     6.19785
      C   16   -0.23856      1.99910     4.22508    0.01438     6.23856
      C   17   -0.20052      1.99909     4.18761    0.01382     6.20052
      C   18   -0.22670      1.99909     4.21361    0.01400     6.22670
      C   19   -0.21403      1.99899     4.19877    0.01626     6.21403
      H   20    0.22659      0.00000     0.77233    0.00108     0.77341
      H   21    0.23072      0.00000     0.76839    0.00089     0.76928
      H   22    0.22640      0.00000     0.77271    0.00089     0.77360
      H   23    0.23232      0.00000     0.76680    0.00088     0.76768
      H   24    0.23142      0.00000     0.76716    0.00142     0.76858
      H   25    0.25184      0.00000     0.74665    0.00151     0.74816
      H   26    0.23835      0.00000     0.76076    0.00089     0.76165
      H   27    0.23282      0.00000     0.76627    0.00090     0.76718
      H   28    0.23483      0.00000     0.76421    0.00096     0.76517
      H   29    0.22938      0.00000     0.76961    0.00101     0.77062
      H   30    0.24320      0.00000     0.75557    0.00123     0.75680
      H   31    0.24351      0.00000     0.75561    0.00087     0.75649
      H   32    0.24204      0.00000     0.75714    0.00082     0.75796
      H   33    0.24549      0.00000     0.75365    0.00086     0.75451
      H   34    0.25791      0.00000     0.74089    0.00120     0.74209
 =======================================================================
   * Total *   -0.00000     45.98001    91.64740    0.37259   138.00000

 Normal termination of Gaussian 16 at Sun Dec  8 19:24:42 2019.
