 Gaussian 16, Revision A.03,

 -----------------------------------------
 # opt=CalcFc B3LYP/6-31G* scf=xqc scf=xqc
 -----------------------------------------

 -------------------
 Title Card Required
 -------------------
 Symbolic Z-matrix:
 Charge =  0 Multiplicity = 1

 SCF Done:  E(RB3LYP) =  -1036.27661193     A.U. after   14 cycles
 SCF Done:  E(RB3LYP) =  -1036.28131337     A.U. after   14 cycles
 SCF Done:  E(RB3LYP) =  -1036.29305314     A.U. after   15 cycles
 SCF Done:  E(RB3LYP) =  -1036.27619592     A.U. after   14 cycles
 SCF Done:  E(RB3LYP) =  -1036.29422166     A.U. after   14 cycles
 SCF Done:  E(RB3LYP) =  -1036.27827577     A.U. after   15 cycles
 SCF Done:  E(RB3LYP) =  -1036.29738029     A.U. after   12 cycles
 SCF Done:  E(RB3LYP) =  -1036.29783448     A.U. after   12 cycles
 SCF Done:  E(RB3LYP) =  -1036.29793454     A.U. after   12 cycles
 SCF Done:  E(RB3LYP) =  -1036.29804651     A.U. after   11 cycles
 SCF Done:  E(RB3LYP) =  -1036.29823625     A.U. after   11 cycles
 SCF Done:  E(RB3LYP) =  -1036.29823349     A.U. after    9 cycles
 SCF Done:  E(RB3LYP) =  -1036.29823788     A.U. after    8 cycles
 SCF Done:  E(RB3LYP) =  -1036.29822972     A.U. after    8 cycles
 SCF Done:  E(RB3LYP) =  -1036.29822909     A.U. after   11 cycles
 SCF Done:  E(RB3LYP) =  -1036.29822938     A.U. after   11 cycles
 SCF Done:  E(RB3LYP) =  -1036.29823476     A.U. after    9 cycles
 SCF Done:  E(RB3LYP) =  -1036.29822998     A.U. after    8 cycles
 Optimization completed.
    -- Stationary point found.
 Normal termination of Gaussian 16 at Sun Dec  8 18:24:46 2019.

 ----------------------------------------------------------------------
 # freq B3LYP/6-31G* scf=xqc volume NMR pop=NPA density=current Geom=Al
 lCheck Guess=Read
 ----------------------------------------------------------------------

 Structure from the checkpoint file:  "direct_arylation_ligand38_conf182.chk"
 -------------------
 Title Card Required
 -------------------
 Charge =  0 Multiplicity = 1

 SCF Done:  E(RB3LYP) =  -1036.29822998     A.U. after    1 cycles

      1  P    Isotropic =   361.4724   Anisotropy =    39.6285

      2  C    Isotropic =    56.1234   Anisotropy =   179.4320

      3  C    Isotropic =    60.9896   Anisotropy =   164.1066

      4  C    Isotropic =    68.7240   Anisotropy =   164.1326

      5  C    Isotropic =    68.1594   Anisotropy =   167.3522

      6  C    Isotropic =    68.6746   Anisotropy =   163.8953

      7  C    Isotropic =    62.5655   Anisotropy =   174.0626

      8  C    Isotropic =    56.1350   Anisotropy =   179.4673

      9  C    Isotropic =    62.6079   Anisotropy =   174.1068

     10  C    Isotropic =    68.6806   Anisotropy =   163.8991

     11  C    Isotropic =    68.1691   Anisotropy =   167.2850

     12  C    Isotropic =    68.7328   Anisotropy =   164.0897

     13  C    Isotropic =    61.0341   Anisotropy =   164.1644

     14  C    Isotropic =    56.1050   Anisotropy =   179.4355

     15  C    Isotropic =    61.0134   Anisotropy =   164.1314

     16  C    Isotropic =    68.7231   Anisotropy =   164.1265

     17  C    Isotropic =    68.1612   Anisotropy =   167.3267

     18  C    Isotropic =    68.6855   Anisotropy =   163.8816

     19  C    Isotropic =    62.5950   Anisotropy =   174.0469

     20  H    Isotropic =    24.6111   Anisotropy =     9.2501

     21  H    Isotropic =    24.9262   Anisotropy =     4.5880

     22  H    Isotropic =    25.0191   Anisotropy =     3.6412

     23  H    Isotropic =    25.0465   Anisotropy =     6.0864

     24  H    Isotropic =    25.3960   Anisotropy =    12.2239

     25  H    Isotropic =    25.3977   Anisotropy =    12.2421

     26  H    Isotropic =    25.0483   Anisotropy =     6.0872

     27  H    Isotropic =    25.0243   Anisotropy =     3.6330

     28  H    Isotropic =    24.9314   Anisotropy =     4.5813

     29  H    Isotropic =    24.6132   Anisotropy =     9.2558

     30  H    Isotropic =    24.6125   Anisotropy =     9.2566

     31  H    Isotropic =    24.9262   Anisotropy =     4.5899

     32  H    Isotropic =    25.0212   Anisotropy =     3.6404

     33  H    Isotropic =    25.0488   Anisotropy =     6.0863

     34  H    Isotropic =    25.4016   Anisotropy =    12.2300

  Exact polarizability: 224.206   0.001 224.051   0.033   0.049 165.057
 Approx polarizability: 331.038   0.007 330.727   0.079   0.116 308.062

                      1                      2                      3
                      A                      A                      A
 Frequencies --     21.3272                22.0447                37.5594
 Red. masses --      3.7924                 3.7972                 3.6886
 Frc consts  --      0.0010                 0.0011                 0.0031
 IR Inten    --      0.2805                 0.2824                 0.0018

                      4                      5                      6
                      A                      A                      A
 Frequencies --     53.1511                53.2689                70.5811
 Red. masses --      5.2581                 5.2514                 5.1672
 Frc consts  --      0.0088                 0.0088                 0.0152
 IR Inten    --      0.0837                 0.0851                 0.3103

                      7                      8                      9
                      A                      A                      A
 Frequencies --    181.4901               202.2920               202.6276
 Red. masses --      4.5603                 4.6432                 4.6408
 Frc consts  --      0.0885                 0.1120                 0.1123
 IR Inten    --      0.3524                 1.1371                 1.1380

                     10                     11                     12
                      A                      A                      A
 Frequencies --    245.5726               259.8136               259.9775
 Red. masses --      5.7402                 4.7191                 4.7232
 Frc consts  --      0.2040                 0.1877                 0.1881
 IR Inten    --      0.4831                 0.2237                 0.2229

                     13                     14                     15
                      A                      A                      A
 Frequencies --    408.7169               408.7733               412.3346
 Red. masses --      3.0770                 3.0789                 3.5867
 Frc consts  --      0.3028                 0.3031                 0.3593
 IR Inten    --      1.9566                 1.9606                 0.1575

                     16                     17                     18
                      A                      A                      A
 Frequencies --    417.0455               429.4191               429.5069
 Red. masses --      4.6258                 7.3082                 7.3083
 Frc consts  --      0.4740                 0.7940                 0.7943
 IR Inten    --      0.5642                 7.6795                 7.6907

                     19                     20                     21
                      A                      A                      A
 Frequencies --    509.4183               509.5205               516.2974
 Red. masses --      4.2489                 4.2464                 4.5897
 Frc consts  --      0.6496                 0.6495                 0.7208
 IR Inten    --     26.1239                26.1444                11.9770

                     22                     23                     24
                      A                      A                      A
 Frequencies --    632.7180               632.7406               633.3596
 Red. masses --      6.4270                 6.4272                 6.4367
 Frc consts  --      1.5159                 1.5161                 1.5213
 IR Inten    --      0.1810                 0.1812                 0.0160

                     25                     26                     27
                      A                      A                      A
 Frequencies --    691.8778               705.1457               705.1722
 Red. masses --      6.5806                 5.7044                 5.6980
 Frc consts  --      1.8560                 1.6712                 1.6694
 IR Inten    --      0.7721                 1.1968                 1.2129

                     28                     29                     30
                      A                      A                      A
 Frequencies --    712.1863               712.2657               713.2255
 Red. masses --      2.2018                 2.2042                 2.1336
 Frc consts  --      0.6580                 0.6588                 0.6395
 IR Inten    --     26.3336                26.3516                16.5793

                     31                     32                     33
                      A                      A                      A
 Frequencies --    761.3773               762.8675               762.8940
 Red. masses --      1.6151                 1.6478                 1.6499
 Frc consts  --      0.5516                 0.5650                 0.5658
 IR Inten    --     19.2076                24.9094                24.8894

                     34                     35                     36
                      A                      A                      A
 Frequencies --    866.0910               866.1947               868.7090
 Red. masses --      1.2478                 1.2478                 1.2463
 Frc consts  --      0.5515                 0.5516                 0.5541
 IR Inten    --      0.2281                 0.2266                 0.1339

                     37                     38                     39
                      A                      A                      A
 Frequencies --    932.8119               932.9141               934.1830
 Red. masses --      1.3445                 1.3442                 1.3386
 Frc consts  --      0.6893                 0.6893                 0.6883
 IR Inten    --      1.2612                 1.2646                 0.0273

                     40                     41                     42
                      A                      A                      A
 Frequencies --    975.7045               975.8378               977.5871
 Red. masses --      1.3615                 1.3613                 1.3557
 Frc consts  --      0.7637                 0.7637                 0.7633
 IR Inten    --      0.0164                 0.0171                 0.1415

                     43                     44                     45
                      A                      A                      A
 Frequencies --   1000.3332              1000.3741              1001.0896
 Red. masses --      1.2545                 1.2543                 1.2527
 Frc consts  --      0.7396                 0.7396                 0.7397
 IR Inten    --      0.0767                 0.0790                 0.0001

                     46                     47                     48
                      A                      A                      A
 Frequencies --   1015.3698              1015.3779              1015.7531
 Red. masses --      6.3140                 6.3107                 6.3090
 Frc consts  --      3.8353                 3.8334                 3.8352
 IR Inten    --      4.3501                 4.3662                 0.0478

                     49                     50                     51
                      A                      A                      A
 Frequencies --   1052.6778              1052.7295              1052.9087
 Red. masses --      3.3080                 3.3139                 3.2526
 Frc consts  --      2.1598                 2.1638                 2.1245
 IR Inten    --      2.1133                 2.0913                 0.0429

                     52                     53                     54
                      A                      A                      A
 Frequencies --   1107.8042              1108.0337              1109.5107
 Red. masses --      1.8858                 1.8672                 1.6545
 Frc consts  --      1.3636                 1.3507                 1.2000
 IR Inten    --      4.2865                 3.9492                 2.8555

                     55                     56                     57
                      A                      A                      A
 Frequencies --   1110.7325              1110.7987              1116.2018
 Red. masses --      2.1922                 2.2078                 2.6139
 Frc consts  --      1.5935                 1.6050                 1.9188
 IR Inten    --      9.4217                 9.6300                 1.2584

                     58                     59                     60
                      A                      A                      A
 Frequencies --   1193.4661              1193.8529              1193.9243
 Red. masses --      1.1033                 1.0999                 1.1001
 Frc consts  --      0.9259                 0.9237                 0.9239
 IR Inten    --      0.0019                 0.1327                 0.1293

                     61                     62                     63
                      A                      A                      A
 Frequencies --   1219.0994              1219.3847              1220.8712
 Red. masses --      1.1474                 1.1477                 1.1473
 Frc consts  --      1.0048                 1.0055                 1.0075
 IR Inten    --      6.0304                 6.0898                 0.3452

                     64                     65                     66
                      A                      A                      A
 Frequencies --   1325.0036              1328.6527              1328.7623
 Red. masses --      3.4942                 3.4684                 3.5015
 Frc consts  --      3.6143                 3.6075                 3.6425
 IR Inten    --      2.6326                 2.4399                 2.4373

                     67                     68                     69
                      A                      A                      A
 Frequencies --   1364.9823              1365.2452              1365.5788
 Red. masses --      1.6623                 1.6525                 1.6430
 Frc consts  --      1.8248                 1.8148                 1.8052
 IR Inten    --      0.2323                 0.1433                 3.0147

                     70                     71                     72
                      A                      A                      A
 Frequencies --   1480.4867              1480.9542              1480.9701
 Red. masses --      2.1109                 2.1159                 2.1155
 Frc consts  --      2.7260                 2.7342                 2.7337
 IR Inten    --     16.6528                 6.6095                 6.5889

                     73                     74                     75
                      A                      A                      A
 Frequencies --   1531.0321              1531.4672              1531.5795
 Red. masses --      2.0152                 1.9993                 1.9981
 Frc consts  --      2.7832                 2.7627                 2.7616
 IR Inten    --      2.0029                10.1565                10.1409

                     76                     77                     78
                      A                      A                      A
 Frequencies --   1630.1521              1630.4202              1630.4428
 Red. masses --      5.1008                 5.1150                 5.1127
 Frc consts  --      7.9864                 8.0112                 8.0077
 IR Inten    --      0.3989                 0.0446                 0.0449

                     79                     80                     81
                      A                      A                      A
 Frequencies --   1646.1248              1646.1452              1647.9290
 Red. masses --      5.2726                 5.2711                 5.2833
 Frc consts  --      8.4179                 8.4156                 8.4534
 IR Inten    --      3.5232                 3.4990                 0.3199

                     82                     83                     84
                      A                      A                      A
 Frequencies --   3176.0830              3176.1239              3176.1448
 Red. masses --      1.0854                 1.0853                 1.0853
 Frc consts  --      6.4507                 6.4508                 6.4508
 IR Inten    --      2.1717                 1.9937                 1.8377

                     85                     86                     87
                      A                      A                      A
 Frequencies --   3182.6355              3182.6847              3182.7476
 Red. masses --      1.0875                 1.0875                 1.0876
 Frc consts  --      6.4901                 6.4903                 6.4911
 IR Inten    --      0.7313                 0.7936                 0.1736

                     88                     89                     90
                      A                      A                      A
 Frequencies --   3192.8398              3192.8712              3192.9871
 Red. masses --      1.0916                 1.0916                 1.0917
 Frc consts  --      6.5567                 6.5568                 6.5579
 IR Inten    --     10.9706                10.1115                47.1753

                     91                     92                     93
                      A                      A                      A
 Frequencies --   3203.9281              3203.9650              3204.3335
 Red. masses --      1.0941                 1.0942                 1.0943
 Frc consts  --      6.6172                 6.6178                 6.6198
 IR Inten    --     41.5236                42.0324                 4.4280

                     94                     95                     96
                      A                      A                      A
 Frequencies --   3210.1031              3210.1946              3211.0407
 Red. masses --      1.0956                 1.0956                 1.0956
 Frc consts  --      6.6521                 6.6519                 6.6555
 IR Inten    --     19.9370                19.3504                16.3014

 - Thermochemistry -
 -------------------
 Temperature   298.150 Kelvin.  Pressure   1.00000 Atm.
 Atom     1 has atomic number 15 and mass  30.97376

 Molecular mass:   262.09114 amu.
 Principal axes and moments of inertia in atomic units:
                           1         2         3
     Eigenvalues --  5161.986985163.993648680.56795
           X            0.99998   0.00571   0.00001
           Y           -0.00571   0.99998   0.00001
           Z           -0.00001  -0.00001   1.00000
 This molecule is an asymmetric top.
 Rotational symmetry number  1.
 Warning -- assumption of classical behavior for rotation
           may cause significant error
 Rotational temperatures (Kelvin)      0.01678     0.01677     0.00998
 Rotational constants (GHZ):           0.34962     0.34949     0.20791
 Zero-point vibrational energy     719921.7 (Joules/Mol)
                                  172.06541 (Kcal/Mol)
 Warning -- explicit consideration of  21 degrees of freedom as
           vibrations may cause significant error
 Vibrational temperatures:     30.69    31.72    54.04    76.47    76.64
          (Kelvin)            101.55   261.12   291.05   291.54   353.32
                              373.81   374.05   588.05   588.13   593.26
                              600.04   617.84   617.96   732.94   733.09
                              742.84   910.34   910.37   911.26   995.46
                             1014.55  1014.59  1024.68  1024.79  1026.17
                             1095.45  1097.60  1097.63  1246.11  1246.26
                             1249.88  1342.11  1342.26  1344.08  1403.82
                             1404.01  1406.53  1439.26  1439.32  1440.34
                             1460.89  1460.90  1461.44  1514.57  1514.64
                             1514.90  1593.88  1594.21  1596.34  1598.10
                             1598.19  1605.97  1717.13  1717.69  1717.79
                             1754.01  1754.42  1756.56  1906.38  1911.63
                             1911.79  1963.91  1964.28  1964.76  2130.09
                             2130.76  2130.79  2202.81  2203.44  2203.60
                             2345.43  2345.81  2345.84  2368.41  2368.44
                             2371.00  4569.68  4569.73  4569.76  4579.10
                             4579.17  4579.26  4593.78  4593.83  4594.00
                             4609.74  4609.79  4610.32  4618.62  4618.75
                             4619.97

 Zero-point correction=                           0.274204 (Hartree/Particle)
 Thermal correction to Energy=                    0.290135
 Thermal correction to Enthalpy=                  0.291080
 Thermal correction to Gibbs Free Energy=         0.227587
 Sum of electronic and zero-point Energies=          -1036.024026
 Sum of electronic and thermal Energies=             -1036.008095
 Sum of electronic and thermal Enthalpies=           -1036.007150
 Sum of electronic and thermal Free Energies=        -1036.070643

                     E (Thermal)             CV                S
                      KCal/Mol        Cal/Mol-Kelvin    Cal/Mol-Kelvin
 Total                  182.063             62.541            133.630
 Electronic               0.000              0.000              0.000
 Translational            0.889              2.981             42.590
 Rotational               0.889              2.981             33.803
 Vibrational            180.285             56.579             57.238
 Vibration     1          0.593              1.985              6.507
 Vibration     2          0.593              1.985              6.441
 Vibration     3          0.594              1.982              5.384
 Vibration     4          0.596              1.976              4.697
 Vibration     5          0.596              1.976              4.692
 Vibration     6          0.598              1.968              4.137
 Vibration     7          0.630              1.865              2.313
 Vibration     8          0.639              1.837              2.112
 Vibration     9          0.639              1.836              2.109
 Vibration    10          0.660              1.770              1.762
 Vibration    11          0.668              1.746              1.663
 Vibration    12          0.668              1.746              1.662
 Vibration    13          0.773              1.451              0.931
 Vibration    14          0.773              1.451              0.931
 Vibration    15          0.776              1.443              0.918
 Vibration    16          0.780              1.433              0.902
 Vibration    17          0.791              1.406              0.861
 Vibration    18          0.791              1.406              0.860
 Vibration    19          0.865              1.229              0.635
 Vibration    20          0.865              1.229              0.635
 Vibration    21          0.871              1.214              0.619

                           ! Non-Optimized Parameters !
 Normal termination of Gaussian 16 at Sun Dec  8 18:41:59 2019.
 Gaussian 16:  ES64L-G16RevA.03 25-Dec-2016

 ----------------------------------------------------------------------
 # TD(NStates=10, Root=1) B3LYP/6-31G* scf=xqc volume pop=NPA density=c
 urrent Geom=AllCheck Guess=Read
 ----------------------------------------------------------------------

 Structure from the checkpoint file:  "direct_arylation_ligand38_conf183.chk"
 -------------------
 Title Card Required
 -------------------
 Charge =  0 Multiplicity = 1

                         Standard orientation:
 ---------------------------------------------------------------------
 Center     Atomic      Atomic             Coordinates (Angstroms)
 Number     Number       Type             X           Y           Z
 ---------------------------------------------------------------------
      1         15           0       -0.000241   -0.000235   -1.206555
      2          6           0       -1.654528   -0.233695   -0.402458
      3          6           0       -2.757156    0.366467   -1.033867
      4          6           0       -4.042076    0.236395   -0.507368
      5          6           0       -4.249500   -0.513699    0.652165
      6          6           0       -3.165136   -1.127117    1.281433
      7          6           0       -1.876938   -0.987063    0.760339
      8          6           0        0.624803    1.549323   -0.402891
      9          6           0        0.080873    2.121185    0.757365
     10          6           0        0.603600    3.307024    1.278127
     11          6           0        1.679724    3.937004    0.651140
     12          6           0        2.228421    3.379680   -0.505821
     13          6           0        1.698663    2.201750   -1.032074
     14          6           0        1.029427   -1.315941   -0.402513
     15          6           0        1.058450   -2.572018   -1.031905
     16          6           0        1.813956   -3.619475   -0.505457
     17          6           0        2.570203   -3.422774    0.651965
     18          6           0        2.561714   -2.175960    1.279217
     19          6           0        1.795913   -1.130627    0.758204
     20          1           0       -2.606328    0.935948   -1.948229
     21          1           0       -4.882011    0.711151   -1.008006
     22          1           0       -5.251303   -0.624830    1.058777
     23          1           0       -3.320098   -1.716509    2.181744
     24          1           0       -1.041814   -1.469902    1.258871
     25          1           0       -0.756841    1.641230    1.254320
     26          1           0        0.168464    3.737886    2.176443
     27          1           0        2.084377    4.860272    1.057492
     28          1           0        3.061756    3.867755   -1.004682
     29          1           0        2.118794    1.784393   -1.944451
     30          1           0        0.487527   -2.727252   -1.944630
     31          1           0        1.820779   -4.585104   -1.004497
     32          1           0        3.167641   -4.234621    1.058492
     33          1           0        3.151840   -2.014447    2.177894
     34          1           0        1.798355   -0.165191    1.255186
 ---------------------------------------------------------------------

 SCF Done:  E(RB3LYP) =  -1036.29822998     A.U. after    1 cycles

 Excitation energies and oscillator strengths:

 Excited State   1:      Singlet-A      4.5098 eV  274.92 nm  f=0.1276  <S**2>=0.000
      69 -> 70         0.69712
 This state for optimization and/or second-order correction.
 Total Energy, E(TD-HF/TD-DFT) =  -1036.13249882
 Copying the excited state density for this state as the 1-particle RhoCI density.

 Excited State   2:      Singlet-A      4.5113 eV  274.83 nm  f=0.1282  <S**2>=0.000
      69 -> 71         0.69710

 Excited State   3:      Singlet-A      4.7570 eV  260.63 nm  f=0.0022  <S**2>=0.000
      67 -> 70         0.12376
      68 -> 71        -0.12412
      69 -> 72         0.67466

 Excited State   4:      Singlet-A      5.0577 eV  245.14 nm  f=0.0002  <S**2>=0.000
      66 -> 70         0.16596
      67 -> 70         0.12961
      68 -> 71         0.12971
      69 -> 74         0.62987

 Excited State   5:      Singlet-A      5.0584 eV  245.11 nm  f=0.0002  <S**2>=0.000
      66 -> 71         0.16629
      67 -> 71        -0.13037
      68 -> 70         0.13030
      69 -> 75         0.62945

 Excited State   6:      Singlet-A      5.1509 eV  240.70 nm  f=0.0085  <S**2>=0.000
      69 -> 73         0.67913

 Excited State   7:      Singlet-A      5.4275 eV  228.44 nm  f=0.0147  <S**2>=0.000
      63 -> 72        -0.16610
      64 -> 74        -0.14556
      65 -> 75         0.14411
      67 -> 70         0.41324
      68 -> 71        -0.40870
      69 -> 72        -0.16515

 Excited State   8:      Singlet-A      5.5141 eV  224.85 nm  f=0.0005  <S**2>=0.000
      63 -> 74         0.14361
      64 -> 71        -0.11498
      64 -> 72         0.22748
      65 -> 70         0.11684
      65 -> 72         0.16798
      66 -> 70        -0.22622
      67 -> 70        -0.26542
      68 -> 71        -0.27244
      68 -> 72        -0.15630
      69 -> 74         0.28657

 Excited State   9:      Singlet-A      5.5148 eV  224.82 nm  f=0.0004  <S**2>=0.000
      63 -> 75         0.14388
      64 -> 70        -0.11467
      64 -> 72         0.16817
      65 -> 71        -0.11432
      65 -> 72        -0.22748
      66 -> 71        -0.22510
      67 -> 71         0.26793
      67 -> 72        -0.15709
      68 -> 70        -0.27177
      69 -> 75         0.28732

 Excited State  10:      Singlet-A      5.6182 eV  220.68 nm  f=0.0009  <S**2>=0.000
      67 -> 71         0.47428
      68 -> 70         0.48036

 The electronic state is 1-A.
 Alpha  occ. eigenvalues --  -77.08113 -10.19448 -10.19446 -10.19446 -10.19148
 Alpha  occ. eigenvalues --  -10.19145 -10.19145 -10.19118 -10.19116 -10.19116
 Alpha  occ. eigenvalues --  -10.19032 -10.19030 -10.19029 -10.19008 -10.19006
 Alpha  occ. eigenvalues --  -10.19006 -10.18964 -10.18961 -10.18960  -6.54844
 Alpha  occ. eigenvalues --   -4.71103  -4.71103  -4.70601  -0.85560  -0.84846
 Alpha  occ. eigenvalues --   -0.84845  -0.76669  -0.74366  -0.74365  -0.74329
 Alpha  occ. eigenvalues --   -0.73821  -0.73820  -0.64436  -0.60336  -0.60307
 Alpha  occ. eigenvalues --   -0.60306  -0.59207  -0.59207  -0.55448  -0.51436
 Alpha  occ. eigenvalues --   -0.51435  -0.49295  -0.45440  -0.45439  -0.44774
 Alpha  occ. eigenvalues --   -0.44345  -0.44344  -0.44067  -0.41946  -0.41869
 Alpha  occ. eigenvalues --   -0.41867  -0.40378  -0.40377  -0.36844  -0.36352
 Alpha  occ. eigenvalues --   -0.36350  -0.35899  -0.34252  -0.34251  -0.34224
 Alpha  occ. eigenvalues --   -0.31884  -0.31883  -0.26777  -0.25449  -0.25445
 Alpha  occ. eigenvalues --   -0.25243  -0.24704  -0.24703  -0.21144
 Alpha virt. eigenvalues --   -0.01881  -0.01877  -0.00830   0.00173   0.00427
 Alpha virt. eigenvalues --    0.00431   0.06880   0.06887   0.09492   0.11038
 Alpha virt. eigenvalues --    0.11039   0.13904   0.14528   0.14529   0.15165

 Mulliken charges:
               1
     1  P    0.450673
     2  C   -0.133287
     3  C   -0.171774
     4  C   -0.123083
     5  C   -0.170236
     6  C   -0.118882
     7  C   -0.175379
     8  C   -0.100354
     9  C   -0.150401
    10  C   -0.123022
    11  C   -0.133024
    12  C   -0.116565
    13  C   -0.168082
    14  C   -0.087568
    15  C   -0.152375
    16  C   -0.123422
    17  C   -0.132920
    18  C   -0.116137
    19  C   -0.159851
    20  H    0.112238
    21  H    0.111974
    22  H    0.105768
    23  H    0.115431
    24  H    0.123722
    25  H    0.173504
    26  H    0.140537
    27  H    0.137221
    28  H    0.135417
    29  H    0.137652
    30  H    0.144211
    31  H    0.137151
    32  H    0.137564
    33  H    0.139712
    34  H    0.153592
 Sum of Mulliken charges =  -0.00000

 Dipole moment (field-independent basis, Debye):
    X=              3.7338    Y=              0.4835    Z=             -0.1963  Tot=              3.7701
 Quadrupole moment (field-independent basis, Debye-Ang):
   XX=           -120.3409   YY=           -106.7245   ZZ=           -110.6653
   XY=             -1.7394   XZ=              0.9863   YZ=              0.9303

 Summary of Natural Population Analysis:

                                       Natural Population
                Natural  -----------------------------------------------
    Atom  No    Charge         Core      Valence    Rydberg      Total
 -----------------------------------------------------------------------
      P    1    1.24216      9.99750     3.71010    0.05025    13.75784
      C    2   -0.48843      1.99886     4.46412    0.02544     6.48843
      C    3   -0.23431      1.99901     4.21893    0.01636     6.23431
      C    4   -0.24535      1.99910     4.23119    0.01506     6.24535
      C    5   -0.30085      1.99910     4.28496    0.01679     6.30085
      C    6   -0.23038      1.99909     4.21667    0.01462     6.23038
      C    7   -0.26346      1.99899     4.24637    0.01811     6.26346
      C    8   -0.41388      1.99890     4.38898    0.02600     6.41388
      C    9   -0.20737      1.99900     4.19187    0.01651     6.20737
      C   10   -0.23597      1.99909     4.22253    0.01435     6.23597
      C   11   -0.22187      1.99909     4.20822    0.01456     6.22187
      C   12   -0.23159      1.99910     4.21826    0.01423     6.23159
      C   13   -0.22152      1.99902     4.20685    0.01565     6.22152
      C   14   -0.39430      1.99889     4.37135    0.02407     6.39430
      C   15   -0.19847      1.99901     4.18424    0.01521     6.19847
      C   16   -0.24368      1.99910     4.22992    0.01467     6.24368
      C   17   -0.22185      1.99909     4.20827    0.01449     6.22185
      C   18   -0.22372      1.99909     4.21058    0.01404     6.22372
      C   19   -0.23203      1.99899     4.21627    0.01677     6.23203
      H   20    0.22315      0.00000     0.77586    0.00099     0.77685
      H   21    0.22884      0.00000     0.77025    0.00091     0.77116
      H   22    0.22464      0.00000     0.77447    0.00089     0.77536
      H   23    0.23109      0.00000     0.76803    0.00088     0.76891
      H   24    0.23220      0.00000     0.76630    0.00151     0.76780
      H   25    0.25983      0.00000     0.73880    0.00138     0.74017
      H   26    0.24280      0.00000     0.75632    0.00088     0.75720
      H   27    0.23819      0.00000     0.76094    0.00087     0.76181
      H   28    0.23936      0.00000     0.75970    0.00094     0.76064
      H   29    0.23557      0.00000     0.76335    0.00109     0.76443
      H   30    0.24044      0.00000     0.75831    0.00125     0.75956
      H   31    0.24087      0.00000     0.75826    0.00087     0.75913
      H   32    0.23844      0.00000     0.76071    0.00085     0.76156
      H   33    0.24227      0.00000     0.75686    0.00087     0.75773
      H   34    0.24917      0.00000     0.74958    0.00125     0.75083
 =======================================================================
   * Total *    0.00000     45.98001    91.64740    0.37260   138.00000

 Normal termination of Gaussian 16 at Sun Dec  8 18:58:47 2019.
