 Gaussian 16, Revision A.03,

 -----------------------------------------
 # opt=CalcFc B3LYP/6-31G* scf=xqc scf=xqc
 -----------------------------------------

 -------------------
 Title Card Required
 -------------------
 Symbolic Z-matrix:
 Charge =  0 Multiplicity = 1

 SCF Done:  E(RB3LYP) =  -1036.22366432     A.U. after   15 cycles
 SCF Done:  E(RB3LYP) =  -1036.26518821     A.U. after   15 cycles
 SCF Done:  E(RB3LYP) =  -1036.26468647     A.U. after   15 cycles
 SCF Done:  E(RB3LYP) =  -1036.26417004     A.U. after   13 cycles
 SCF Done:  E(RB3LYP) =  -1036.25296885     A.U. after   13 cycles
 SCF Done:  E(RB3LYP) =  -1036.26331911     A.U. after   12 cycles
 SCF Done:  E(RB3LYP) =  -1036.26650138     A.U. after   10 cycles
 SCF Done:  E(RB3LYP) =  -1036.28379595     A.U. after   13 cycles
 SCF Done:  E(RB3LYP) =  -1036.27658820     A.U. after   14 cycles
 SCF Done:  E(RB3LYP) =  -1036.25593792     A.U. after   13 cycles
 SCF Done:  E(RB3LYP) =  -1036.29823050     A.U. after   10 cycles
 SCF Done:  E(RB3LYP) =  -1036.29823362     A.U. after   11 cycles
 SCF Done:  E(RB3LYP) =  -1036.29822788     A.U. after   10 cycles
 SCF Done:  E(RB3LYP) =  -1036.29823208     A.U. after    9 cycles
 SCF Done:  E(RB3LYP) =  -1036.29823147     A.U. after   10 cycles
 SCF Done:  E(RB3LYP) =  -1036.29823066     A.U. after    9 cycles
 SCF Done:  E(RB3LYP) =  -1036.29822881     A.U. after    9 cycles
 SCF Done:  E(RB3LYP) =  -1036.29823711     A.U. after   10 cycles
 Optimization completed.
    -- Stationary point found.
 Normal termination of Gaussian 16 at Sun Dec  8 18:40:44 2019.

 ----------------------------------------------------------------------
 # freq B3LYP/6-31G* scf=xqc volume NMR pop=NPA density=current Geom=Al
 lCheck Guess=Read
 ----------------------------------------------------------------------

 Structure from the checkpoint file:  "direct_arylation_ligand38_conf252.chk"
 -------------------
 Title Card Required
 -------------------
 Charge =  0 Multiplicity = 1

 SCF Done:  E(RB3LYP) =  -1036.29823711     A.U. after    1 cycles

      1  P    Isotropic =   361.5084   Anisotropy =    39.7743

      2  C    Isotropic =    56.0976   Anisotropy =   179.4277

      3  C    Isotropic =    62.5541   Anisotropy =   174.0333

      4  C    Isotropic =    68.6880   Anisotropy =   163.8921

      5  C    Isotropic =    68.1616   Anisotropy =   167.3706

      6  C    Isotropic =    68.7210   Anisotropy =   164.1335

      7  C    Isotropic =    60.9841   Anisotropy =   164.0763

      8  C    Isotropic =    56.0880   Anisotropy =   179.4340

      9  C    Isotropic =    62.6203   Anisotropy =   174.0323

     10  C    Isotropic =    68.6846   Anisotropy =   163.8837

     11  C    Isotropic =    68.1824   Anisotropy =   167.3057

     12  C    Isotropic =    68.7293   Anisotropy =   164.1045

     13  C    Isotropic =    61.0422   Anisotropy =   164.1430

     14  C    Isotropic =    56.1577   Anisotropy =   179.4202

     15  C    Isotropic =    60.9975   Anisotropy =   164.0988

     16  C    Isotropic =    68.7233   Anisotropy =   164.1369

     17  C    Isotropic =    68.1647   Anisotropy =   167.3627

     18  C    Isotropic =    68.6765   Anisotropy =   163.8955

     19  C    Isotropic =    62.5590   Anisotropy =   174.0900

     20  H    Isotropic =    25.4010   Anisotropy =    12.2114

     21  H    Isotropic =    25.0479   Anisotropy =     6.0847

     22  H    Isotropic =    25.0181   Anisotropy =     3.6458

     23  H    Isotropic =    24.9255   Anisotropy =     4.5900

     24  H    Isotropic =    24.6119   Anisotropy =     9.2443

     25  H    Isotropic =    25.4071   Anisotropy =    12.2457

     26  H    Isotropic =    25.0489   Anisotropy =     6.0905

     27  H    Isotropic =    25.0221   Anisotropy =     3.6402

     28  H    Isotropic =    24.9301   Anisotropy =     4.5880

     29  H    Isotropic =    24.6174   Anisotropy =     9.2600

     30  H    Isotropic =    24.6118   Anisotropy =     9.2461

     31  H    Isotropic =    24.9254   Anisotropy =     4.5883

     32  H    Isotropic =    25.0181   Anisotropy =     3.6443

     33  H    Isotropic =    25.0464   Anisotropy =     6.0858

     34  H    Isotropic =    25.3949   Anisotropy =    12.2254

  Exact polarizability: 224.284   0.021 223.906   0.091   0.107 165.107
 Approx polarizability: 331.198   0.037 330.444   0.208   0.256 308.173

                      1                      2                      3
                      A                      A                      A
 Frequencies --     24.1098                25.6038                39.4455
 Red. masses --      3.8032                 3.8020                 3.6902
 Frc consts  --      0.0013                 0.0015                 0.0034
 IR Inten    --      0.2797                 0.2827                 0.0021

                      4                      5                      6
                      A                      A                      A
 Frequencies --     53.3215                53.5716                70.7677
 Red. masses --      5.2452                 5.2470                 5.1667
 Frc consts  --      0.0088                 0.0089                 0.0152
 IR Inten    --      0.0871                 0.0878                 0.3104

                      7                      8                      9
                      A                      A                      A
 Frequencies --    181.8024               202.5995               202.9062
 Red. masses --      4.5639                 4.6425                 4.6409
 Frc consts  --      0.0889                 0.1123                 0.1126
 IR Inten    --      0.3514                 1.1280                 1.1327

                     10                     11                     12
                      A                      A                      A
 Frequencies --    245.5789               259.8583               260.0175
 Red. masses --      5.7393                 4.7228                 4.7236
 Frc consts  --      0.2039                 0.1879                 0.1882
 IR Inten    --      0.4824                 0.2253                 0.2304

                     13                     14                     15
                      A                      A                      A
 Frequencies --    408.9180               409.0045               412.4632
 Red. masses --      3.0805                 3.0832                 3.6076
 Frc consts  --      0.3035                 0.3039                 0.3616
 IR Inten    --      1.9550                 1.9977                 0.1615

                     16                     17                     18
                      A                      A                      A
 Frequencies --    417.2836               429.3969               429.6216
 Red. masses --      4.5959                 7.3014                 7.3217
 Frc consts  --      0.4715                 0.7932                 0.7962
 IR Inten    --      0.5619                 7.6745                 7.7584

                     19                     20                     21
                      A                      A                      A
 Frequencies --    509.5370               509.6923               516.5686
 Red. masses --      4.2462                 4.2448                 4.5917
 Frc consts  --      0.6495                 0.6497                 0.7219
 IR Inten    --     26.0464                26.1067                11.9549

                     22                     23                     24
                      A                      A                      A
 Frequencies --    632.7088               632.7603               633.3707
 Red. masses --      6.4276                 6.4273                 6.4370
 Frc consts  --      1.5160                 1.5162                 1.5214
 IR Inten    --      0.1814                 0.1812                 0.0165

                     25                     26                     27
                      A                      A                      A
 Frequencies --    691.8738               705.1454               705.2074
 Red. masses --      6.5797                 5.7544                 5.7726
 Frc consts  --      1.8557                 1.6858                 1.6914
 IR Inten    --      0.8044                 1.0598                 1.1587

                     28                     29                     30
                      A                      A                      A
 Frequencies --    712.3633               712.4779               713.4696
 Red. masses --      2.1984                 2.1923                 2.1377
 Frc consts  --      0.6573                 0.6557                 0.6411
 IR Inten    --     26.5040                26.4137                16.5293

                     31                     32                     33
                      A                      A                      A
 Frequencies --    761.4615               762.8973               762.9860
 Red. masses --      1.6138                 1.6475                 1.6494
 Frc consts  --      0.5513                 0.5650                 0.5657
 IR Inten    --     19.1982                24.9454                24.9062

                     34                     35                     36
                      A                      A                      A
 Frequencies --    866.3104               866.4315               868.9431
 Red. masses --      1.2476                 1.2475                 1.2461
 Frc consts  --      0.5517                 0.5518                 0.5544
 IR Inten    --      0.2201                 0.2167                 0.1303

                     37                     38                     39
                      A                      A                      A
 Frequencies --    933.0409               933.1188               934.4756
 Red. masses --      1.3441                 1.3437                 1.3381
 Frc consts  --      0.6894                 0.6893                 0.6885
 IR Inten    --      1.2653                 1.2714                 0.0291

                     40                     41                     42
                      A                      A                      A
 Frequencies --    975.9312               976.0634               977.8628
 Red. masses --      1.3611                 1.3608                 1.3551
 Frc consts  --      0.7638                 0.7638                 0.7634
 IR Inten    --      0.0144                 0.0160                 0.1368

                     43                     44                     45
                      A                      A                      A
 Frequencies --   1000.4232              1000.4358              1001.2199
 Red. masses --      1.2541                 1.2539                 1.2522
 Frc consts  --      0.7395                 0.7394                 0.7396
 IR Inten    --      0.0812                 0.0798                 0.0003

                     46                     47                     48
                      A                      A                      A
 Frequencies --   1015.3744              1015.3783              1015.7610
 Red. masses --      6.3117                 6.3131                 6.3104
 Frc consts  --      3.8340                 3.8348                 3.8361
 IR Inten    --      4.3732                 4.3722                 0.0435

                     49                     50                     51
                      A                      A                      A
 Frequencies --   1052.7400              1052.7494              1052.9251
 Red. masses --      3.3178                 3.3167                 3.2538
 Frc consts  --      2.1664                 2.1658                 2.1254
 IR Inten    --      2.0573                 2.0766                 0.0545

                     52                     53                     54
                      A                      A                      A
 Frequencies --   1108.0254              1108.0744              1109.4715
 Red. masses --      1.8857                 1.8790                 1.6557
 Frc consts  --      1.3640                 1.3593                 1.2008
 IR Inten    --      4.2901                 4.1300                 2.9807

                     55                     56                     57
                      A                      A                      A
 Frequencies --   1110.8143              1110.8367              1115.9771
 Red. masses --      2.1864                 2.1971                 2.6136
 Frc consts  --      1.5895                 1.5973                 1.9178
 IR Inten    --      9.3107                 9.4970                 1.1586

                     58                     59                     60
                      A                      A                      A
 Frequencies --   1193.5308              1193.9431              1194.0149
 Red. masses --      1.1034                 1.1000                 1.1002
 Frc consts  --      0.9261                 0.9239                 0.9241
 IR Inten    --      0.0020                 0.1276                 0.1256

                     61                     62                     63
                      A                      A                      A
 Frequencies --   1219.4591              1219.5341              1220.8120
 Red. masses --      1.1477                 1.1478                 1.1473
 Frc consts  --      1.0056                 1.0058                 1.0074
 IR Inten    --      6.0780                 6.0731                 0.3240

                     64                     65                     66
                      A                      A                      A
 Frequencies --   1325.0533              1328.8020              1328.8400
 Red. masses --      3.4971                 3.5141                 3.5141
 Frc consts  --      3.6177                 3.6558                 3.6560
 IR Inten    --      2.6338                 2.4291                 2.4603

                     67                     68                     69
                      A                      A                      A
 Frequencies --   1365.3475              1365.4465              1365.6083
 Red. masses --      1.6510                 1.6483                 1.6431
 Frc consts  --      1.8134                 1.8107                 1.8054
 IR Inten    --      0.2614                 0.1669                 2.9807

                     70                     71                     72
                      A                      A                      A
 Frequencies --   1480.5418              1481.0042              1481.0351
 Red. masses --      2.1103                 2.1152                 2.1158
 Frc consts  --      2.7255                 2.7335                 2.7344
 IR Inten    --     16.6278                 6.6346                 6.6259

                     73                     74                     75
                      A                      A                      A
 Frequencies --   1531.0940              1531.6632              1531.7010
 Red. masses --      2.0151                 1.9977                 1.9970
 Frc consts  --      2.7832                 2.7612                 2.7604
 IR Inten    --      1.9995                10.1667                10.1551

                     76                     77                     78
                      A                      A                      A
 Frequencies --   1630.1787              1630.4568              1630.4753
 Red. masses --      5.1005                 5.1107                 5.1105
 Frc consts  --      7.9861                 8.0047                 8.0047
 IR Inten    --      0.3972                 0.0437                 0.0465

                     79                     80                     81
                      A                      A                      A
 Frequencies --   1646.1873              1646.2083              1647.9844
 Red. masses --      5.2687                 5.2693                 5.2817
 Frc consts  --      8.4123                 8.4134                 8.4514
 IR Inten    --      3.4836                 3.5428                 0.3208

                     82                     83                     84
                      A                      A                      A
 Frequencies --   3175.9806              3176.1382              3176.2180
 Red. masses --      1.0854                 1.0853                 1.0853
 Frc consts  --      6.4506                 6.4508                 6.4512
 IR Inten    --      2.0908                 1.9821                 1.9462

                     85                     86                     87
                      A                      A                      A
 Frequencies --   3182.6021              3182.7012              3182.8166
 Red. masses --      1.0875                 1.0875                 1.0876
 Frc consts  --      6.4899                 6.4905                 6.4913
 IR Inten    --      0.6574                 0.6231                 0.3858

                     88                     89                     90
                      A                      A                      A
 Frequencies --   3192.8283              3192.8912              3193.0424
 Red. masses --      1.0916                 1.0917                 1.0917
 Frc consts  --      6.5566                 6.5570                 6.5581
 IR Inten    --     10.8098                18.1363                39.4586

                     91                     92                     93
                      A                      A                      A
 Frequencies --   3203.8849              3204.0548              3204.4261
 Red. masses --      1.0941                 1.0942                 1.0944
 Frc consts  --      6.6169                 6.6185                 6.6208
 IR Inten    --     40.2158                39.8512                 8.2924

                     94                     95                     96
                      A                      A                      A
 Frequencies --   3210.0527              3210.3544              3211.1819
 Red. masses --      1.0957                 1.0955                 1.0955
 Frc consts  --      6.6522                 6.6522                 6.6555
 IR Inten    --     20.0699                18.6928                16.3364

 - Thermochemistry -
 -------------------
 Temperature   298.150 Kelvin.  Pressure   1.00000 Atm.
 Atom     1 has atomic number 15 and mass  30.97376

 Molecular mass:   262.09114 amu.
 Principal axes and moments of inertia in atomic units:
                           1         2         3
     Eigenvalues --  5160.549665165.426458679.56289
           X            1.00000   0.00058   0.00003
           Y           -0.00058   1.00000   0.00002
           Z           -0.00003  -0.00002   1.00000
 This molecule is an asymmetric top.
 Rotational symmetry number  1.
 Warning -- assumption of classical behavior for rotation
           may cause significant error
 Rotational temperatures (Kelvin)      0.01678     0.01677     0.00998
 Rotational constants (GHZ):           0.34972     0.34939     0.20793
 Zero-point vibrational energy     720027.9 (Joules/Mol)
                                  172.09081 (Kcal/Mol)
 Warning -- explicit consideration of  21 degrees of freedom as
           vibrations may cause significant error
 Vibrational temperatures:     34.69    36.84    56.75    76.72    77.08
          (Kelvin)            101.82   261.57   291.50   291.94   353.33
                              373.88   374.11   588.34   588.47   593.44
                              600.38   617.81   618.13   733.11   733.33
                              743.23   910.33   910.40   911.28   995.45
                             1014.55  1014.64  1024.93  1025.10  1026.52
                             1095.57  1097.64  1097.77  1246.43  1246.60
                             1250.22  1342.44  1342.55  1344.50  1404.15
                             1404.34  1406.93  1439.39  1439.40  1440.53
                             1460.90  1460.90  1461.45  1514.66  1514.67
                             1514.92  1594.20  1594.27  1596.28  1598.21
                             1598.25  1605.64  1717.22  1717.82  1717.92
                             1754.53  1754.64  1756.48  1906.46  1911.85
                             1911.90  1964.43  1964.57  1964.81  2130.17
                             2130.83  2130.88  2202.90  2203.72  2203.78
                             2345.46  2345.86  2345.89  2368.50  2368.53
                             2371.08  4569.53  4569.75  4569.87  4579.05
                             4579.20  4579.36  4593.77  4593.86  4594.08
                             4609.68  4609.92  4610.45  4618.55  4618.98
                             4620.17

 Zero-point correction=                           0.274244 (Hartree/Particle)
 Thermal correction to Energy=                    0.290153
 Thermal correction to Enthalpy=                  0.291097
 Thermal correction to Gibbs Free Energy=         0.227926
 Sum of electronic and zero-point Energies=          -1036.023993
 Sum of electronic and thermal Energies=             -1036.008084
 Sum of electronic and thermal Enthalpies=           -1036.007140
 Sum of electronic and thermal Free Energies=        -1036.070311

                     E (Thermal)             CV                S
                      KCal/Mol        Cal/Mol-Kelvin    Cal/Mol-Kelvin
 Total                  182.074             62.528            132.954
 Electronic               0.000              0.000              0.000
 Translational            0.889              2.981             42.590
 Rotational               0.889              2.981             33.803
 Vibrational            180.296             56.567             56.561
 Vibration     1          0.593              1.985              6.263
 Vibration     2          0.593              1.985              6.144
 Vibration     3          0.594              1.981              5.287
 Vibration     4          0.596              1.976              4.690
 Vibration     5          0.596              1.976              4.681
 Vibration     6          0.598              1.968              4.132
 Vibration     7          0.630              1.865              2.310
 Vibration     8          0.639              1.836              2.109
 Vibration     9          0.639              1.836              2.107
 Vibration    10          0.660              1.770              1.762
 Vibration    11          0.668              1.746              1.663
 Vibration    12          0.668              1.746              1.662
 Vibration    13          0.773              1.451              0.930
 Vibration    14          0.773              1.451              0.930
 Vibration    15          0.776              1.443              0.918
 Vibration    16          0.780              1.433              0.901
 Vibration    17          0.791              1.406              0.861
 Vibration    18          0.791              1.406              0.860
 Vibration    19          0.865              1.229              0.635
 Vibration    20          0.865              1.229              0.634
 Vibration    21          0.872              1.213              0.618

                           ! Non-Optimized Parameters !
 Normal termination of Gaussian 16 at Sun Dec  8 18:56:27 2019.
 Gaussian 16:  ES64L-G16RevA.03 25-Dec-2016

 ----------------------------------------------------------------------
 # TD(NStates=10, Root=1) B3LYP/6-31G* scf=xqc volume pop=NPA density=c
 urrent Geom=AllCheck Guess=Read
 ----------------------------------------------------------------------

 Structure from the checkpoint file:  "direct_arylation_ligand38_conf253.chk"
 -------------------
 Title Card Required
 -------------------
 Charge =  0 Multiplicity = 1

                         Standard orientation:
 ---------------------------------------------------------------------
 Center     Atomic      Atomic             Coordinates (Angstroms)
 Number     Number       Type             X           Y           Z
 ---------------------------------------------------------------------
      1         15           0       -0.000191   -0.000745   -1.206910
      2          6           0       -1.444584   -0.839890   -0.402273
      3          6           0       -2.083919   -0.385617    0.761406
      4          6           0       -3.183041   -1.071531    1.282969
      5          6           0       -3.657348   -2.223365    0.653367
      6          6           0       -3.031720   -2.684444   -0.506883
      7          6           0       -1.941328   -1.992707   -1.033868
      8          6           0       -0.004905    1.670124   -0.403158
      9          6           0        0.715596    2.000241    0.754843
     10          6           0        0.670549    3.295418    1.275559
     11          6           0       -0.097748    4.278967    0.650771
     12          6           0       -0.817343    3.964153   -0.503929
     13          6           0       -0.762949    2.673700   -1.030073
     14          6           0        1.449509   -0.831353   -0.403070
     15          6           0        2.695988   -0.683694   -1.034811
     16          6           0        3.840912   -1.281205   -0.508209
     17          6           0        3.755311   -2.054032    0.651790
     18          6           0        2.520855   -2.220701    1.281450
     19          6           0        1.376617   -1.612760    0.760219
     20          1           0       -1.724758    0.509329    1.260417
     21          1           0       -3.668210   -0.704362    2.183944
     22          1           0       -4.513486   -2.755075    1.060313
     23          1           0       -3.399267   -3.576439   -1.007664
     24          1           0       -1.471681   -2.346892   -1.948802
     25          1           0        1.317750    1.244445    1.250073
     26          1           0        1.236971    3.534671    2.172154
     27          1           0       -0.130627    5.286495    1.057088
     28          1           0       -1.412368    4.725936   -1.001078
     29          1           0       -1.310891    2.441471   -1.940579
     30          1           0        2.767202   -0.099297   -1.949427
     31          1           0        4.796972   -1.152422   -1.009096
     32          1           0        4.644378   -2.528844    1.058495
     33          1           0        2.446151   -2.824959    2.182142
     34          1           0        0.422030   -1.750714    1.259071
 ---------------------------------------------------------------------

 SCF Done:  E(RB3LYP) =  -1036.29823711     A.U. after    2 cycles

 Excitation energies and oscillator strengths:

 Excited State   1:      Singlet-A      4.5092 eV  274.96 nm  f=0.1271  <S**2>=0.000
      69 -> 70         0.69717
 This state for optimization and/or second-order correction.
 Total Energy, E(TD-HF/TD-DFT) =  -1036.13252686
 Copying the excited state density for this state as the 1-particle RhoCI density.

 Excited State   2:      Singlet-A      4.5127 eV  274.75 nm  f=0.1285  <S**2>=0.000
      69 -> 71         0.69711

 Excited State   3:      Singlet-A      4.7578 eV  260.59 nm  f=0.0022  <S**2>=0.000
      67 -> 70         0.12443
      68 -> 71         0.12526
      69 -> 72         0.67459

 Excited State   4:      Singlet-A      5.0576 eV  245.14 nm  f=0.0002  <S**2>=0.000
      66 -> 70        -0.16764
      67 -> 71        -0.13479
      68 -> 70        -0.13463
      69 -> 74         0.63003

 Excited State   5:      Singlet-A      5.0593 eV  245.06 nm  f=0.0002  <S**2>=0.000
      66 -> 71        -0.16848
      67 -> 70        -0.13597
      68 -> 71         0.13629
      69 -> 75         0.62897

 Excited State   6:      Singlet-A      5.1514 eV  240.68 nm  f=0.0085  <S**2>=0.000
      69 -> 73         0.67907

 Excited State   7:      Singlet-A      5.4273 eV  228.45 nm  f=0.0147  <S**2>=0.000
      63 -> 72        -0.16606
      64 -> 74        -0.14504
      65 -> 75         0.14159
      67 -> 70         0.42554
      68 -> 71         0.41502
      69 -> 72        -0.16537

 Excited State   8:      Singlet-A      5.5136 eV  224.87 nm  f=0.0005  <S**2>=0.000
      63 -> 74         0.14357
      64 -> 70         0.12231
      64 -> 72         0.22545
      65 -> 71         0.12116
      65 -> 72        -0.17032
      66 -> 70         0.22694
      67 -> 71         0.26541
      68 -> 70         0.27425
      68 -> 72        -0.16073
      69 -> 74         0.28659

 Excited State   9:      Singlet-A      5.5154 eV  224.80 nm  f=0.0004  <S**2>=0.000
      63 -> 75         0.14424
      64 -> 71        -0.11544
      64 -> 72        -0.17080
      65 -> 70         0.12060
      65 -> 72        -0.22533
      66 -> 71         0.22459
      67 -> 70         0.26340
      67 -> 72         0.16228
      68 -> 71        -0.27979
      69 -> 75         0.28832

 Excited State  10:      Singlet-A      5.6180 eV  220.69 nm  f=0.0009  <S**2>=0.000
      65 -> 71        -0.10154
      67 -> 71        -0.47535
      68 -> 70         0.49039

 The electronic state is 1-A.
 Alpha  occ. eigenvalues --  -77.08113 -10.19448 -10.19447 -10.19445 -10.19149
 Alpha  occ. eigenvalues --  -10.19149 -10.19141 -10.19119 -10.19118 -10.19113
 Alpha  occ. eigenvalues --  -10.19032 -10.19032 -10.19026 -10.19009 -10.19008
 Alpha  occ. eigenvalues --  -10.19003 -10.18963 -10.18963 -10.18957  -6.54844
 Alpha  occ. eigenvalues --   -4.71103  -4.71103  -4.70602  -0.85559  -0.84847
 Alpha  occ. eigenvalues --   -0.84843  -0.76669  -0.74367  -0.74365  -0.74329
 Alpha  occ. eigenvalues --   -0.73822  -0.73820  -0.64436  -0.60337  -0.60307
 Alpha  occ. eigenvalues --   -0.60305  -0.59207  -0.59206  -0.55449  -0.51436
 Alpha  occ. eigenvalues --   -0.51433  -0.49296  -0.45441  -0.45438  -0.44774
 Alpha  occ. eigenvalues --   -0.44344  -0.44343  -0.44068  -0.41946  -0.41869
 Alpha  occ. eigenvalues --   -0.41866  -0.40379  -0.40376  -0.36844  -0.36353
 Alpha  occ. eigenvalues --   -0.36348  -0.35898  -0.34253  -0.34250  -0.34224
 Alpha  occ. eigenvalues --   -0.31885  -0.31882  -0.26775  -0.25451  -0.25443
 Alpha  occ. eigenvalues --   -0.25242  -0.24705  -0.24702  -0.21147
 Alpha virt. eigenvalues --   -0.01884  -0.01875  -0.00829   0.00173   0.00424
 Alpha virt. eigenvalues --    0.00434   0.06876   0.06890   0.09493   0.11038
 Alpha virt. eigenvalues --    0.11040   0.13902   0.14528   0.14530   0.15165

 Mulliken charges:
               1
     1  P    0.450551
     2  C   -0.112092
     3  C   -0.172931
     4  C   -0.115545
     5  C   -0.156379
     6  C   -0.125637
     7  C   -0.159327
     8  C   -0.081384
     9  C   -0.148204
    10  C   -0.119964
    11  C   -0.120650
    12  C   -0.118720
    13  C   -0.156812
    14  C   -0.127579
    15  C   -0.176084
    16  C   -0.118725
    17  C   -0.159139
    18  C   -0.122530
    19  C   -0.164524
    20  H    0.128116
    21  H    0.124115
    22  H    0.117595
    23  H    0.121785
    24  H    0.126164
    25  H    0.177471
    26  H    0.148354
    27  H    0.147881
    28  H    0.144295
    29  H    0.150265
    30  H    0.117656
    31  H    0.118449
    32  H    0.115072
    33  H    0.123219
    34  H    0.145237
 Sum of Mulliken charges =  -0.00000

 Dipole moment (field-independent basis, Debye):
    X=             -0.2781    Y=              3.7544    Z=             -0.1971  Tot=              3.7698
 Quadrupole moment (field-independent basis, Debye-Ang):
   XX=           -120.5383   YY=           -106.5344   ZZ=           -110.6597
   XY=              0.1607   XZ=              0.7243   YZ=              1.1623

 Summary of Natural Population Analysis:

                                       Natural Population
                Natural  -----------------------------------------------
    Atom  No    Charge         Core      Valence    Rydberg      Total
 -----------------------------------------------------------------------
      P    1    1.24215      9.99750     3.71011    0.05024    13.75785
      C    2   -0.44717      1.99887     4.42394    0.02436     6.44717
      C    3   -0.26040      1.99899     4.24368    0.01773     6.26040
      C    4   -0.22372      1.99909     4.21031    0.01431     6.22372
      C    5   -0.27170      1.99909     4.25663    0.01597     6.27170
      C    6   -0.24899      1.99910     4.23482    0.01507     6.24899
      C    7   -0.21323      1.99901     4.19839    0.01583     6.21323
      C    8   -0.37688      1.99891     4.35307    0.02491     6.37688
      C    9   -0.20453      1.99900     4.18946    0.01608     6.20453
      C   10   -0.22997      1.99909     4.21682    0.01405     6.22997
      C   11   -0.19556      1.99909     4.18279    0.01368     6.19556
      C   12   -0.23477      1.99910     4.22145    0.01422     6.23477
      C   13   -0.20256      1.99902     4.18843    0.01511     6.20256
      C   14   -0.47244      1.99888     4.44732    0.02625     6.47244
      C   15   -0.23846      1.99902     4.22316    0.01629     6.23846
      C   16   -0.23690      1.99910     4.22313    0.01468     6.23690
      C   17   -0.27729      1.99909     4.26201    0.01618     6.27729
      C   18   -0.23632      1.99909     4.22258    0.01464     6.23632
      C   19   -0.23812      1.99899     4.22154    0.01759     6.23812
      H   20    0.23492      0.00000     0.76372    0.00136     0.76508
      H   21    0.23504      0.00000     0.76408    0.00088     0.76496
      H   22    0.22982      0.00000     0.76929    0.00089     0.77018
      H   23    0.23376      0.00000     0.76536    0.00088     0.76624
      H   24    0.23113      0.00000     0.76772    0.00116     0.76887
      H   25    0.26228      0.00000     0.73652    0.00120     0.73772
      H   26    0.24635      0.00000     0.75279    0.00086     0.75365
      H   27    0.24281      0.00000     0.75637    0.00082     0.75719
      H   28    0.24380      0.00000     0.75531    0.00089     0.75620
      H   29    0.24277      0.00000     0.75602    0.00120     0.75723
      H   30    0.22527      0.00000     0.77377    0.00096     0.77473
      H   31    0.23150      0.00000     0.76754    0.00095     0.76850
      H   32    0.22863      0.00000     0.77046    0.00091     0.77137
      H   33    0.23478      0.00000     0.76433    0.00089     0.76522
      H   34    0.24399      0.00000     0.75444    0.00157     0.75601
 =======================================================================
   * Total *   -0.00000     45.98001    91.64740    0.37259   138.00000

 Normal termination of Gaussian 16 at Sun Dec  8 19:12:33 2019.
