 Gaussian 16, Revision A.03,

 -----------------------------------------
 # opt=CalcFc B3LYP/6-31G* scf=xqc scf=xqc
 -----------------------------------------

 -------------------
 Title Card Required
 -------------------
 Symbolic Z-matrix:
 Charge =  0 Multiplicity = 1

 SCF Done:  E(RB3LYP) =  -1036.25375535     A.U. after   14 cycles
 SCF Done:  E(RB3LYP) =  -1036.26889256     A.U. after   14 cycles
 SCF Done:  E(RB3LYP) =  -1036.27884626     A.U. after   13 cycles
 SCF Done:  E(RB3LYP) =  -1036.28741098     A.U. after   13 cycles
 SCF Done:  E(RB3LYP) =  -1036.28198892     A.U. after   13 cycles
 SCF Done:  E(RB3LYP) =  -1036.28743734     A.U. after   13 cycles
 SCF Done:  E(RB3LYP) =  -1036.28858516     A.U. after    9 cycles
 SCF Done:  E(RB3LYP) =  -1036.28830320     A.U. after   11 cycles
 SCF Done:  E(RB3LYP) =  -1036.28903504     A.U. after   12 cycles
 SCF Done:  E(RB3LYP) =  -1036.28882864     A.U. after   14 cycles
 SCF Done:  E(RB3LYP) =  -1036.29823322     A.U. after    7 cycles
 SCF Done:  E(RB3LYP) =  -1036.29823208     A.U. after    7 cycles
 SCF Done:  E(RB3LYP) =  -1036.29592154     A.U. after   14 cycles
 SCF Done:  E(RB3LYP) =  -1036.29821260     A.U. after   11 cycles
 SCF Done:  E(RB3LYP) =  -1036.29823827     A.U. after    8 cycles
 SCF Done:  E(RB3LYP) =  -1036.29822848     A.U. after    9 cycles
 SCF Done:  E(RB3LYP) =  -1036.29823588     A.U. after    9 cycles
 SCF Done:  E(RB3LYP) =  -1036.29823161     A.U. after   10 cycles
 Optimization completed.
    -- Stationary point found.
 Normal termination of Gaussian 16 at Sun Dec  8 18:45:21 2019.

 ----------------------------------------------------------------------
 # freq B3LYP/6-31G* scf=xqc volume NMR pop=NPA density=current Geom=Al
 lCheck Guess=Read
 ----------------------------------------------------------------------

 Structure from the checkpoint file:  "direct_arylation_ligand38_conf42.chk"
 -------------------
 Title Card Required
 -------------------
 Charge =  0 Multiplicity = 1

 SCF Done:  E(RB3LYP) =  -1036.29823161     A.U. after    1 cycles

      1  P    Isotropic =   361.4937   Anisotropy =    39.5793

      2  C    Isotropic =    56.0957   Anisotropy =   179.4313

      3  C    Isotropic =    61.0151   Anisotropy =   164.1416

      4  C    Isotropic =    68.7270   Anisotropy =   164.1167

      5  C    Isotropic =    68.1720   Anisotropy =   167.3202

      6  C    Isotropic =    68.6891   Anisotropy =   163.8675

      7  C    Isotropic =    62.6041   Anisotropy =   174.0478

      8  C    Isotropic =    56.1449   Anisotropy =   179.5145

      9  C    Isotropic =    61.0489   Anisotropy =   164.1418

     10  C    Isotropic =    68.7327   Anisotropy =   164.0987

     11  C    Isotropic =    68.1686   Anisotropy =   167.2877

     12  C    Isotropic =    68.6801   Anisotropy =   163.9041

     13  C    Isotropic =    62.6095   Anisotropy =   174.1438

     14  C    Isotropic =    56.1467   Anisotropy =   179.4641

     15  C    Isotropic =    60.9825   Anisotropy =   164.0873

     16  C    Isotropic =    68.7184   Anisotropy =   164.1346

     17  C    Isotropic =    68.1492   Anisotropy =   167.3719

     18  C    Isotropic =    68.6762   Anisotropy =   163.9015

     19  C    Isotropic =    62.5190   Anisotropy =   174.0552

     20  H    Isotropic =    24.6148   Anisotropy =     9.2626

     21  H    Isotropic =    24.9267   Anisotropy =     4.5918

     22  H    Isotropic =    25.0221   Anisotropy =     3.6410

     23  H    Isotropic =    25.0515   Anisotropy =     6.0932

     24  H    Isotropic =    25.4114   Anisotropy =    12.2546

     25  H    Isotropic =    24.6147   Anisotropy =     9.2541

     26  H    Isotropic =    24.9303   Anisotropy =     4.5804

     27  H    Isotropic =    25.0232   Anisotropy =     3.6350

     28  H    Isotropic =    25.0479   Anisotropy =     6.0875

     29  H    Isotropic =    25.3959   Anisotropy =    12.2481

     30  H    Isotropic =    24.6085   Anisotropy =     9.2389

     31  H    Isotropic =    24.9262   Anisotropy =     4.5857

     32  H    Isotropic =    25.0177   Anisotropy =     3.6430

     33  H    Isotropic =    25.0448   Anisotropy =     6.0816

     34  H    Isotropic =    25.3866   Anisotropy =    12.2014

  Exact polarizability: 224.442  -0.043 223.768  -0.156   0.113 165.091
 Approx polarizability: 331.425  -0.117 330.264  -0.369   0.266 308.134

                      1                      2                      3
                      A                      A                      A
 Frequencies --     22.0417                23.6215                38.0032
 Red. masses --      3.7982                 3.7937                 3.6905
 Frc consts  --      0.0011                 0.0012                 0.0031
 IR Inten    --      0.2802                 0.2807                 0.0027

                      4                      5                      6
                      A                      A                      A
 Frequencies --     53.2629                53.5081                70.6566
 Red. masses --      5.2508                 5.2567                 5.1670
 Frc consts  --      0.0088                 0.0089                 0.0152
 IR Inten    --      0.0848                 0.0872                 0.3109

                      7                      8                      9
                      A                      A                      A
 Frequencies --    181.5102               202.3017               202.8521
 Red. masses --      4.5605                 4.6433                 4.6429
 Frc consts  --      0.0885                 0.1120                 0.1126
 IR Inten    --      0.3530                 1.1339                 1.1408

                     10                     11                     12
                      A                      A                      A
 Frequencies --    245.6256               259.8081               260.0965
 Red. masses --      5.7394                 4.7200                 4.7231
 Frc consts  --      0.2040                 0.1877                 0.1883
 IR Inten    --      0.4825                 0.2232                 0.2268

                     13                     14                     15
                      A                      A                      A
 Frequencies --    408.7924               408.8652               412.3867
 Red. masses --      3.0770                 3.0808                 3.5721
 Frc consts  --      0.3030                 0.3034                 0.3579
 IR Inten    --      1.9605                 1.9574                 0.1546

                     16                     17                     18
                      A                      A                      A
 Frequencies --    417.1536               429.2615               429.7497
 Red. masses --      4.6510                 7.3012                 7.3120
 Frc consts  --      0.4769                 0.7927                 0.7956
 IR Inten    --      0.5688                 7.6343                 7.7177

                     19                     20                     21
                      A                      A                      A
 Frequencies --    509.4030               509.5963               516.3318
 Red. masses --      4.2486                 4.2476                 4.5903
 Frc consts  --      0.6496                 0.6499                 0.7210
 IR Inten    --     26.0878                26.1906                11.9699

                     22                     23                     24
                      A                      A                      A
 Frequencies --    632.7213               632.7613               633.3806
 Red. masses --      6.4272                 6.4270                 6.4367
 Frc consts  --      1.5160                 1.5161                 1.5214
 IR Inten    --      0.1822                 0.1807                 0.0162

                     25                     26                     27
                      A                      A                      A
 Frequencies --    691.9549               705.1839               705.3235
 Red. masses --      6.5803                 5.6959                 5.7182
 Frc consts  --      1.8563                 1.6688                 1.6760
 IR Inten    --      0.7761                 1.1422                 1.2313

                     28                     29                     30
                      A                      A                      A
 Frequencies --    712.2127               712.3505               713.2941
 Red. masses --      2.2040                 2.2043                 2.1347
 Frc consts  --      0.6587                 0.6590                 0.6399
 IR Inten    --     26.1105                26.4812                16.6824

                     31                     32                     33
                      A                      A                      A
 Frequencies --    761.3994               762.8741               762.9796
 Red. masses --      1.6151                 1.6471                 1.6480
 Frc consts  --      0.5517                 0.5648                 0.5652
 IR Inten    --     19.2069                24.7747                25.0312

                     34                     35                     36
                      A                      A                      A
 Frequencies --    866.1602               866.2970               868.7700
 Red. masses --      1.2477                 1.2477                 1.2462
 Frc consts  --      0.5515                 0.5517                 0.5542
 IR Inten    --      0.2249                 0.2250                 0.1308

                     37                     38                     39
                      A                      A                      A
 Frequencies --    932.9110               933.0649               934.3002
 Red. masses --      1.3440                 1.3442                 1.3386
 Frc consts  --      0.6892                 0.6895                 0.6885
 IR Inten    --      1.2169                 1.2741                 0.0659

                     40                     41                     42
                      A                      A                      A
 Frequencies --    975.7644               975.9194               977.6602
 Red. masses --      1.3613                 1.3612                 1.3556
 Frc consts  --      0.7636                 0.7638                 0.7634
 IR Inten    --      0.0182                 0.0158                 0.1399

                     43                     44                     45
                      A                      A                      A
 Frequencies --   1000.3485              1000.4290              1001.1296
 Red. masses --      1.2543                 1.2543                 1.2526
 Frc consts  --      0.7396                 0.7396                 0.7397
 IR Inten    --      0.0771                 0.0809                 0.0018

                     46                     47                     48
                      A                      A                      A
 Frequencies --   1015.3805              1015.3995              1015.7754
 Red. masses --      6.3116                 6.3111                 6.3102
 Frc consts  --      3.8340                 3.8338                 3.8361
 IR Inten    --      4.3654                 4.3476                 0.0468

                     49                     50                     51
                      A                      A                      A
 Frequencies --   1052.7232              1052.7732              1052.9467
 Red. masses --      3.3093                 3.3160                 3.2529
 Frc consts  --      2.1608                 2.1654                 2.1248
 IR Inten    --      2.1037                 2.0805                 0.0405

                     52                     53                     54
                      A                      A                      A
 Frequencies --   1107.9223              1108.2490              1109.5519
 Red. masses --      1.8680                 1.8388                 1.6556
 Frc consts  --      1.3510                 1.3306                 1.2009
 IR Inten    --      3.9665                 3.5032                 2.8165

                     55                     56                     57
                      A                      A                      A
 Frequencies --   1110.8390              1110.9170              1116.3576
 Red. masses --      2.2053                 2.2625                 2.6138
 Frc consts  --      1.6033                 1.6451                 1.9192
 IR Inten    --      9.5487                10.2684                 1.2815

                     58                     59                     60
                      A                      A                      A
 Frequencies --   1193.4934              1193.8997              1193.9451
 Red. masses --      1.1033                 1.1000                 1.1001
 Frc consts  --      0.9260                 0.9238                 0.9240
 IR Inten    --      0.0018                 0.1297                 0.1286

                     61                     62                     63
                      A                      A                      A
 Frequencies --   1219.2204              1219.5645              1220.9670
 Red. masses --      1.1475                 1.1478                 1.1474
 Frc consts  --      1.0050                 1.0059                 1.0078
 IR Inten    --      6.0626                 6.0128                 0.4291

                     64                     65                     66
                      A                      A                      A
 Frequencies --   1325.0902              1328.7043              1328.9734
 Red. masses --      3.4990                 3.4809                 3.5265
 Frc consts  --      3.6198                 3.6208                 3.6697
 IR Inten    --      2.6254                 2.4255                 2.4423

                     67                     68                     69
                      A                      A                      A
 Frequencies --   1365.1488              1365.3940              1365.7998
 Red. masses --      1.6593                 1.6514                 1.6356
 Frc consts  --      1.8219                 1.8139                 1.7976
 IR Inten    --      0.1667                 0.8775                 2.3600

                     70                     71                     72
                      A                      A                      A
 Frequencies --   1480.5060              1480.9695              1481.0283
 Red. masses --      2.1106                 2.1150                 2.1166
 Frc consts  --      2.7257                 2.7330                 2.7354
 IR Inten    --     16.4703                 6.5843                 6.8097

                     73                     74                     75
                      A                      A                      A
 Frequencies --   1531.1236              1531.5853              1531.6969
 Red. masses --      2.0150                 1.9989                 1.9973
 Frc consts  --      2.7832                 2.7626                 2.7608
 IR Inten    --      2.0122                10.1181                10.1803

                     76                     77                     78
                      A                      A                      A
 Frequencies --   1630.1999              1630.4578              1630.5103
 Red. masses --      5.1003                 5.1124                 5.1133
 Frc consts  --      7.9860                 8.0074                 8.0093
 IR Inten    --      0.3926                 0.0497                 0.0465

                     79                     80                     81
                      A                      A                      A
 Frequencies --   1646.1535              1646.1759              1647.9524
 Red. masses --      5.2689                 5.2716                 5.2824
 Frc consts  --      8.4121                 8.4168                 8.4522
 IR Inten    --      3.4966                 3.5266                 0.3193

                     82                     83                     84
                      A                      A                      A
 Frequencies --   3176.0562              3176.0802              3176.1962
 Red. masses --      1.0854                 1.0854                 1.0853
 Frc consts  --      6.4506                 6.4507                 6.4509
 IR Inten    --      2.2025                 1.8704                 1.9329

                     85                     86                     87
                      A                      A                      A
 Frequencies --   3182.6129              3182.6766              3182.7402
 Red. masses --      1.0875                 1.0875                 1.0876
 Frc consts  --      6.4900                 6.4903                 6.4910
 IR Inten    --      0.7157                 0.7719                 0.1904

                     88                     89                     90
                      A                      A                      A
 Frequencies --   3192.8000              3192.8548              3192.9810
 Red. masses --      1.0916                 1.0916                 1.0917
 Frc consts  --      6.5563                 6.5566                 6.5579
 IR Inten    --     10.6871                13.2655                43.8924

                     91                     92                     93
                      A                      A                      A
 Frequencies --   3203.6350              3203.9409              3204.3800
 Red. masses --      1.0938                 1.0941                 1.0944
 Frc consts  --      6.6141                 6.6173                 6.6210
 IR Inten    --     36.5002                35.8414                14.3342

                     94                     95                     96
                      A                      A                      A
 Frequencies --   3209.6707              3210.1891              3211.1435
 Red. masses --      1.0961                 1.0956                 1.0954
 Frc consts  --      6.6529                 6.6524                 6.6547
 IR Inten    --     22.3675                18.9018                16.0490

 - Thermochemistry -
 -------------------
 Temperature   298.150 Kelvin.  Pressure   1.00000 Atm.
 Atom     1 has atomic number 15 and mass  30.97376

 Molecular mass:   262.09114 amu.
 Principal axes and moments of inertia in atomic units:
                           1         2         3
     Eigenvalues --  5155.592855169.496338679.04778
           X            0.99999  -0.00536  -0.00003
           Y            0.00536   0.99999   0.00003
           Z            0.00003  -0.00004   1.00000
 This molecule is an asymmetric top.
 Rotational symmetry number  1.
 Warning -- assumption of classical behavior for rotation
           may cause significant error
 Rotational temperatures (Kelvin)      0.01680     0.01675     0.00998
 Rotational constants (GHZ):           0.35006     0.34911     0.20794
 Zero-point vibrational energy     719968.7 (Joules/Mol)
                                  172.07665 (Kcal/Mol)
 Warning -- explicit consideration of  21 degrees of freedom as
           vibrations may cause significant error
 Vibrational temperatures:     31.71    33.99    54.68    76.63    76.99
          (Kelvin)            101.66   261.15   291.07   291.86   353.40
                              373.81   374.22   588.16   588.27   593.33
                              600.19   617.61   618.31   732.92   733.20
                              742.89   910.34   910.40   911.29   995.57
                             1014.60  1014.80  1024.72  1024.91  1026.27
                             1095.48  1097.61  1097.76  1246.21  1246.41
                             1249.97  1342.25  1342.47  1344.25  1403.91
                             1404.13  1406.63  1439.28  1439.39  1440.40
                             1460.91  1460.93  1461.47  1514.63  1514.71
                             1514.96  1594.05  1594.52  1596.40  1598.25
                             1598.36  1606.19  1717.17  1717.76  1717.82
                             1754.19  1754.68  1756.70  1906.51  1911.71
                             1912.10  1964.14  1964.50  1965.08  2130.12
                             2130.78  2130.87  2202.95  2203.61  2203.77
                             2345.49  2345.87  2345.94  2368.45  2368.48
                             2371.04  4569.64  4569.67  4569.84  4579.07
                             4579.16  4579.25  4593.73  4593.81  4593.99
                             4609.32  4609.76  4610.39  4618.00  4618.75
                             4620.12

 Zero-point correction=                           0.274222 (Hartree/Particle)
 Thermal correction to Energy=                    0.290145
 Thermal correction to Enthalpy=                  0.291089
 Thermal correction to Gibbs Free Energy=         0.227715
 Sum of electronic and zero-point Energies=          -1036.024010
 Sum of electronic and thermal Energies=             -1036.008087
 Sum of electronic and thermal Enthalpies=           -1036.007143
 Sum of electronic and thermal Free Energies=        -1036.070517

                     E (Thermal)             CV                S
                      KCal/Mol        Cal/Mol-Kelvin    Cal/Mol-Kelvin
 Total                  182.069             62.534            133.382
 Electronic               0.000              0.000              0.000
 Translational            0.889              2.981             42.590
 Rotational               0.889              2.981             33.803
 Vibrational            180.291             56.573             56.990
 Vibration     1          0.593              1.985              6.441
 Vibration     2          0.593              1.985              6.304
 Vibration     3          0.594              1.982              5.361
 Vibration     4          0.596              1.976              4.692
 Vibration     5          0.596              1.976              4.683
 Vibration     6          0.598              1.968              4.135
 Vibration     7          0.630              1.865              2.313
 Vibration     8          0.639              1.837              2.112
 Vibration     9          0.639              1.836              2.107
 Vibration    10          0.660              1.770              1.762
 Vibration    11          0.668              1.746              1.663
 Vibration    12          0.668              1.746              1.661
 Vibration    13          0.773              1.451              0.931
 Vibration    14          0.773              1.451              0.931
 Vibration    15          0.776              1.443              0.918
 Vibration    16          0.780              1.433              0.902
 Vibration    17          0.791              1.407              0.861
 Vibration    18          0.791              1.405              0.859
 Vibration    19          0.865              1.229              0.635
 Vibration    20          0.865              1.229              0.635
 Vibration    21          0.871              1.214              0.619

                           ! Non-Optimized Parameters !
 Normal termination of Gaussian 16 at Sun Dec  8 19:00:35 2019.
 Gaussian 16:  ES64L-G16RevA.03 25-Dec-2016

 ----------------------------------------------------------------------
 # TD(NStates=10, Root=1) B3LYP/6-31G* scf=xqc volume pop=NPA density=c
 urrent Geom=AllCheck Guess=Read
 ----------------------------------------------------------------------

 Structure from the checkpoint file:  "direct_arylation_ligand38_conf43.chk"
 -------------------
 Title Card Required
 -------------------
 Charge =  0 Multiplicity = 1

                         Standard orientation:
 ---------------------------------------------------------------------
 Center     Atomic      Atomic             Coordinates (Angstroms)
 Number     Number       Type             X           Y           Z
 ---------------------------------------------------------------------
      1         15           0        0.002293   -0.001080   -1.206756
      2          6           0       -0.982108   -1.350556   -0.402210
      3          6           0       -0.966685   -2.608110   -1.029308
      4          6           0       -1.687468   -3.679751   -0.503006
      5          6           0       -2.453433   -3.506807    0.651865
      6          6           0       -2.489416   -2.259225    1.276484
      7          6           0       -1.758093   -1.189349    0.755603
      8          6           0       -0.677125    1.525875   -0.404133
      9          6           0       -1.773481    2.139397   -1.033465
     10          6           0       -2.345566    3.297333   -0.506935
     11          6           0       -1.817638    3.873441    0.650398
     12          6           0       -0.719607    3.282393    1.277511
     13          6           0       -0.154244    2.116502    0.756422
     14          6           0        1.663329   -0.175742   -0.402116
     15          6           0        2.745490    0.458224   -1.035746
     16          6           0        4.033906    0.372765   -0.508575
     17          6           0        4.265829   -0.365556    0.653843
     18          6           0        3.202275   -1.012014    1.285582
     19          6           0        1.910289   -0.916722    0.763804
     20          1           0       -0.388328   -2.745519   -1.940216
     21          1           0       -1.659872   -4.645974   -1.000174
     22          1           0       -3.024108   -4.337760    1.058244
     23          1           0       -3.087591   -2.116050    2.172949
     24          1           0       -1.795485   -0.223553    1.250308
     25          1           0       -2.177668    1.707478   -1.946274
     26          1           0       -3.195696    3.755392   -1.005919
     27          1           0       -2.255290    4.781429    1.056984
     28          1           0       -0.300480    3.728493    2.176001
     29          1           0        0.700206    1.666899    1.253353
     30          1           0        2.576139    1.018386   -1.952615
     31          1           0        4.857828    0.873015   -1.010998
     32          1           0        5.270721   -0.441936    1.060844
     33          1           0        3.376540   -1.592292    2.188281
     34          1           0        1.091171   -1.424398    1.264477
 ---------------------------------------------------------------------

 SCF Done:  E(RB3LYP) =  -1036.29823161     A.U. after    2 cycles

 Excitation energies and oscillator strengths:

 Excited State   1:      Singlet-A      4.5085 eV  275.00 nm  f=0.1272  <S**2>=0.000
      69 -> 70         0.69599
 This state for optimization and/or second-order correction.
 Total Energy, E(TD-HF/TD-DFT) =  -1036.13254774
 Copying the excited state density for this state as the 1-particle RhoCI density.

 Excited State   2:      Singlet-A      4.5120 eV  274.79 nm  f=0.1285  <S**2>=0.000
      69 -> 71         0.69593

 Excited State   3:      Singlet-A      4.7568 eV  260.65 nm  f=0.0022  <S**2>=0.000
      67 -> 70        -0.12336
      68 -> 71        -0.12451
      69 -> 72         0.67469

 Excited State   4:      Singlet-A      5.0566 eV  245.19 nm  f=0.0002  <S**2>=0.000
      66 -> 70         0.17009
      67 -> 70        -0.13277
      68 -> 71         0.13335
      69 -> 74         0.63010

 Excited State   5:      Singlet-A      5.0591 eV  245.07 nm  f=0.0002  <S**2>=0.000
      66 -> 71         0.17068
      67 -> 71         0.13438
      68 -> 70         0.13435
      69 -> 75         0.62885

 Excited State   6:      Singlet-A      5.1509 eV  240.70 nm  f=0.0085  <S**2>=0.000
      69 -> 73         0.67911

 Excited State   7:      Singlet-A      5.4273 eV  228.45 nm  f=0.0147  <S**2>=0.000
      63 -> 72         0.16620
      64 -> 74        -0.13679
      65 -> 75         0.13333
      67 -> 70         0.42601
      68 -> 71         0.41560
      69 -> 72         0.16510

 Excited State   8:      Singlet-A      5.5132 eV  224.89 nm  f=0.0005  <S**2>=0.000
      63 -> 74         0.14357
      64 -> 71        -0.12214
      64 -> 72        -0.20877
      64 -> 74        -0.10156
      65 -> 70         0.12790
      65 -> 72         0.19076
      65 -> 75        -0.10417
      66 -> 70        -0.22643
      67 -> 70         0.25212
      68 -> 71        -0.26843
      68 -> 72         0.15980
      69 -> 74         0.28582

 Excited State   9:      Singlet-A      5.5155 eV  224.79 nm  f=0.0004  <S**2>=0.000
      63 -> 75         0.14424
      64 -> 70        -0.12144
      64 -> 72         0.19108
      64 -> 75         0.10272
      65 -> 71        -0.11989
      65 -> 72         0.20848
      65 -> 74        -0.10174
      66 -> 71        -0.22364
      67 -> 71        -0.25645
      67 -> 72        -0.16225
      68 -> 70        -0.26732
      69 -> 75         0.28806

 Excited State  10:      Singlet-A      5.6180 eV  220.69 nm  f=0.0009  <S**2>=0.000
      65 -> 71        -0.10115
      67 -> 71        -0.47264
      68 -> 70         0.48992

 The electronic state is 1-A.
 Alpha  occ. eigenvalues --  -77.08110 -10.19449 -10.19444 -10.19444 -10.19152
 Alpha  occ. eigenvalues --  -10.19145 -10.19142 -10.19122 -10.19116 -10.19114
 Alpha  occ. eigenvalues --  -10.19036 -10.19029 -10.19026 -10.19012 -10.19007
 Alpha  occ. eigenvalues --  -10.19003 -10.18969 -10.18959 -10.18955  -6.54841
 Alpha  occ. eigenvalues --   -4.71100  -4.71100  -4.70599  -0.85561  -0.84848
 Alpha  occ. eigenvalues --   -0.84843  -0.76671  -0.74368  -0.74364  -0.74329
 Alpha  occ. eigenvalues --   -0.73823  -0.73819  -0.64437  -0.60338  -0.60308
 Alpha  occ. eigenvalues --   -0.60305  -0.59208  -0.59205  -0.55448  -0.51437
 Alpha  occ. eigenvalues --   -0.51434  -0.49296  -0.45441  -0.45438  -0.44775
 Alpha  occ. eigenvalues --   -0.44345  -0.44344  -0.44068  -0.41947  -0.41870
 Alpha  occ. eigenvalues --   -0.41866  -0.40380  -0.40377  -0.36844  -0.36354
 Alpha  occ. eigenvalues --   -0.36348  -0.35898  -0.34254  -0.34250  -0.34224
 Alpha  occ. eigenvalues --   -0.31887  -0.31882  -0.26775  -0.25451  -0.25445
 Alpha  occ. eigenvalues --   -0.25243  -0.24706  -0.24701  -0.21144
 Alpha virt. eigenvalues --   -0.01884  -0.01875  -0.00831   0.00174   0.00422
 Alpha virt. eigenvalues --    0.00435   0.06879   0.06893   0.09493   0.11038
 Alpha virt. eigenvalues --    0.11041   0.13902   0.14528   0.14531   0.15167

 Mulliken charges:
               1
     1  P    0.450609
     2  C   -0.084013
     3  C   -0.152246
     4  C   -0.122516
     5  C   -0.128974
     6  C   -0.116675
     7  C   -0.157006
     8  C   -0.105541
     9  C   -0.170150
    10  C   -0.116575
    11  C   -0.137257
    12  C   -0.123369
    13  C   -0.152106
    14  C   -0.131608
    15  C   -0.169823
    16  C   -0.124000
    17  C   -0.169971
    18  C   -0.118047
    19  C   -0.176478
    20  H    0.146886
    21  H    0.139695
    22  H    0.140949
    23  H    0.142407
    24  H    0.159152
    25  H    0.134080
    26  H    0.132592
    27  H    0.133610
    28  H    0.137787
    29  H    0.170068
    30  H    0.113117
    31  H    0.112264
    32  H    0.105980
    33  H    0.115498
    34  H    0.121661
 Sum of Mulliken charges =  -0.00000

 Dipole moment (field-independent basis, Debye):
    X=             -3.7893    Y=             -0.3686    Z=             -0.1988  Tot=              3.8124
 Quadrupole moment (field-independent basis, Debye-Ang):
   XX=           -120.1235   YY=           -106.9535   ZZ=           -110.6646
   XY=              2.5666   XZ=             -1.2020   YZ=              0.7105

 Summary of Natural Population Analysis:

                                       Natural Population
                Natural  -----------------------------------------------
    Atom  No    Charge         Core      Valence    Rydberg      Total
 -----------------------------------------------------------------------
      P    1    1.24244      9.99750     3.70980    0.05026    13.75756
      C    2   -0.38661      1.99889     4.36358    0.02413     6.38661
      C    3   -0.19733      1.99902     4.18318    0.01513     6.19733
      C    4   -0.24190      1.99910     4.22824    0.01456     6.24190
      C    5   -0.21339      1.99909     4.20007    0.01423     6.21339
      C    6   -0.22446      1.99909     4.21136    0.01401     6.22446
      C    7   -0.22557      1.99899     4.21001    0.01657     6.22557
      C    8   -0.42430      1.99890     4.39926    0.02615     6.42430
      C    9   -0.22551      1.99902     4.21071    0.01578     6.22551
      C   10   -0.23182      1.99910     4.21844    0.01429     6.23182
      C   11   -0.23086      1.99909     4.21693    0.01484     6.23086
      C   12   -0.23669      1.99909     4.22319    0.01442     6.23669
      C   13   -0.21104      1.99899     4.19537    0.01668     6.21104
      C   14   -0.48601      1.99886     4.46192    0.02523     6.48601
      C   15   -0.23135      1.99901     4.21603    0.01631     6.23135
      C   16   -0.24691      1.99910     4.23270    0.01511     6.24691
      C   17   -0.30036      1.99910     4.28450    0.01677     6.30036
      C   18   -0.22884      1.99909     4.21517    0.01458     6.22884
      C   19   -0.26637      1.99899     4.24925    0.01813     6.26637
      H   20    0.24174      0.00000     0.75701    0.00125     0.75826
      H   21    0.24200      0.00000     0.75713    0.00087     0.75800
      H   22    0.23988      0.00000     0.75928    0.00084     0.76012
      H   23    0.24352      0.00000     0.75561    0.00087     0.75648
      H   24    0.25221      0.00000     0.74656    0.00123     0.74779
      H   25    0.23365      0.00000     0.76529    0.00106     0.76635
      H   26    0.23802      0.00000     0.76103    0.00095     0.76198
      H   27    0.23663      0.00000     0.76249    0.00088     0.76337
      H   28    0.24154      0.00000     0.75758    0.00088     0.75846
      H   29    0.25788      0.00000     0.74069    0.00142     0.74212
      H   30    0.22378      0.00000     0.77521    0.00101     0.77622
      H   31    0.22906      0.00000     0.77004    0.00090     0.77094
      H   32    0.22474      0.00000     0.77437    0.00089     0.77526
      H   33    0.23111      0.00000     0.76801    0.00088     0.76889
      H   34    0.23113      0.00000     0.76740    0.00147     0.76887
 =======================================================================
   * Total *   -0.00000     45.98001    91.64740    0.37259   138.00000

 Normal termination of Gaussian 16 at Sun Dec  8 19:16:47 2019.
