 Gaussian 16, Revision A.03,

 -----------------------------------------
 # opt=CalcFc B3LYP/6-31G* scf=xqc scf=xqc
 -----------------------------------------

 -------------------
 Title Card Required
 -------------------
 Symbolic Z-matrix:
 Charge =  0 Multiplicity = 1

 SCF Done:  E(RB3LYP) =  -1036.24062900     A.U. after   14 cycles
 SCF Done:  E(RB3LYP) =  -1036.26320860     A.U. after   15 cycles
 SCF Done:  E(RB3LYP) =  -1036.23613620     A.U. after   15 cycles
 SCF Done:  E(RB3LYP) =  -1036.26542661     A.U. after   13 cycles
 SCF Done:  E(RB3LYP) =  -1036.27928918     A.U. after   14 cycles
 SCF Done:  E(RB3LYP) =  -1036.27919108     A.U. after   14 cycles
 SCF Done:  E(RB3LYP) =  -1036.27676770     A.U. after   13 cycles
 SCF Done:  E(RB3LYP) =  -1036.27983527     A.U. after   13 cycles
 SCF Done:  E(RB3LYP) =  -1036.28981920     A.U. after   14 cycles
 SCF Done:  E(RB3LYP) =  -1036.29118282     A.U. after   14 cycles
 SCF Done:  E(RB3LYP) =  -1036.29816758     A.U. after   11 cycles
 SCF Done:  E(RB3LYP) =  -1036.29822733     A.U. after   11 cycles
 SCF Done:  E(RB3LYP) =  -1036.29823776     A.U. after    9 cycles
 SCF Done:  E(RB3LYP) =  -1036.29823018     A.U. after    8 cycles
 SCF Done:  E(RB3LYP) =  -1036.29822946     A.U. after    9 cycles
 SCF Done:  E(RB3LYP) =  -1036.29822973     A.U. after    8 cycles
 SCF Done:  E(RB3LYP) =  -1036.29822967     A.U. after    7 cycles
 SCF Done:  E(RB3LYP) =  -1036.29822971     A.U. after    7 cycles
 Optimization completed.
    -- Stationary point found.
 Normal termination of Gaussian 16 at Sun Dec  8 19:00:06 2019.

 ----------------------------------------------------------------------
 # freq B3LYP/6-31G* scf=xqc volume NMR pop=NPA density=current Geom=Al
 lCheck Guess=Read
 ----------------------------------------------------------------------

 Structure from the checkpoint file:  "direct_arylation_ligand38_conf12.chk"
 -------------------
 Title Card Required
 -------------------
 Charge =  0 Multiplicity = 1

 SCF Done:  E(RB3LYP) =  -1036.29822971     A.U. after    1 cycles

      1  P    Isotropic =   361.4767   Anisotropy =    39.5985

      2  C    Isotropic =    56.1089   Anisotropy =   179.4400

      3  C    Isotropic =    61.0174   Anisotropy =   164.1317

      4  C    Isotropic =    68.7238   Anisotropy =   164.1236

      5  C    Isotropic =    68.1598   Anisotropy =   167.3237

      6  C    Isotropic =    68.6848   Anisotropy =   163.8813

      7  C    Isotropic =    62.5814   Anisotropy =   174.0506

      8  C    Isotropic =    56.1338   Anisotropy =   179.4182

      9  C    Isotropic =    62.5648   Anisotropy =   174.0643

     10  C    Isotropic =    68.6732   Anisotropy =   163.8969

     11  C    Isotropic =    68.1577   Anisotropy =   167.3549

     12  C    Isotropic =    68.7236   Anisotropy =   164.1343

     13  C    Isotropic =    60.9866   Anisotropy =   164.1185

     14  C    Isotropic =    56.1182   Anisotropy =   179.4703

     15  C    Isotropic =    62.6153   Anisotropy =   174.0922

     16  C    Isotropic =    68.6790   Anisotropy =   163.8999

     17  C    Isotropic =    68.1720   Anisotropy =   167.2784

     18  C    Isotropic =    68.7332   Anisotropy =   164.0908

     19  C    Isotropic =    61.0389   Anisotropy =   164.1724

     20  H    Isotropic =    24.6124   Anisotropy =     9.2538

     21  H    Isotropic =    24.9262   Anisotropy =     4.5889

     22  H    Isotropic =    25.0213   Anisotropy =     3.6403

     23  H    Isotropic =    25.0492   Anisotropy =     6.0878

     24  H    Isotropic =    25.4019   Anisotropy =    12.2344

     25  H    Isotropic =    25.3959   Anisotropy =    12.2249

     26  H    Isotropic =    25.0464   Anisotropy =     6.0859

     27  H    Isotropic =    25.0189   Anisotropy =     3.6411

     28  H    Isotropic =    24.9258   Anisotropy =     4.5882

     29  H    Isotropic =    24.6108   Anisotropy =     9.2500

     30  H    Isotropic =    25.3988   Anisotropy =    12.2438

     31  H    Isotropic =    25.0484   Anisotropy =     6.0871

     32  H    Isotropic =    25.0245   Anisotropy =     3.6321

     33  H    Isotropic =    24.9314   Anisotropy =     4.5815

     34  H    Isotropic =    24.6136   Anisotropy =     9.2585

  Exact polarizability: 224.267  -0.019 224.036   0.025   0.070 165.019
 Approx polarizability: 331.143  -0.038 330.721   0.061   0.167 307.978

                      1                      2                      3
                      A                      A                      A
 Frequencies --     21.3362                21.8912                37.5700
 Red. masses --      3.7918                 3.7968                 3.6886
 Frc consts  --      0.0010                 0.0011                 0.0031
 IR Inten    --      0.2818                 0.2819                 0.0018

                      4                      5                      6
                      A                      A                      A
 Frequencies --     53.1231                53.2718                70.5684
 Red. masses --      5.2586                 5.2522                 5.1675
 Frc consts  --      0.0087                 0.0088                 0.0152
 IR Inten    --      0.0826                 0.0854                 0.3106

                      7                      8                      9
                      A                      A                      A
 Frequencies --    181.5252               202.3324               202.5840
 Red. masses --      4.5603                 4.6429                 4.6403
 Frc consts  --      0.0885                 0.1120                 0.1122
 IR Inten    --      0.3521                 1.1375                 1.1371

                     10                     11                     12
                      A                      A                      A
 Frequencies --    245.5656               259.8055               259.9799
 Red. masses --      5.7399                 4.7194                 4.7233
 Frc consts  --      0.2039                 0.1877                 0.1881
 IR Inten    --      0.4835                 0.2225                 0.2234

                     13                     14                     15
                      A                      A                      A
 Frequencies --    408.7124               408.7632               412.3158
 Red. masses --      3.0765                 3.0789                 3.5983
 Frc consts  --      0.3028                 0.3031                 0.3604
 IR Inten    --      1.9566                 1.9598                 0.1602

                     16                     17                     18
                      A                      A                      A
 Frequencies --    417.0206               429.3981               429.5485
 Red. masses --      4.6072                 7.3079                 7.3118
 Frc consts  --      0.4721                 0.7939                 0.7949
 IR Inten    --      0.5614                 7.6724                 7.6978

                     19                     20                     21
                      A                      A                      A
 Frequencies --    509.4021               509.5305               516.3156
 Red. masses --      4.2488                 4.2465                 4.5893
 Frc consts  --      0.6496                 0.6496                 0.7208
 IR Inten    --     26.1146                26.1172                11.9806

                     22                     23                     24
                      A                      A                      A
 Frequencies --    632.7217               632.7384               633.3566
 Red. masses --      6.4271                 6.4271                 6.4367
 Frc consts  --      1.5160                 1.5161                 1.5213
 IR Inten    --      0.1808                 0.1809                 0.0160

                     25                     26                     27
                      A                      A                      A
 Frequencies --    691.8723               705.1124               705.1928
 Red. masses --      6.5804                 5.6986                 5.6966
 Frc consts  --      1.8559                 1.6693                 1.6691
 IR Inten    --      0.7712                 1.1943                 1.2201

                     28                     29                     30
                      A                      A                      A
 Frequencies --    712.1971               712.2642               713.2225
 Red. masses --      2.2022                 2.2044                 2.1336
 Frc consts  --      0.6581                 0.6589                 0.6395
 IR Inten    --     26.3339                26.3279                16.5849

                     31                     32                     33
                      A                      A                      A
 Frequencies --    761.3813               762.8614               762.8880
 Red. masses --      1.6151                 1.6477                 1.6501
 Frc consts  --      0.5516                 0.5650                 0.5658
 IR Inten    --     19.2315                24.9165                24.8778

                     34                     35                     36
                      A                      A                      A
 Frequencies --    866.0904               866.1992               868.7169
 Red. masses --      1.2478                 1.2478                 1.2463
 Frc consts  --      0.5515                 0.5516                 0.5541
 IR Inten    --      0.2268                 0.2271                 0.1332

                     37                     38                     39
                      A                      A                      A
 Frequencies --    932.7997               932.9029               934.1803
 Red. masses --      1.3445                 1.3442                 1.3386
 Frc consts  --      0.6893                 0.6893                 0.6883
 IR Inten    --      1.2606                 1.2660                 0.0259

                     40                     41                     42
                      A                      A                      A
 Frequencies --    975.7077               975.8408               977.5919
 Red. masses --      1.3615                 1.3613                 1.3557
 Frc consts  --      0.7637                 0.7638                 0.7633
 IR Inten    --      0.0160                 0.0173                 0.1408

                     43                     44                     45
                      A                      A                      A
 Frequencies --   1000.3319              1000.3718              1001.0913
 Red. masses --      1.2545                 1.2543                 1.2527
 Frc consts  --      0.7396                 0.7396                 0.7397
 IR Inten    --      0.0765                 0.0789                 0.0000

                     46                     47                     48
                      A                      A                      A
 Frequencies --   1015.3631              1015.3781              1015.7485
 Red. masses --      6.3135                 6.3108                 6.3084
 Frc consts  --      3.8350                 3.8334                 3.8348
 IR Inten    --      4.3435                 4.3624                 0.0533

                     49                     50                     51
                      A                      A                      A
 Frequencies --   1052.6787              1052.7281              1052.9076
 Red. masses --      3.3078                 3.3135                 3.2521
 Frc consts  --      2.1596                 2.1636                 2.1242
 IR Inten    --      2.1189                 2.0941                 0.0394

                     52                     53                     54
                      A                      A                      A
 Frequencies --   1107.7999              1108.0143              1109.5024
 Red. masses --      1.8852                 1.8714                 1.6544
 Frc consts  --      1.3631                 1.3537                 1.1999
 IR Inten    --      4.2812                 4.0201                 2.8644

                     55                     56                     57
                      A                      A                      A
 Frequencies --   1110.7193              1110.7944              1116.1803
 Red. masses --      2.1894                 2.2057                 2.6142
 Frc consts  --      1.5914                 1.6035                 1.9189
 IR Inten    --      9.3673                 9.6068                 1.2523

                     58                     59                     60
                      A                      A                      A
 Frequencies --   1193.4657              1193.8510              1193.9243
 Red. masses --      1.1033                 1.1000                 1.1001
 Frc consts  --      0.9259                 0.9237                 0.9239
 IR Inten    --      0.0018                 0.1331                 0.1288

                     61                     62                     63
                      A                      A                      A
 Frequencies --   1219.0866              1219.3721              1220.8547
 Red. masses --      1.1474                 1.1477                 1.1473
 Frc consts  --      1.0047                 1.0054                 1.0075
 IR Inten    --      6.0375                 6.0915                 0.3329

                     64                     65                     66
                      A                      A                      A
 Frequencies --   1324.9902              1328.6545              1328.7342
 Red. masses --      3.4937                 3.4671                 3.5002
 Frc consts  --      3.6138                 3.6061                 3.6410
 IR Inten    --      2.6303                 2.4392                 2.4353

                     67                     68                     69
                      A                      A                      A
 Frequencies --   1364.9669              1365.2318              1365.5548
 Red. masses --      1.6625                 1.6527                 1.6437
 Frc consts  --      1.8249                 1.8149                 1.8058
 IR Inten    --      0.2078                 0.1425                 3.0379

                     70                     71                     72
                      A                      A                      A
 Frequencies --   1480.4819              1480.9555              1480.9672
 Red. masses --      2.1109                 2.1161                 2.1153
 Frc consts  --      2.7259                 2.7345                 2.7334
 IR Inten    --     16.6478                 6.6169                 6.5826

                     73                     74                     75
                      A                      A                      A
 Frequencies --   1531.0236              1531.4579              1531.5708
 Red. masses --      2.0153                 1.9993                 1.9982
 Frc consts  --      2.7832                 2.7628                 2.7616
 IR Inten    --      1.9970                10.1648                10.1455

                     76                     77                     78
                      A                      A                      A
 Frequencies --   1630.1456              1630.4133              1630.4427
 Red. masses --      5.1008                 5.1149                 5.1130
 Frc consts  --      7.9862                 8.0109                 8.0083
 IR Inten    --      0.3980                 0.0448                 0.0447

                     79                     80                     81
                      A                      A                      A
 Frequencies --   1646.1210              1646.1403              1647.9247
 Red. masses --      5.2723                 5.2714                 5.2833
 Frc consts  --      8.4174                 8.4160                 8.4534
 IR Inten    --      3.5302                 3.4949                 0.3190

                     82                     83                     84
                      A                      A                      A
 Frequencies --   3176.0557              3176.1311              3176.1395
 Red. masses --      1.0854                 1.0853                 1.0853
 Frc consts  --      6.4506                 6.4508                 6.4508
 IR Inten    --      2.1225                 2.2314                 1.6552

                     85                     86                     87
                      A                      A                      A
 Frequencies --   3182.6064              3182.6843              3182.7440
 Red. masses --      1.0875                 1.0875                 1.0876
 Frc consts  --      6.4900                 6.4903                 6.4911
 IR Inten    --      0.6962                 0.8018                 0.1997

                     88                     89                     90
                      A                      A                      A
 Frequencies --   3192.8189              3192.8651              3192.9777
 Red. masses --      1.0916                 1.0916                 1.0917
 Frc consts  --      6.5566                 6.5568                 6.5578
 IR Inten    --     11.5331                10.1180                46.5280

                     91                     92                     93
                      A                      A                      A
 Frequencies --   3203.9030              3203.9424              3204.3096
 Red. masses --      1.0941                 1.0942                 1.0942
 Frc consts  --      6.6171                 6.6176                 6.6196
 IR Inten    --     41.2195                41.9502                 4.5567

                     94                     95                     96
                      A                      A                      A
 Frequencies --   3210.0699              3210.1511              3210.9966
 Red. masses --      1.0957                 1.0956                 1.0956
 Frc consts  --      6.6520                 6.6520                 6.6555
 IR Inten    --     19.9821                19.6609                16.2792

 - Thermochemistry -
 -------------------
 Temperature   298.150 Kelvin.  Pressure   1.00000 Atm.
 Atom     1 has atomic number 15 and mass  30.97376

 Molecular mass:   262.09114 amu.
 Principal axes and moments of inertia in atomic units:
                           1         2         3
     Eigenvalues --  5160.522965165.120938680.87472
           X            0.99999  -0.00332   0.00000
           Y            0.00332   0.99999   0.00002
           Z           -0.00000  -0.00002   1.00000
 This molecule is an asymmetric top.
 Rotational symmetry number  1.
 Warning -- assumption of classical behavior for rotation
           may cause significant error
 Rotational temperatures (Kelvin)      0.01678     0.01677     0.00998
 Rotational constants (GHZ):           0.34972     0.34941     0.20790
 Zero-point vibrational energy     719917.1 (Joules/Mol)
                                  172.06431 (Kcal/Mol)
 Warning -- explicit consideration of  21 degrees of freedom as
           vibrations may cause significant error
 Vibrational temperatures:     30.70    31.50    54.05    76.43    76.65
          (Kelvin)            101.53   261.17   291.11   291.47   353.31
                              373.80   374.05   588.05   588.12   593.23
                              600.00   617.81   618.02   732.92   733.10
                              742.86   910.35   910.37   911.26   995.45
                             1014.50  1014.62  1024.69  1024.79  1026.17
                             1095.46  1097.59  1097.63  1246.11  1246.27
                             1249.89  1342.09  1342.24  1344.08  1403.83
                             1404.02  1406.54  1439.25  1439.31  1440.35
                             1460.88  1460.90  1461.44  1514.57  1514.64
                             1514.90  1593.88  1594.19  1596.33  1598.08
                             1598.19  1605.93  1717.13  1717.69  1717.79
                             1753.99  1754.40  1756.54  1906.37  1911.64
                             1911.75  1963.88  1964.26  1964.73  2130.08
                             2130.76  2130.78  2202.80  2203.43  2203.59
                             2345.42  2345.80  2345.84  2368.40  2368.43
                             2371.00  4569.64  4569.74  4569.76  4579.06
                             4579.17  4579.26  4593.75  4593.82  4593.98
                             4609.70  4609.76  4610.29  4618.57  4618.69
                             4619.91

 Zero-point correction=                           0.274202 (Hartree/Particle)
 Thermal correction to Energy=                    0.290134
 Thermal correction to Enthalpy=                  0.291078
 Thermal correction to Gibbs Free Energy=         0.227580
 Sum of electronic and zero-point Energies=          -1036.024028
 Sum of electronic and thermal Energies=             -1036.008096
 Sum of electronic and thermal Enthalpies=           -1036.007152
 Sum of electronic and thermal Free Energies=        -1036.070650

                     E (Thermal)             CV                S
                      KCal/Mol        Cal/Mol-Kelvin    Cal/Mol-Kelvin
 Total                  182.062             62.541            133.644
 Electronic               0.000              0.000              0.000
 Translational            0.889              2.981             42.590
 Rotational               0.889              2.981             33.803
 Vibrational            180.284             56.580             57.251
 Vibration     1          0.593              1.985              6.506
 Vibration     2          0.593              1.985              6.455
 Vibration     3          0.594              1.982              5.383
 Vibration     4          0.596              1.976              4.698
 Vibration     5          0.596              1.976              4.692
 Vibration     6          0.598              1.968              4.137
 Vibration     7          0.630              1.865              2.313
 Vibration     8          0.639              1.837              2.112
 Vibration     9          0.639              1.836              2.110
 Vibration    10          0.660              1.770              1.762
 Vibration    11          0.668              1.746              1.663
 Vibration    12          0.668              1.746              1.662
 Vibration    13          0.773              1.451              0.931
 Vibration    14          0.773              1.451              0.931
 Vibration    15          0.776              1.443              0.918
 Vibration    16          0.780              1.433              0.902
 Vibration    17          0.791              1.406              0.861
 Vibration    18          0.791              1.406              0.860
 Vibration    19          0.865              1.229              0.635
 Vibration    20          0.865              1.229              0.635
 Vibration    21          0.871              1.214              0.619

                           ! Non-Optimized Parameters !
 Normal termination of Gaussian 16 at Sun Dec  8 19:17:11 2019.
 Gaussian 16:  ES64L-G16RevA.03 25-Dec-2016

 ----------------------------------------------------------------------
 # TD(NStates=10, Root=1) B3LYP/6-31G* scf=xqc volume pop=NPA density=c
 urrent Geom=AllCheck Guess=Read
 ----------------------------------------------------------------------

 Structure from the checkpoint file:  "direct_arylation_ligand38_conf13.chk"
 -------------------
 Title Card Required
 -------------------
 Charge =  0 Multiplicity = 1

                         Standard orientation:
 ---------------------------------------------------------------------
 Center     Atomic      Atomic             Coordinates (Angstroms)
 Number     Number       Type             X           Y           Z
 ---------------------------------------------------------------------
      1         15           0       -0.000634   -0.000416   -1.206548
      2          6           0        1.038575   -1.308539   -0.402459
      3          6           0        1.077399   -2.564390   -1.031735
      4          6           0        1.841007   -3.605898   -0.505140
      5          6           0        2.595693   -3.403196    0.652264
      6          6           0        2.577570   -2.156382    1.279324
      7          6           0        1.803671   -1.117105    0.758190
      8          6           0       -1.653181   -0.245868   -0.402531
      9          6           0       -1.870254   -1.001041    0.760112
     10          6           0       -3.157409   -1.150266    1.281247
     11          6           0       -4.246087   -0.544344    0.652183
     12          6           0       -4.043984    0.207501   -0.507158
     13          6           0       -2.760033    0.346763   -1.033679
     14          6           0        0.613546    1.553522   -0.402910
     15          6           0        0.064931    2.122225    0.756698
     16          6           0        0.579410    3.311711    1.277359
     17          6           0        1.651812    3.948561    0.650935
     18          6           0        2.205014    3.394484   -0.505440
     19          6           0        1.683427    2.212893   -1.031645
     20          1           0        0.507780   -2.724150   -1.944492
     21          1           0        1.855322   -4.571504   -1.004066
     22          1           0        3.199382   -4.210342    1.058916
     23          1           0        3.166442   -1.990177    2.177970
     24          1           0        1.798592   -0.151608    1.255065
     25          1           0       -1.031749   -1.478087    1.258522
     26          1           0       -3.308173   -1.740955    2.181421
     27          1           0       -5.247066   -0.662603    1.058815
     28          1           0       -4.887254    0.676504   -1.007615
     29          1           0       -2.613305    0.917599   -1.947863
     30          1           0       -0.770083    1.637012    1.253122
     31          1           0        0.140732    3.740075    2.175148
     32          1           0        2.050039    4.874646    1.057227
     33          1           0        3.035393    3.887942   -1.003936
     34          1           0        2.106808    1.798102   -1.943696
 ---------------------------------------------------------------------

 SCF Done:  E(RB3LYP) =  -1036.29822971     A.U. after    2 cycles

 Excitation energies and oscillator strengths:

 Excited State   1:      Singlet-A      4.5095 eV  274.94 nm  f=0.1276  <S**2>=0.000
      69 -> 70         0.69641
 This state for optimization and/or second-order correction.
 Total Energy, E(TD-HF/TD-DFT) =  -1036.13251045
 Copying the excited state density for this state as the 1-particle RhoCI density.

 Excited State   2:      Singlet-A      4.5111 eV  274.84 nm  f=0.1282  <S**2>=0.000
      69 -> 71         0.69638

 Excited State   3:      Singlet-A      4.7565 eV  260.66 nm  f=0.0022  <S**2>=0.000
      67 -> 70         0.12452
      68 -> 71        -0.12491
      69 -> 72         0.67471

 Excited State   4:      Singlet-A      5.0574 eV  245.16 nm  f=0.0002  <S**2>=0.000
      66 -> 70         0.16532
      67 -> 70         0.13414
      68 -> 71         0.13427
      69 -> 74         0.63062

 Excited State   5:      Singlet-A      5.0582 eV  245.11 nm  f=0.0002  <S**2>=0.000
      66 -> 71         0.16561
      67 -> 71        -0.13498
      68 -> 70         0.13479
      69 -> 75         0.63015

 Excited State   6:      Singlet-A      5.1505 eV  240.72 nm  f=0.0085  <S**2>=0.000
      69 -> 73         0.67913

 Excited State   7:      Singlet-A      5.4276 eV  228.43 nm  f=0.0147  <S**2>=0.000
      63 -> 72        -0.16609
      64 -> 74        -0.12932
      64 -> 75        -0.10458
      65 -> 74        -0.10598
      65 -> 75         0.12771
      67 -> 70         0.42125
      68 -> 71        -0.41687
      69 -> 72        -0.16501

 Excited State   8:      Singlet-A      5.5139 eV  224.86 nm  f=0.0005  <S**2>=0.000
      63 -> 74         0.14465
      64 -> 71        -0.10022
      64 -> 72         0.20869
      64 -> 75        -0.10375
      65 -> 70         0.10157
      65 -> 72         0.19097
      65 -> 74         0.10244
      66 -> 70        -0.22425
      67 -> 70        -0.26795
      68 -> 71        -0.27513
      68 -> 72        -0.16304
      69 -> 74         0.28826

 Excited State   9:      Singlet-A      5.5149 eV  224.82 nm  f=0.0004  <S**2>=0.000
      63 -> 75         0.14486
      64 -> 72         0.19105
      64 -> 74        -0.10264
      65 -> 72        -0.20878
      65 -> 75        -0.10244
      66 -> 71        -0.22291
      67 -> 71         0.27033
      67 -> 72        -0.16361
      68 -> 70        -0.27462
      69 -> 75         0.28908

 Excited State  10:      Singlet-A      5.6182 eV  220.68 nm  f=0.0009  <S**2>=0.000
      67 -> 71         0.47881
      68 -> 70         0.48682

 The electronic state is 1-A.
 Alpha  occ. eigenvalues --  -77.08113 -10.19448 -10.19447 -10.19446 -10.19149
 Alpha  occ. eigenvalues --  -10.19145 -10.19145 -10.19119 -10.19116 -10.19116
 Alpha  occ. eigenvalues --  -10.19033 -10.19029 -10.19029 -10.19009 -10.19006
 Alpha  occ. eigenvalues --  -10.19006 -10.18964 -10.18960 -10.18960  -6.54844
 Alpha  occ. eigenvalues --   -4.71103  -4.71103  -4.70601  -0.85560  -0.84847
 Alpha  occ. eigenvalues --   -0.84844  -0.76669  -0.74367  -0.74365  -0.74329
 Alpha  occ. eigenvalues --   -0.73822  -0.73820  -0.64436  -0.60335  -0.60308
 Alpha  occ. eigenvalues --   -0.60306  -0.59207  -0.59206  -0.55448  -0.51436
 Alpha  occ. eigenvalues --   -0.51434  -0.49295  -0.45441  -0.45439  -0.44773
 Alpha  occ. eigenvalues --   -0.44345  -0.44344  -0.44067  -0.41946  -0.41869
 Alpha  occ. eigenvalues --   -0.41867  -0.40379  -0.40377  -0.36844  -0.36352
 Alpha  occ. eigenvalues --   -0.36349  -0.35899  -0.34253  -0.34251  -0.34224
 Alpha  occ. eigenvalues --   -0.31885  -0.31883  -0.26779  -0.25449  -0.25445
 Alpha  occ. eigenvalues --   -0.25243  -0.24704  -0.24703  -0.21143
 Alpha virt. eigenvalues --   -0.01881  -0.01877  -0.00831   0.00173   0.00427
 Alpha virt. eigenvalues --    0.00432   0.06881   0.06886   0.09493   0.11038
 Alpha virt. eigenvalues --    0.11039   0.13904   0.14528   0.14529   0.15164

 Mulliken charges:
               1
     1  P    0.450637
     2  C   -0.088115
     3  C   -0.152445
     4  C   -0.123530
     5  C   -0.133512
     6  C   -0.116093
     7  C   -0.160204
     8  C   -0.133546
     9  C   -0.175202
    10  C   -0.119008
    11  C   -0.170274
    12  C   -0.122952
    13  C   -0.172088
    14  C   -0.099640
    15  C   -0.150184
    16  C   -0.122946
    17  C   -0.132394
    18  C   -0.116594
    19  C   -0.167678
    20  H    0.143805
    21  H    0.136777
    22  H    0.137059
    23  H    0.139304
    24  H    0.152800
    25  H    0.124018
    26  H    0.115416
    27  H    0.105732
    28  H    0.111922
    29  H    0.112103
    30  H    0.174054
    31  H    0.140958
    32  H    0.137765
    33  H    0.135846
    34  H    0.138210
 Sum of Mulliken charges =  -0.00000

 Dipole moment (field-independent basis, Debye):
    X=              3.7219    Y=              0.6189    Z=             -0.1960  Tot=              3.7781
 Quadrupole moment (field-independent basis, Debye-Ang):
   XX=           -120.3710   YY=           -106.6884   ZZ=           -110.6729
   XY=             -1.6501   XZ=              0.9520   YZ=              0.9704

 Summary of Natural Population Analysis:

                                       Natural Population
                Natural  -----------------------------------------------
    Atom  No    Charge         Core      Valence    Rydberg      Total
 -----------------------------------------------------------------------
      P    1    1.24212      9.99750     3.71014    0.05025    13.75788
      C    2   -0.39550      1.99889     4.37255    0.02406     6.39550
      C    3   -0.19868      1.99901     4.18444    0.01523     6.19868
      C    4   -0.24389      1.99910     4.23011    0.01468     6.24389
      C    5   -0.22312      1.99909     4.20950    0.01453     6.22312
      C    6   -0.22364      1.99909     4.21050    0.01405     6.22364
      C    7   -0.23290      1.99899     4.21711    0.01680     6.23290
      C    8   -0.48889      1.99886     4.46456    0.02547     6.48889
      C    9   -0.26299      1.99899     4.24590    0.01810     6.26299
      C   10   -0.23063      1.99909     4.21691    0.01463     6.23063
      C   11   -0.30092      1.99910     4.28504    0.01679     6.30092
      C   12   -0.24512      1.99910     4.23097    0.01506     6.24512
      C   13   -0.23477      1.99901     4.21938    0.01637     6.23477
      C   14   -0.41230      1.99890     4.38742    0.02598     6.41230
      C   15   -0.20690      1.99900     4.19142    0.01649     6.20690
      C   16   -0.23580      1.99909     4.22237    0.01434     6.23580
      C   17   -0.22053      1.99909     4.20692    0.01451     6.22053
      C   18   -0.23160      1.99910     4.21828    0.01423     6.23160
      C   19   -0.22083      1.99902     4.20618    0.01563     6.22083
      H   20    0.24025      0.00000     0.75850    0.00125     0.75975
      H   21    0.24070      0.00000     0.75843    0.00087     0.75930
      H   22    0.23822      0.00000     0.76092    0.00085     0.76178
      H   23    0.24208      0.00000     0.75705    0.00087     0.75792
      H   24    0.24873      0.00000     0.75002    0.00125     0.75127
      H   25    0.23235      0.00000     0.76614    0.00151     0.76765
      H   26    0.23109      0.00000     0.76803    0.00088     0.76891
      H   27    0.22462      0.00000     0.77449    0.00089     0.77538
      H   28    0.22881      0.00000     0.77028    0.00091     0.77119
      H   29    0.22306      0.00000     0.77595    0.00099     0.77694
      H   30    0.26014      0.00000     0.73849    0.00137     0.73986
      H   31    0.24300      0.00000     0.75613    0.00088     0.75700
      H   32    0.23842      0.00000     0.76071    0.00087     0.76158
      H   33    0.23956      0.00000     0.75949    0.00094     0.76044
      H   34    0.23586      0.00000     0.76304    0.00109     0.76414
 =======================================================================
   * Total *   -0.00000     45.98001    91.64740    0.37259   138.00000

 Normal termination of Gaussian 16 at Sun Dec  8 19:34:01 2019.
