 Gaussian 16, Revision A.03,

 -----------------------------------------
 # opt=CalcFc B3LYP/6-31G* scf=xqc scf=xqc
 -----------------------------------------

 -------------------
 Title Card Required
 -------------------
 Symbolic Z-matrix:
 Charge =  0 Multiplicity = 1

 SCF Done:  E(RB3LYP) =  -1036.25184866     A.U. after   14 cycles
 SCF Done:  E(RB3LYP) =  -1036.26717040     A.U. after   15 cycles
 SCF Done:  E(RB3LYP) =  -1036.28030271     A.U. after   13 cycles
 SCF Done:  E(RB3LYP) =  -1036.28998121     A.U. after   14 cycles
 SCF Done:  E(RB3LYP) =  -1036.28828276     A.U. after   14 cycles
 SCF Done:  E(RB3LYP) =  -1036.29103728     A.U. after   13 cycles
 SCF Done:  E(RB3LYP) =  -1036.29131092     A.U. after   13 cycles
 SCF Done:  E(RB3LYP) =  -1036.29354305     A.U. after   14 cycles
 SCF Done:  E(RB3LYP) =  -1036.29399053     A.U. after   14 cycles
 SCF Done:  E(RB3LYP) =  -1036.26288933     A.U. after   15 cycles
 SCF Done:  E(RB3LYP) =  -1036.29823766     A.U. after    9 cycles
 SCF Done:  E(RB3LYP) =  -1036.29823250     A.U. after    7 cycles
 SCF Done:  E(RB3LYP) =  -1036.29823988     A.U. after    8 cycles
 SCF Done:  E(RB3LYP) =  -1036.29823035     A.U. after    7 cycles
 SCF Done:  E(RB3LYP) =  -1036.29722080     A.U. after   12 cycles
 SCF Done:  E(RB3LYP) =  -1036.29806466     A.U. after   11 cycles
 SCF Done:  E(RB3LYP) =  -1036.29667579     A.U. after   12 cycles
 SCF Done:  E(RB3LYP) =  -1036.29823854     A.U. after    8 cycles
 Optimization completed.
    -- Stationary point found.
 Normal termination of Gaussian 16 at Sun Dec  8 18:59:08 2019.

 ----------------------------------------------------------------------
 # freq B3LYP/6-31G* scf=xqc volume NMR pop=NPA density=current Geom=Al
 lCheck Guess=Read
 ----------------------------------------------------------------------

 Structure from the checkpoint file:  "direct_arylation_ligand38_conf132.chk"
 -------------------
 Title Card Required
 -------------------
 Charge =  0 Multiplicity = 1

 SCF Done:  E(RB3LYP) =  -1036.29823854     A.U. after    1 cycles

      1  P    Isotropic =   361.6467   Anisotropy =    40.0050

      2  C    Isotropic =    56.1384   Anisotropy =   179.4238

      3  C    Isotropic =    61.0289   Anisotropy =   164.1626

      4  C    Isotropic =    68.7318   Anisotropy =   164.1188

      5  C    Isotropic =    68.1595   Anisotropy =   167.2971

      6  C    Isotropic =    68.6748   Anisotropy =   163.8971

      7  C    Isotropic =    62.6033   Anisotropy =   174.0608

      8  C    Isotropic =    56.1465   Anisotropy =   179.4492

      9  C    Isotropic =    62.5625   Anisotropy =   174.0959

     10  C    Isotropic =    68.6766   Anisotropy =   163.8940

     11  C    Isotropic =    68.1550   Anisotropy =   167.3237

     12  C    Isotropic =    68.7257   Anisotropy =   164.1227

     13  C    Isotropic =    60.9851   Anisotropy =   164.1069

     14  C    Isotropic =    56.1002   Anisotropy =   179.4264

     15  C    Isotropic =    61.0171   Anisotropy =   164.1264

     16  C    Isotropic =    68.7262   Anisotropy =   164.1406

     17  C    Isotropic =    68.1655   Anisotropy =   167.3256

     18  C    Isotropic =    68.6787   Anisotropy =   163.8794

     19  C    Isotropic =    62.5888   Anisotropy =   174.0133

     20  H    Isotropic =    24.6125   Anisotropy =     9.2585

     21  H    Isotropic =    24.9280   Anisotropy =     4.5872

     22  H    Isotropic =    25.0221   Anisotropy =     3.6396

     23  H    Isotropic =    25.0476   Anisotropy =     6.0879

     24  H    Isotropic =    25.4005   Anisotropy =    12.2361

     25  H    Isotropic =    25.3937   Anisotropy =    12.2194

     26  H    Isotropic =    25.0467   Anisotropy =     6.0850

     27  H    Isotropic =    25.0212   Anisotropy =     3.6383

     28  H    Isotropic =    24.9277   Anisotropy =     4.5848

     29  H    Isotropic =    24.6092   Anisotropy =     9.2476

     30  H    Isotropic =    24.6136   Anisotropy =     9.2552

     31  H    Isotropic =    24.9263   Anisotropy =     4.5915

     32  H    Isotropic =    25.0211   Anisotropy =     3.6406

     33  H    Isotropic =    25.0485   Anisotropy =     6.0859

     34  H    Isotropic =    25.4017   Anisotropy =    12.2262

  Exact polarizability: 224.229   0.057 224.049   0.080  -0.039 165.052
 Approx polarizability: 331.077   0.134 330.709   0.188  -0.091 308.049

                      1                      2                      3
                      A                      A                      A
 Frequencies --     24.5141                25.4390                39.1215
 Red. masses --      3.7998                 3.8047                 3.6905
 Frc consts  --      0.0013                 0.0015                 0.0033
 IR Inten    --      0.2809                 0.2817                 0.0022

                      4                      5                      6
                      A                      A                      A
 Frequencies --     53.4734                53.6147                70.8155
 Red. masses --      5.2506                 5.2421                 5.1677
 Frc consts  --      0.0088                 0.0089                 0.0153
 IR Inten    --      0.0878                 0.0879                 0.3102

                      7                      8                      9
                      A                      A                      A
 Frequencies --    181.7865               202.5783               202.8162
 Red. masses --      4.5615                 4.6414                 4.6408
 Frc consts  --      0.0888                 0.1122                 0.1125
 IR Inten    --      0.3534                 1.1291                 1.1280

                     10                     11                     12
                      A                      A                      A
 Frequencies --    245.5335               259.7414               260.2338
 Red. masses --      5.7394                 4.7204                 4.7274
 Frc consts  --      0.2039                 0.1876                 0.1886
 IR Inten    --      0.4826                 0.2295                 0.2281

                     13                     14                     15
                      A                      A                      A
 Frequencies --    408.9711               409.0087               412.4249
 Red. masses --      3.0815                 3.0816                 3.6394
 Frc consts  --      0.3037                 0.3037                 0.3647
 IR Inten    --      1.9770                 1.9749                 0.1702

                     16                     17                     18
                      A                      A                      A
 Frequencies --    417.1082               429.4646               429.6437
 Red. masses --      4.5459                 7.3123                 7.3118
 Frc consts  --      0.4660                 0.7946                 0.7952
 IR Inten    --      0.5544                 7.6962                 7.7272

                     19                     20                     21
                      A                      A                      A
 Frequencies --    509.5686               509.6721               516.4690
 Red. masses --      4.2466                 4.2473                 4.5899
 Frc consts  --      0.6497                 0.6501                 0.7213
 IR Inten    --     26.0733                26.0877                11.9409

                     22                     23                     24
                      A                      A                      A
 Frequencies --    632.7457               632.7690               633.3949
 Red. masses --      6.4273                 6.4273                 6.4370
 Frc consts  --      1.5161                 1.5162                 1.5215
 IR Inten    --      0.1809                 0.1827                 0.0168

                     25                     26                     27
                      A                      A                      A
 Frequencies --    691.8226               705.1763               705.2340
 Red. masses --      6.5804                 5.7746                 5.7604
 Frc consts  --      1.8556                 1.6919                 1.6880
 IR Inten    --      0.7912                 1.1477                 1.0904

                     28                     29                     30
                      A                      A                      A
 Frequencies --    712.3948               712.5077               713.4062
 Red. masses --      2.1978                 2.1922                 2.1360
 Frc consts  --      0.6572                 0.6557                 0.6405
 IR Inten    --     26.4156                26.4273                16.6099

                     31                     32                     33
                      A                      A                      A
 Frequencies --    761.4079               762.9016               762.9159
 Red. masses --      1.6147                 1.6489                 1.6481
 Frc consts  --      0.5515                 0.5654                 0.5652
 IR Inten    --     19.2240                24.9721                24.8447

                     34                     35                     36
                      A                      A                      A
 Frequencies --    866.3394               866.4318               868.8905
 Red. masses --      1.2476                 1.2475                 1.2462
 Frc consts  --      0.5517                 0.5518                 0.5543
 IR Inten    --      0.2217                 0.2133                 0.1302

                     37                     38                     39
                      A                      A                      A
 Frequencies --    933.0374               933.1292               934.3529
 Red. masses --      1.3439                 1.3436                 1.3382
 Frc consts  --      0.6893                 0.6893                 0.6883
 IR Inten    --      1.2539                 1.2712                 0.0324

                     40                     41                     42
                      A                      A                      A
 Frequencies --    975.9702               976.0587               977.7882
 Red. masses --      1.3610                 1.3608                 1.3552
 Frc consts  --      0.7638                 0.7638                 0.7634
 IR Inten    --      0.0155                 0.0146                 0.1378

                     43                     44                     45
                      A                      A                      A
 Frequencies --   1000.4191              1000.4547              1001.1708
 Red. masses --      1.2541                 1.2538                 1.2523
 Frc consts  --      0.7395                 0.7394                 0.7396
 IR Inten    --      0.0774                 0.0830                 0.0004

                     46                     47                     48
                      A                      A                      A
 Frequencies --   1015.3557              1015.4151              1015.7691
 Red. masses --      6.3141                 6.3113                 6.3099
 Frc consts  --      3.8353                 3.8340                 3.8358
 IR Inten    --      4.3211                 4.3712                 0.0944

                     49                     50                     51
                      A                      A                      A
 Frequencies --   1052.7252              1052.7859              1052.9272
 Red. masses --      3.3110                 3.3209                 3.2537
 Frc consts  --      2.1619                 2.1686                 2.1253
 IR Inten    --      2.0709                 2.0756                 0.0536

                     52                     53                     54
                      A                      A                      A
 Frequencies --   1107.7681              1108.1520              1109.4740
 Red. masses --      1.9102                 1.8806                 1.6547
 Frc consts  --      1.3811                 1.3607                 1.2001
 IR Inten    --      4.7314                 4.1901                 2.9600

                     55                     56                     57
                      A                      A                      A
 Frequencies --   1110.8089              1110.9175              1115.8941
 Red. masses --      2.1582                 2.1903                 2.6112
 Frc consts  --      1.5690                 1.5927                 1.9157
 IR Inten    --      9.0314                 9.3513                 1.1313

                     58                     59                     60
                      A                      A                      A
 Frequencies --   1193.5222              1193.9492              1193.9931
 Red. masses --      1.1034                 1.1000                 1.1001
 Frc consts  --      0.9261                 0.9239                 0.9240
 IR Inten    --      0.0014                 0.1302                 0.1259

                     61                     62                     63
                      A                      A                      A
 Frequencies --   1219.1779              1219.6383              1220.7650
 Red. masses --      1.1475                 1.1479                 1.1473
 Frc consts  --      1.0050                 1.0061                 1.0074
 IR Inten    --      5.8672                 6.0895                 0.4904

                     64                     65                     66
                      A                      A                      A
 Frequencies --   1325.0475              1328.7400              1328.9689
 Red. masses --      3.4819                 3.4820                 3.5365
 Frc consts  --      3.6019                 3.6221                 3.6800
 IR Inten    --      2.6431                 2.4276                 2.4549

                     67                     68                     69
                      A                      A                      A
 Frequencies --   1365.0263              1365.4990              1365.6186
 Red. masses --      1.6638                 1.6453                 1.6402
 Frc consts  --      1.8265                 1.8075                 1.8022
 IR Inten    --      0.7434                 0.7192                 1.9357

                     70                     71                     72
                      A                      A                      A
 Frequencies --   1480.5590              1481.0151              1481.0790
 Red. masses --      2.1106                 2.1152                 2.1165
 Frc consts  --      2.7259                 2.7335                 2.7354
 IR Inten    --     16.6794                 6.5712                 6.6353

                     73                     74                     75
                      A                      A                      A
 Frequencies --   1531.0666              1531.5992              1531.7269
 Red. masses --      2.0158                 1.9987                 1.9969
 Frc consts  --      2.7841                 2.7624                 2.7604
 IR Inten    --      2.0383                10.0853                10.1754

                     76                     77                     78
                      A                      A                      A
 Frequencies --   1630.1927              1630.4747              1630.4920
 Red. masses --      5.1023                 5.1108                 5.1136
 Frc consts  --      7.9890                 8.0052                 8.0097
 IR Inten    --      0.3960                 0.0453                 0.0454

                     79                     80                     81
                      A                      A                      A
 Frequencies --   1646.1859              1646.2042              1647.9796
 Red. masses --      5.2716                 5.2678                 5.2823
 Frc consts  --      8.4168                 8.4111                 8.4523
 IR Inten    --      3.4947                 3.5348                 0.3203

                     82                     83                     84
                      A                      A                      A
 Frequencies --   3176.0984              3176.1487              3176.2072
 Red. masses --      1.0854                 1.0853                 1.0853
 Frc consts  --      6.4508                 6.4509                 6.4510
 IR Inten    --      2.0974                 1.9613                 1.8974

                     85                     86                     87
                      A                      A                      A
 Frequencies --   3182.6651              3182.7221              3182.8235
 Red. masses --      1.0875                 1.0875                 1.0876
 Frc consts  --      6.4903                 6.4905                 6.4914
 IR Inten    --      0.7257                 0.6433                 0.3386

                     88                     89                     90
                      A                      A                      A
 Frequencies --   3192.8606              3192.9001              3193.0306
 Red. masses --      1.0916                 1.0917                 1.0918
 Frc consts  --      6.5567                 6.5571                 6.5582
 IR Inten    --     10.1783                14.2081                44.0366

                     91                     92                     93
                      A                      A                      A
 Frequencies --   3203.8874              3204.0379              3204.4055
 Red. masses --      1.0941                 1.0942                 1.0943
 Frc consts  --      6.6168                 6.6185                 6.6206
 IR Inten    --     39.9775                41.1190                 7.1921

                     94                     95                     96
                      A                      A                      A
 Frequencies --   3210.0477              3210.3384              3211.1811
 Red. masses --      1.0957                 1.0955                 1.0954
 Frc consts  --      6.6524                 6.6520                 6.6553
 IR Inten    --     20.2376                18.6088                16.3271

 - Thermochemistry -
 -------------------
 Temperature   298.150 Kelvin.  Pressure   1.00000 Atm.
 Atom     1 has atomic number 15 and mass  30.97376

 Molecular mass:   262.09114 amu.
 Principal axes and moments of inertia in atomic units:
                           1         2         3
     Eigenvalues --  5162.174645164.435488681.44026
           X            0.99966   0.02619   0.00002
           Y           -0.02619   0.99966  -0.00001
           Z           -0.00002   0.00001   1.00000
 This molecule is an asymmetric top.
 Rotational symmetry number  1.
 Warning -- assumption of classical behavior for rotation
           may cause significant error
 Rotational temperatures (Kelvin)      0.01678     0.01677     0.00998
 Rotational constants (GHZ):           0.34961     0.34946     0.20788
 Zero-point vibrational energy     720023.8 (Joules/Mol)
                                  172.08983 (Kcal/Mol)
 Warning -- explicit consideration of  21 degrees of freedom as
           vibrations may cause significant error
 Vibrational temperatures:     35.27    36.60    56.29    76.94    77.14
          (Kelvin)            101.89   261.55   291.47   291.81   353.27
                              373.71   374.42   588.42   588.47   593.39
                              600.13   617.90   618.16   733.16   733.30
                              743.08   910.38   910.41   911.31   995.38
                             1014.59  1014.67  1024.98  1025.14  1026.43
                             1095.50  1097.65  1097.67  1246.47  1246.60
                             1250.14  1342.43  1342.56  1344.33  1404.20
                             1404.33  1406.82  1439.38  1439.43  1440.46
                             1460.87  1460.96  1461.47  1514.64  1514.72
                             1514.93  1593.83  1594.38  1596.29  1598.21
                             1598.36  1605.52  1717.21  1717.83  1717.89
                             1754.13  1754.79  1756.41  1906.45  1911.76
                             1912.09  1963.97  1964.65  1964.82  2130.19
                             2130.85  2130.94  2202.86  2203.63  2203.81
                             2345.48  2345.89  2345.91  2368.49  2368.52
                             2371.08  4569.70  4569.77  4569.85  4579.15
                             4579.23  4579.37  4593.81  4593.87  4594.06
                             4609.68  4609.90  4610.42  4618.54  4618.96
                             4620.17

 Zero-point correction=                           0.274243 (Hartree/Particle)
 Thermal correction to Energy=                    0.290151
 Thermal correction to Enthalpy=                  0.291095
 Thermal correction to Gibbs Free Energy=         0.227930
 Sum of electronic and zero-point Energies=          -1036.023996
 Sum of electronic and thermal Energies=             -1036.008087
 Sum of electronic and thermal Enthalpies=           -1036.007143
 Sum of electronic and thermal Free Energies=        -1036.070309

                     E (Thermal)             CV                S
                      KCal/Mol        Cal/Mol-Kelvin    Cal/Mol-Kelvin
 Total                  182.073             62.529            132.943
 Electronic               0.000              0.000              0.000
 Translational            0.889              2.981             42.590
 Rotational               0.889              2.981             33.803
 Vibrational            180.295             56.568             56.550
 Vibration     1          0.593              1.985              6.230
 Vibration     2          0.593              1.985              6.157
 Vibration     3          0.594              1.981              5.303
 Vibration     4          0.596              1.976              4.685
 Vibration     5          0.596              1.976              4.679
 Vibration     6          0.598              1.968              4.131
 Vibration     7          0.630              1.865              2.310
 Vibration     8          0.639              1.836              2.110
 Vibration     9          0.639              1.836              2.107
 Vibration    10          0.660              1.770              1.762
 Vibration    11          0.668              1.746              1.664
 Vibration    12          0.668              1.745              1.660
 Vibration    13          0.773              1.451              0.930
 Vibration    14          0.773              1.451              0.930
 Vibration    15          0.776              1.443              0.918
 Vibration    16          0.780              1.433              0.902
 Vibration    17          0.791              1.406              0.860
 Vibration    18          0.791              1.406              0.860
 Vibration    19          0.865              1.229              0.635
 Vibration    20          0.865              1.229              0.634
 Vibration    21          0.871              1.214              0.618

                           ! Non-Optimized Parameters !
 Normal termination of Gaussian 16 at Sun Dec  8 19:15:49 2019.
 Gaussian 16:  ES64L-G16RevA.03 25-Dec-2016

 ----------------------------------------------------------------------
 # TD(NStates=10, Root=1) B3LYP/6-31G* scf=xqc volume pop=NPA density=c
 urrent Geom=AllCheck Guess=Read
 ----------------------------------------------------------------------

 Structure from the checkpoint file:  "direct_arylation_ligand38_conf133.chk"
 -------------------
 Title Card Required
 -------------------
 Charge =  0 Multiplicity = 1

                         Standard orientation:
 ---------------------------------------------------------------------
 Center     Atomic      Atomic             Coordinates (Angstroms)
 Number     Number       Type             X           Y           Z
 ---------------------------------------------------------------------
      1         15           0       -0.000135   -0.000130   -1.206211
      2          6           0        1.213697   -1.148465   -0.402696
      3          6           0        2.461928   -1.293511   -1.031668
      4          6           0        3.434270   -2.143849   -0.505792
      5          6           0        3.167457   -2.879986    0.650562
      6          6           0        1.926539   -2.756281    1.277350
      7          6           0        0.957259   -1.895839    0.756971
      8          6           0       -1.601416   -0.476843   -0.402161
      9          6           0       -2.116647    0.114542    0.761408
     10          6           0       -3.346356   -0.294157    1.282328
     11          6           0       -4.077678   -1.302168    0.652087
     12          6           0       -3.577373   -1.896933   -0.508139
     13          6           0       -2.354794   -1.480467   -1.034460
     14          6           0        0.387630    1.625039   -0.402370
     15          6           0       -0.109730    2.778866   -1.031681
     16          6           0        0.140570    4.045940   -0.505405
     17          6           0        0.910371    4.182466    0.651742
     18          6           0        1.422540    3.045622    1.278901
     19          6           0        1.161979    1.776180    0.758071
     20          1           0        2.670052   -0.738371   -1.943607
     21          1           0        4.395322   -2.239873   -1.004472
     22          1           0        3.919968   -3.550924    1.056595
     23          1           0        1.710365   -3.329948    2.175199
     24          1           0       -0.004368   -1.809030    1.253793
     25          1           0       -1.557646    0.900264    1.260612
     26          1           0       -3.732152    0.176510    2.183210
     27          1           0       -5.034947   -1.617996    1.058511
     28          1           0       -4.144000   -2.677394   -1.009477
     29          1           0       -1.981044   -1.934719   -1.949378
     30          1           0       -0.693705    2.681990   -1.944212
     31          1           0       -0.255890    4.926482   -1.004395
     32          1           0        1.115200    5.169481    1.058113
     33          1           0        2.026601    3.144837    2.177358
     34          1           0        1.566801    0.899698    1.255038
 ---------------------------------------------------------------------

 SCF Done:  E(RB3LYP) =  -1036.29823854     A.U. after    1 cycles

 Excitation energies and oscillator strengths:

 Excited State   1:      Singlet-A      4.5091 eV  274.96 nm  f=0.1274  <S**2>=0.000
      69 -> 70         0.69713
 This state for optimization and/or second-order correction.
 Total Energy, E(TD-HF/TD-DFT) =  -1036.13253159
 Copying the excited state density for this state as the 1-particle RhoCI density.

 Excited State   2:      Singlet-A      4.5113 eV  274.83 nm  f=0.1284  <S**2>=0.000
      69 -> 71         0.69709

 Excited State   3:      Singlet-A      4.7570 eV  260.64 nm  f=0.0022  <S**2>=0.000
      67 -> 70         0.12327
      68 -> 71         0.12382
      69 -> 72         0.67467

 Excited State   4:      Singlet-A      5.0573 eV  245.16 nm  f=0.0002  <S**2>=0.000
      66 -> 70        -0.16595
      67 -> 70         0.13492
      68 -> 71        -0.13473
      69 -> 74         0.62934

 Excited State   5:      Singlet-A      5.0583 eV  245.11 nm  f=0.0002  <S**2>=0.000
      66 -> 71        -0.16659
      67 -> 71        -0.13572
      68 -> 70        -0.13556
      69 -> 75         0.62874

 Excited State   6:      Singlet-A      5.1508 eV  240.71 nm  f=0.0085  <S**2>=0.000
      69 -> 73         0.67909

 Excited State   7:      Singlet-A      5.4274 eV  228.44 nm  f=0.0147  <S**2>=0.000
      63 -> 72        -0.16608
      64 -> 74         0.14500
      65 -> 75         0.14264
      67 -> 70         0.42411
      68 -> 71         0.41692
      69 -> 72        -0.16514

 Excited State   8:      Singlet-A      5.5138 eV  224.86 nm  f=0.0005  <S**2>=0.000
      63 -> 74         0.14319
      64 -> 71        -0.11603
      64 -> 72        -0.22264
      65 -> 70        -0.11894
      65 -> 72        -0.17406
      66 -> 70         0.22668
      67 -> 70        -0.26367
      68 -> 71         0.27493
      68 -> 72        -0.16287
      69 -> 74         0.28568

 Excited State   9:      Singlet-A      5.5150 eV  224.81 nm  f=0.0004  <S**2>=0.000
      63 -> 75         0.14372
      64 -> 70        -0.11553
      64 -> 72         0.17441
      65 -> 71         0.11517
      65 -> 72        -0.22275
      66 -> 71         0.22522
      67 -> 71         0.26770
      67 -> 72         0.16372
      68 -> 70         0.27324
      69 -> 75         0.28676

 Excited State  10:      Singlet-A      5.6181 eV  220.69 nm  f=0.0009  <S**2>=0.000
      67 -> 71        -0.47641
      68 -> 70         0.48420

 The electronic state is 1-A.
 Alpha  occ. eigenvalues --  -77.08113 -10.19447 -10.19447 -10.19446 -10.19149
 Alpha  occ. eigenvalues --  -10.19145 -10.19145 -10.19119 -10.19116 -10.19116
 Alpha  occ. eigenvalues --  -10.19033 -10.19029 -10.19029 -10.19009 -10.19006
 Alpha  occ. eigenvalues --  -10.19006 -10.18964 -10.18961 -10.18960  -6.54843
 Alpha  occ. eigenvalues --   -4.71102  -4.71102  -4.70601  -0.85560  -0.84847
 Alpha  occ. eigenvalues --   -0.84844  -0.76669  -0.74366  -0.74365  -0.74329
 Alpha  occ. eigenvalues --   -0.73822  -0.73821  -0.64436  -0.60336  -0.60308
 Alpha  occ. eigenvalues --   -0.60306  -0.59207  -0.59207  -0.55448  -0.51436
 Alpha  occ. eigenvalues --   -0.51434  -0.49295  -0.45440  -0.45439  -0.44774
 Alpha  occ. eigenvalues --   -0.44344  -0.44344  -0.44067  -0.41946  -0.41869
 Alpha  occ. eigenvalues --   -0.41867  -0.40379  -0.40376  -0.36844  -0.36353
 Alpha  occ. eigenvalues --   -0.36349  -0.35898  -0.34252  -0.34251  -0.34224
 Alpha  occ. eigenvalues --   -0.31885  -0.31883  -0.26776  -0.25450  -0.25444
 Alpha  occ. eigenvalues --   -0.25243  -0.24704  -0.24703  -0.21144
 Alpha virt. eigenvalues --   -0.01882  -0.01877  -0.00830   0.00173   0.00426
 Alpha virt. eigenvalues --    0.00431   0.06878   0.06891   0.09492   0.11038
 Alpha virt. eigenvalues --    0.11040   0.13903   0.14528   0.14530   0.15164

 Mulliken charges:
               1
     1  P    0.450589
     2  C   -0.100111
     3  C   -0.167999
     4  C   -0.116567
     5  C   -0.132824
     6  C   -0.123030
     7  C   -0.150296
     8  C   -0.133369
     9  C   -0.175387
    10  C   -0.118902
    11  C   -0.170309
    12  C   -0.123074
    13  C   -0.171868
    14  C   -0.087595
    15  C   -0.152385
    16  C   -0.123419
    17  C   -0.133051
    18  C   -0.116121
    19  C   -0.159951
    20  H    0.137822
    21  H    0.135546
    22  H    0.137385
    23  H    0.140671
    24  H    0.173697
    25  H    0.123706
    26  H    0.115390
    27  H    0.105705
    28  H    0.111909
    29  H    0.112148
    30  H    0.144137
    31  H    0.137082
    32  H    0.137459
    33  H    0.139622
    34  H    0.153389
 Sum of Mulliken charges =  -0.00000

 Dipole moment (field-independent basis, Debye):
    X=              3.6149    Y=              1.0923    Z=             -0.1970  Tot=              3.7815
 Quadrupole moment (field-independent basis, Debye-Ang):
   XX=           -119.2775   YY=           -107.7855   ZZ=           -110.6668
   XY=             -4.0736   XZ=              1.2888   YZ=             -0.4481

 Summary of Natural Population Analysis:

                                       Natural Population
                Natural  -----------------------------------------------
    Atom  No    Charge         Core      Valence    Rydberg      Total
 -----------------------------------------------------------------------
      P    1    1.24222      9.99750     3.71004    0.05024    13.75778
      C    2   -0.41343      1.99890     4.38854    0.02599     6.41343
      C    3   -0.22135      1.99902     4.20669    0.01565     6.22135
      C    4   -0.23159      1.99910     4.21826    0.01423     6.23159
      C    5   -0.22145      1.99909     4.20781    0.01454     6.22145
      C    6   -0.23595      1.99909     4.22251    0.01435     6.23595
      C    7   -0.20715      1.99900     4.19166    0.01650     6.20715
      C    8   -0.48866      1.99886     4.46435    0.02545     6.48866
      C    9   -0.26350      1.99899     4.24641    0.01811     6.26350
      C   10   -0.23041      1.99909     4.21669    0.01462     6.23041
      C   11   -0.30099      1.99910     4.28510    0.01679     6.30099
      C   12   -0.24535      1.99910     4.23119    0.01506     6.24535
      C   13   -0.23443      1.99901     4.21906    0.01636     6.23443
      C   14   -0.39456      1.99889     4.37160    0.02407     6.39456
      C   15   -0.19851      1.99901     4.18428    0.01521     6.19851
      C   16   -0.24368      1.99910     4.22992    0.01467     6.24368
      C   17   -0.22214      1.99909     4.20855    0.01450     6.22214
      C   18   -0.22370      1.99909     4.21057    0.01404     6.22370
      C   19   -0.23222      1.99899     4.21646    0.01677     6.23222
      H   20    0.23565      0.00000     0.76326    0.00109     0.76435
      H   21    0.23942      0.00000     0.75964    0.00094     0.76058
      H   22    0.23826      0.00000     0.76087    0.00087     0.76174
      H   23    0.24286      0.00000     0.75626    0.00088     0.75714
      H   24    0.25994      0.00000     0.73869    0.00137     0.74006
      H   25    0.23218      0.00000     0.76631    0.00151     0.76782
      H   26    0.23108      0.00000     0.76805    0.00088     0.76892
      H   27    0.22461      0.00000     0.77450    0.00089     0.77539
      H   28    0.22881      0.00000     0.77028    0.00091     0.77119
      H   29    0.22310      0.00000     0.77591    0.00099     0.77690
      H   30    0.24041      0.00000     0.75834    0.00125     0.75959
      H   31    0.24084      0.00000     0.75829    0.00087     0.75916
      H   32    0.23839      0.00000     0.76075    0.00085     0.76161
      H   33    0.24223      0.00000     0.75690    0.00087     0.75777
      H   34    0.24906      0.00000     0.74969    0.00125     0.75094
 =======================================================================
   * Total *   -0.00000     45.98001    91.64741    0.37258   138.00000

 Normal termination of Gaussian 16 at Sun Dec  8 19:30:57 2019.
