 Gaussian 16, Revision A.03,

 -----------------------------------------
 # opt=CalcFc B3LYP/6-31G* scf=xqc scf=xqc
 -----------------------------------------

 -------------------
 Title Card Required
 -------------------
 Symbolic Z-matrix:
 Charge =  0 Multiplicity = 1

 SCF Done:  E(RB3LYP) =  -1036.27986447     A.U. after   14 cycles
 SCF Done:  E(RB3LYP) =  -1036.29409460     A.U. after   15 cycles
 SCF Done:  E(RB3LYP) =  -1036.27811388     A.U. after   15 cycles
 SCF Done:  E(RB3LYP) =  -1036.29593909     A.U. after   13 cycles
 SCF Done:  E(RB3LYP) =  -1036.29716211     A.U. after   12 cycles
 SCF Done:  E(RB3LYP) =  -1036.29756317     A.U. after   12 cycles
 SCF Done:  E(RB3LYP) =  -1036.29782290     A.U. after   12 cycles
 SCF Done:  E(RB3LYP) =  -1036.29792133     A.U. after   12 cycles
 SCF Done:  E(RB3LYP) =  -1036.29798365     A.U. after   11 cycles
 SCF Done:  E(RB3LYP) =  -1036.29803527     A.U. after   11 cycles
 SCF Done:  E(RB3LYP) =  -1036.29823382     A.U. after    7 cycles
 SCF Done:  E(RB3LYP) =  -1036.29823190     A.U. after    9 cycles
 SCF Done:  E(RB3LYP) =  -1036.29823272     A.U. after   10 cycles
 SCF Done:  E(RB3LYP) =  -1036.29823270     A.U. after    9 cycles
 SCF Done:  E(RB3LYP) =  -1036.29823712     A.U. after    9 cycles
 SCF Done:  E(RB3LYP) =  -1036.29823687     A.U. after    8 cycles
 SCF Done:  E(RB3LYP) =  -1036.29823059     A.U. after    9 cycles
 SCF Done:  E(RB3LYP) =  -1036.29823445     A.U. after   10 cycles
 Optimization completed.
    -- Stationary point found.
 Normal termination of Gaussian 16 at Sun Dec  8 18:23:12 2019.

 ----------------------------------------------------------------------
 # freq B3LYP/6-31G* scf=xqc volume NMR pop=NPA density=current Geom=Al
 lCheck Guess=Read
 ----------------------------------------------------------------------

 Structure from the checkpoint file:  "direct_arylation_ligand38_conf72.chk"
 -------------------
 Title Card Required
 -------------------
 Charge =  0 Multiplicity = 1

 SCF Done:  E(RB3LYP) =  -1036.29823445     A.U. after    1 cycles

      1  P    Isotropic =   361.6426   Anisotropy =    40.1353

      2  C    Isotropic =    56.1063   Anisotropy =   179.5045

      3  C    Isotropic =    60.9415   Anisotropy =   164.0023

      4  C    Isotropic =    68.7091   Anisotropy =   164.1336

      5  C    Isotropic =    68.1106   Anisotropy =   167.3753

      6  C    Isotropic =    68.6897   Anisotropy =   163.8743

      7  C    Isotropic =    62.4908   Anisotropy =   174.0920

      8  C    Isotropic =    56.2800   Anisotropy =   179.3445

      9  C    Isotropic =    62.5534   Anisotropy =   174.1980

     10  C    Isotropic =    68.6740   Anisotropy =   163.9066

     11  C    Isotropic =    68.1380   Anisotropy =   167.3714

     12  C    Isotropic =    68.7304   Anisotropy =   164.1421

     13  C    Isotropic =    60.9570   Anisotropy =   164.1064

     14  C    Isotropic =    55.9904   Anisotropy =   179.4812

     15  C    Isotropic =    61.1242   Anisotropy =   164.2311

     16  C    Isotropic =    68.7365   Anisotropy =   164.1145

     17  C    Isotropic =    68.2222   Anisotropy =   167.2018

     18  C    Isotropic =    68.6790   Anisotropy =   163.8700

     19  C    Isotropic =    62.7233   Anisotropy =   173.9099

     20  H    Isotropic =    24.6042   Anisotropy =     9.2273

     21  H    Isotropic =    24.9265   Anisotropy =     4.5854

     22  H    Isotropic =    25.0196   Anisotropy =     3.6440

     23  H    Isotropic =    25.0463   Anisotropy =     6.0851

     24  H    Isotropic =    25.3905   Anisotropy =    12.1867

     25  H    Isotropic =    25.3852   Anisotropy =    12.2174

     26  H    Isotropic =    25.0446   Anisotropy =     6.0850

     27  H    Isotropic =    25.0178   Anisotropy =     3.6449

     28  H    Isotropic =    24.9228   Anisotropy =     4.5860

     29  H    Isotropic =    24.6073   Anisotropy =     9.2381

     30  H    Isotropic =    24.6225   Anisotropy =     9.2950

     31  H    Isotropic =    24.9330   Anisotropy =     4.5935

     32  H    Isotropic =    25.0280   Anisotropy =     3.6292

     33  H    Isotropic =    25.0514   Anisotropy =     6.0879

     34  H    Isotropic =    25.4131   Anisotropy =    12.2634

  Exact polarizability: 224.585  -0.324 223.549   0.198  -0.408 165.173
 Approx polarizability: 331.724  -0.754 329.766   0.452  -0.968 308.309

                      1                      2                      3
                      A                      A                      A
 Frequencies --     23.2579                25.1752                38.9644
 Red. masses --      3.7986                 3.8064                 3.6902
 Frc consts  --      0.0012                 0.0014                 0.0033
 IR Inten    --      0.2829                 0.2780                 0.0021

                      4                      5                      6
                      A                      A                      A
 Frequencies --     53.3827                53.6273                70.8223
 Red. masses --      5.2458                 5.2450                 5.1667
 Frc consts  --      0.0088                 0.0089                 0.0153
 IR Inten    --      0.0855                 0.0894                 0.3089

                      7                      8                      9
                      A                      A                      A
 Frequencies --    181.6469               202.1863               203.0934
 Red. masses --      4.5625                 4.6447                 4.6386
 Frc consts  --      0.0887                 0.1119                 0.1127
 IR Inten    --      0.3530                 1.1224                 1.1364

                     10                     11                     12
                      A                      A                      A
 Frequencies --    245.5434               259.6113               260.2645
 Red. masses --      5.7403                 4.7238                 4.7211
 Frc consts  --      0.2039                 0.1876                 0.1884
 IR Inten    --      0.4823                 0.2249                 0.2324

                     13                     14                     15
                      A                      A                      A
 Frequencies --    408.7773               409.0387               412.4471
 Red. masses --      3.0846                 3.0799                 3.6097
 Frc consts  --      0.3037                 0.3036                 0.3618
 IR Inten    --      1.9963                 1.9590                 0.1651

                     16                     17                     18
                      A                      A                      A
 Frequencies --    417.1425               429.1328               429.7453
 Red. masses --      4.5900                 7.3113                 7.3070
 Frc consts  --      0.4706                 0.7933                 0.7951
 IR Inten    --      0.5636                 7.6215                 7.8124

                     19                     20                     21
                      A                      A                      A
 Frequencies --    509.2188               509.9286               516.3691
 Red. masses --      4.2512                 4.2417                 4.5912
 Frc consts  --      0.6495                 0.6499                 0.7213
 IR Inten    --     26.0455                26.1706                11.9479

                     22                     23                     24
                      A                      A                      A
 Frequencies --    632.7237               632.7771               633.3895
 Red. masses --      6.4274                 6.4273                 6.4370
 Frc consts  --      1.5160                 1.5163                 1.5215
 IR Inten    --      0.1812                 0.1833                 0.0163

                     25                     26                     27
                      A                      A                      A
 Frequencies --    691.8218               705.0543               705.2597
 Red. masses --      6.5808                 5.7999                 5.7416
 Frc consts  --      1.8557                 1.6987                 1.6826
 IR Inten    --      0.7935                 1.1212                 1.1393

                     28                     29                     30
                      A                      A                      A
 Frequencies --    712.2980               712.4539               713.3594
 Red. masses --      2.1979                 2.1922                 2.1372
 Frc consts  --      0.6570                 0.6556                 0.6408
 IR Inten    --     26.1254                26.8048                16.4712

                     31                     32                     33
                      A                      A                      A
 Frequencies --    761.3660               762.7546               763.0475
 Red. masses --      1.6135                 1.6454                 1.6509
 Frc consts  --      0.5511                 0.5640                 0.5663
 IR Inten    --     19.2439                25.0734                24.7143

                     34                     35                     36
                      A                      A                      A
 Frequencies --    866.2088               866.4895               868.8891
 Red. masses --      1.2477                 1.2475                 1.2461
 Frc consts  --      0.5516                 0.5519                 0.5543
 IR Inten    --      0.2259                 0.2169                 0.1301

                     37                     38                     39
                      A                      A                      A
 Frequencies --    932.8024               933.2575               934.3684
 Red. masses --      1.3440                 1.3438                 1.3384
 Frc consts  --      0.6890                 0.6896                 0.6884
 IR Inten    --      1.2661                 1.2532                 0.0417

                     40                     41                     42
                      A                      A                      A
 Frequencies --    975.8474               976.1164               977.8035
 Red. masses --      1.3610                 1.3609                 1.3552
 Frc consts  --      0.7636                 0.7640                 0.7634
 IR Inten    --      0.0199                 0.0135                 0.1372

                     43                     44                     45
                      A                      A                      A
 Frequencies --   1000.3261              1000.5064              1001.1754
 Red. masses --      1.2540                 1.2540                 1.2524
 Frc consts  --      0.7393                 0.7396                 0.7396
 IR Inten    --      0.0764                 0.0825                 0.0002

                     46                     47                     48
                      A                      A                      A
 Frequencies --   1015.3688              1015.4063              1015.7694
 Red. masses --      6.3117                 6.3148                 6.3084
 Frc consts  --      3.8339                 3.8361                 3.8349
 IR Inten    --      4.3566                 4.3543                 0.0797

                     49                     50                     51
                      A                      A                      A
 Frequencies --   1052.6855              1052.7410              1052.8963
 Red. masses --      3.3144                 3.3170                 3.2539
 Frc consts  --      2.1640                 2.1659                 2.1253
 IR Inten    --      2.1170                 2.0348                 0.0528

                     52                     53                     54
                      A                      A                      A
 Frequencies --   1107.7230              1108.0685              1109.4945
 Red. masses --      1.9362                 1.8623                 1.6572
 Frc consts  --      1.3998                 1.3472                 1.2019
 IR Inten    --      5.0923                 3.8768                 3.0329

                     55                     56                     57
                      A                      A                      A
 Frequencies --   1110.7437              1110.9180              1115.9241
 Red. masses --      2.1313                 2.2041                 2.6115
 Frc consts  --      1.5493                 1.6027                 1.9161
 IR Inten    --      8.5659                 9.6970                 1.1823

                     58                     59                     60
                      A                      A                      A
 Frequencies --   1193.4962              1193.9149              1193.9612
 Red. masses --      1.1034                 1.1000                 1.1001
 Frc consts  --      0.9260                 0.9239                 0.9240
 IR Inten    --      0.0016                 0.1321                 0.1235

                     61                     62                     63
                      A                      A                      A
 Frequencies --   1219.1970              1219.5365              1220.7835
 Red. masses --      1.1476                 1.1478                 1.1472
 Frc consts  --      1.0050                 1.0058                 1.0073
 IR Inten    --      5.9201                 6.1041                 0.4318

                     64                     65                     66
                      A                      A                      A
 Frequencies --   1325.0507              1328.6833              1328.9770
 Red. masses --      3.4823                 3.4930                 3.5131
 Frc consts  --      3.6023                 3.6333                 3.6557
 IR Inten    --      2.6472                 2.4323                 2.4489

                     67                     68                     69
                      A                      A                      A
 Frequencies --   1365.0773              1365.3742              1365.5799
 Red. masses --      1.6631                 1.6462                 1.6425
 Frc consts  --      1.8260                 1.8082                 1.8046
 IR Inten    --      0.5615                 0.2978                 2.5415

                     70                     71                     72
                      A                      A                      A
 Frequencies --   1480.5521              1480.9932              1481.1002
 Red. masses --      2.1109                 2.1160                 2.1161
 Frc consts  --      2.7262                 2.7345                 2.7350
 IR Inten    --     16.2930                 6.8900                 6.7051

                     73                     74                     75
                      A                      A                      A
 Frequencies --   1531.0514              1531.5862              1531.6377
 Red. masses --      2.0156                 1.9985                 1.9975
 Frc consts  --      2.7837                 2.7621                 2.7609
 IR Inten    --      2.0093                10.2306                10.0460

                     76                     77                     78
                      A                      A                      A
 Frequencies --   1630.1456              1630.4127              1630.4758
 Red. masses --      5.1024                 5.1100                 5.1150
 Frc consts  --      7.9888                 8.0033                 8.0117
 IR Inten    --      0.3767                 0.0568                 0.0568

                     79                     80                     81
                      A                      A                      A
 Frequencies --   1646.1912              1646.2197              1647.9963
 Red. masses --      5.2702                 5.2714                 5.2830
 Frc consts  --      8.4146                 8.4169                 8.4537
 IR Inten    --      3.4110                 3.6005                 0.3278

                     82                     83                     84
                      A                      A                      A
 Frequencies --   3175.9862              3176.1843              3176.3191
 Red. masses --      1.0854                 1.0853                 1.0853
 Frc consts  --      6.4505                 6.4510                 6.4512
 IR Inten    --      2.1149                 1.9694                 1.8695

                     85                     86                     87
                      A                      A                      A
 Frequencies --   3182.6085              3182.7236              3182.8645
 Red. masses --      1.0875                 1.0875                 1.0876
 Frc consts  --      6.4900                 6.4908                 6.4915
 IR Inten    --      0.6647                 0.6128                 0.4467

                     88                     89                     90
                      A                      A                      A
 Frequencies --   3192.8583              3192.9079              3193.0214
 Red. masses --      1.0917                 1.0916                 1.0917
 Frc consts  --      6.5569                 6.5569                 6.5580
 IR Inten    --     12.0397                 9.7949                46.4387

                     91                     92                     93
                      A                      A                      A
 Frequencies --   3203.8085              3204.0662              3204.4012
 Red. masses --      1.0940                 1.0943                 1.0944
 Frc consts  --      6.6159                 6.6188                 6.6207
 IR Inten    --     38.0874                42.1669                 7.8295

                     94                     95                     96
                      A                      A                      A
 Frequencies --   3209.9324              3210.3644              3211.1733
 Red. masses --      1.0959                 1.0954                 1.0954
 Frc consts  --      6.6528                 6.6518                 6.6551
 IR Inten    --     20.7533                18.4823                16.2740

 - Thermochemistry -
 -------------------
 Temperature   298.150 Kelvin.  Pressure   1.00000 Atm.
 Atom     1 has atomic number 15 and mass  30.97376

 Molecular mass:   262.09114 amu.
 Principal axes and moments of inertia in atomic units:
                           1         2         3
     Eigenvalues --  5154.689495172.732058680.08676
           X            0.99983  -0.01869   0.00007
           Y            0.01869   0.99983  -0.00010
           Z           -0.00007   0.00010   1.00000
 This molecule is an asymmetric top.
 Rotational symmetry number  1.
 Warning -- assumption of classical behavior for rotation
           may cause significant error
 Rotational temperatures (Kelvin)      0.01680     0.01674     0.00998
 Rotational constants (GHZ):           0.35012     0.34890     0.20792
 Zero-point vibrational energy     719999.0 (Joules/Mol)
                                  172.08388 (Kcal/Mol)
 Warning -- explicit consideration of  21 degrees of freedom as
           vibrations may cause significant error
 Vibrational temperatures:     33.46    36.22    56.06    76.81    77.16
          (Kelvin)            101.90   261.35   290.90   292.21   353.28
                              373.52   374.46   588.14   588.52   593.42
                              600.18   617.43   618.31   732.65   733.67
                              742.94   910.35   910.43   911.31   995.38
                             1014.42  1014.71  1024.84  1025.06  1026.37
                             1095.44  1097.43  1097.86  1246.28  1246.69
                             1250.14  1342.09  1342.75  1344.35  1404.03
                             1404.41  1406.84  1439.25  1439.51  1440.47
                             1460.89  1460.94  1461.47  1514.58  1514.66
                             1514.88  1593.77  1594.26  1596.32  1598.11
                             1598.36  1605.57  1717.17  1717.78  1717.84
                             1754.15  1754.64  1756.44  1906.45  1911.68
                             1912.10  1964.04  1964.47  1964.76  2130.18
                             2130.82  2130.97  2202.84  2203.61  2203.69
                             2345.42  2345.80  2345.89  2368.50  2368.54
                             2371.10  4569.54  4569.82  4570.01  4579.06
                             4579.23  4579.43  4593.81  4593.88  4594.05
                             4609.57  4609.94  4610.42  4618.38  4619.00
                             4620.16

 Zero-point correction=                           0.274233 (Hartree/Particle)
 Thermal correction to Energy=                    0.290147
 Thermal correction to Enthalpy=                  0.291091
 Thermal correction to Gibbs Free Energy=         0.227858
 Sum of electronic and zero-point Energies=          -1036.024001
 Sum of electronic and thermal Energies=             -1036.008088
 Sum of electronic and thermal Enthalpies=           -1036.007143
 Sum of electronic and thermal Free Energies=        -1036.070376

                     E (Thermal)             CV                S
                      KCal/Mol        Cal/Mol-Kelvin    Cal/Mol-Kelvin
 Total                  182.070             62.533            133.084
 Electronic               0.000              0.000              0.000
 Translational            0.889              2.981             42.590
 Rotational               0.889              2.981             33.803
 Vibrational            180.292             56.571             56.691
 Vibration     1          0.593              1.985              6.335
 Vibration     2          0.593              1.985              6.177
 Vibration     3          0.594              1.981              5.311
 Vibration     4          0.596              1.976              4.688
 Vibration     5          0.596              1.976              4.679
 Vibration     6          0.598              1.968              4.130
 Vibration     7          0.630              1.865              2.311
 Vibration     8          0.639              1.837              2.113
 Vibration     9          0.639              1.835              2.105
 Vibration    10          0.660              1.770              1.762
 Vibration    11          0.668              1.746              1.664
 Vibration    12          0.668              1.745              1.660
 Vibration    13          0.773              1.451              0.931
 Vibration    14          0.773              1.451              0.930
 Vibration    15          0.776              1.443              0.918
 Vibration    16          0.780              1.433              0.902
 Vibration    17          0.790              1.407              0.861
 Vibration    18          0.791              1.405              0.859
 Vibration    19          0.864              1.230              0.635
 Vibration    20          0.865              1.228              0.634
 Vibration    21          0.871              1.214              0.618

                           ! Non-Optimized Parameters !
 Normal termination of Gaussian 16 at Sun Dec  8 18:38:32 2019.
 Gaussian 16:  ES64L-G16RevA.03 25-Dec-2016

 ----------------------------------------------------------------------
 # TD(NStates=10, Root=1) B3LYP/6-31G* scf=xqc volume pop=NPA density=c
 urrent Geom=AllCheck Guess=Read
 ----------------------------------------------------------------------

 Structure from the checkpoint file:  "direct_arylation_ligand38_conf73.chk"
 -------------------
 Title Card Required
 -------------------
 Charge =  0 Multiplicity = 1

                         Standard orientation:
 ---------------------------------------------------------------------
 Center     Atomic      Atomic             Coordinates (Angstroms)
 Number     Number       Type             X           Y           Z
 ---------------------------------------------------------------------
      1         15           0        0.001778    0.001311   -1.206559
      2          6           0       -1.131029    1.228699   -0.401223
      3          6           0       -1.275237    2.472864   -1.038144
      4          6           0       -2.113681    3.454604   -0.510342
      5          6           0       -2.838135    3.201453    0.656335
      6          6           0       -2.715003    1.964638    1.291504
      7          6           0       -1.866808    0.986010    0.768839
      8          6           0        1.632241    0.366205   -0.402599
      9          6           0        1.793792    1.130938    0.762842
     10          6           0        3.066825    1.374176    1.283116
     11          6           0        4.196961    0.854017    0.650360
     12          6           0        4.050120    0.093711   -0.511791
     13          6           0        2.779452   -0.139270   -1.037422
     14          6           0       -0.497939   -1.593689   -0.403804
     15          6           0       -1.528492   -2.319986   -1.024548
     16          6           0       -1.964460   -3.536010   -0.499161
     17          6           0       -1.362887   -4.057455    0.648291
     18          6           0       -0.328446   -3.353462    1.266538
     19          6           0        0.099981   -2.129870    0.746830
     20          1           0       -0.729045    2.670319   -1.957790
     21          1           0       -2.209468    4.412307   -1.015473
     22          1           0       -3.499712    3.961300    1.064065
     23          1           0       -3.279750    1.759093    2.197465
     24          1           0       -1.780542    0.027405    1.271615
     25          1           0        0.922610    1.541790    1.264151
     26          1           0        3.174173    1.970982    2.185477
     27          1           0        5.186836    1.045361    1.056344
     28          1           0        4.925443   -0.308789   -1.015097
     29          1           0        2.674437   -0.715823   -1.953748
     30          1           0       -1.988816   -1.929965   -1.929622
     31          1           0       -2.765717   -4.081244   -0.991332
     32          1           0       -1.694149   -5.009840    1.053893
     33          1           0        0.147565   -3.755654    2.157392
     34          1           0        0.905922   -1.592346    1.237325
 ---------------------------------------------------------------------

 SCF Done:  E(RB3LYP) =  -1036.29823445     A.U. after    3 cycles

 Excitation energies and oscillator strengths:

 Excited State   1:      Singlet-A      4.5051 eV  275.21 nm  f=0.1253  <S**2>=0.000
      69 -> 70         0.69718
 This state for optimization and/or second-order correction.
 Total Energy, E(TD-HF/TD-DFT) =  -1036.13267611
 Copying the excited state density for this state as the 1-particle RhoCI density.

 Excited State   2:      Singlet-A      4.5173 eV  274.47 nm  f=0.1300  <S**2>=0.000
      69 -> 71         0.69698

 Excited State   3:      Singlet-A      4.7589 eV  260.53 nm  f=0.0022  <S**2>=0.000
      67 -> 70         0.12149
      68 -> 71        -0.12414
      69 -> 72         0.67450

 Excited State   4:      Singlet-A      5.0564 eV  245.20 nm  f=0.0002  <S**2>=0.000
      66 -> 70        -0.16742
      67 -> 71         0.13352
      68 -> 70        -0.13318
      69 -> 74         0.63125

 Excited State   5:      Singlet-A      5.0611 eV  244.97 nm  f=0.0002  <S**2>=0.000
      66 -> 71         0.17038
      67 -> 70        -0.13834
      68 -> 71        -0.13662
      69 -> 75         0.62719

 Excited State   6:      Singlet-A      5.1520 eV  240.65 nm  f=0.0085  <S**2>=0.000
      69 -> 73         0.67801

 Excited State   7:      Singlet-A      5.4268 eV  228.47 nm  f=0.0146  <S**2>=0.000
      63 -> 72        -0.16541
      64 -> 74         0.14513
      65 -> 75        -0.13313
      67 -> 70         0.43550
      68 -> 71        -0.40090
      69 -> 72        -0.16526

 Excited State   8:      Singlet-A      5.5113 eV  224.96 nm  f=0.0006  <S**2>=0.000
      63 -> 74         0.14260
      64 -> 70         0.11920
      64 -> 72        -0.21581
      65 -> 71        -0.11806
      65 -> 72        -0.18018
      66 -> 70         0.22970
      67 -> 71        -0.25175
      68 -> 70         0.28099
      68 -> 72         0.16171
      69 -> 74         0.28468

 Excited State   9:      Singlet-A      5.5180 eV  224.69 nm  f=0.0004  <S**2>=0.000
      63 -> 75         0.14494
      64 -> 71         0.10230
      64 -> 72        -0.18145
      65 -> 70         0.11578
      65 -> 72         0.21635
      66 -> 71        -0.22136
      67 -> 70         0.24486
      67 -> 72        -0.16511
      68 -> 71         0.29857
      69 -> 75         0.28935

 Excited State  10:      Singlet-A      5.6176 eV  220.71 nm  f=0.0010  <S**2>=0.000
      65 -> 71         0.10808
      67 -> 71         0.44930
      68 -> 70         0.50028

 The electronic state is 1-A.
 Alpha  occ. eigenvalues --  -77.08114 -10.19450 -10.19448 -10.19442 -10.19155
 Alpha  occ. eigenvalues --  -10.19153 -10.19132 -10.19122 -10.19121 -10.19105
 Alpha  occ. eigenvalues --  -10.19037 -10.19035 -10.19019 -10.19012 -10.19012
 Alpha  occ. eigenvalues --  -10.18997 -10.18968 -10.18967 -10.18950  -6.54844
 Alpha  occ. eigenvalues --   -4.71103  -4.71103  -4.70602  -0.85559  -0.84851
 Alpha  occ. eigenvalues --   -0.84839  -0.76667  -0.74368  -0.74365  -0.74328
 Alpha  occ. eigenvalues --   -0.73824  -0.73818  -0.64435  -0.60341  -0.60308
 Alpha  occ. eigenvalues --   -0.60300  -0.59208  -0.59205  -0.55449  -0.51438
 Alpha  occ. eigenvalues --   -0.51431  -0.49296  -0.45442  -0.45435  -0.44775
 Alpha  occ. eigenvalues --   -0.44344  -0.44343  -0.44068  -0.41947  -0.41871
 Alpha  occ. eigenvalues --   -0.41864  -0.40384  -0.40370  -0.36843  -0.36360
 Alpha  occ. eigenvalues --   -0.36343  -0.35898  -0.34254  -0.34250  -0.34222
 Alpha  occ. eigenvalues --   -0.31887  -0.31879  -0.26772  -0.25461  -0.25433
 Alpha  occ. eigenvalues --   -0.25242  -0.24707  -0.24701  -0.21149
 Alpha virt. eigenvalues --   -0.01896  -0.01865  -0.00827   0.00173   0.00413
 Alpha virt. eigenvalues --    0.00443   0.06855   0.06911   0.09491   0.11036
 Alpha virt. eigenvalues --    0.11044   0.13901   0.14526   0.14532   0.15164

 Mulliken charges:
               1
     1  P    0.450431
     2  C   -0.115053
     3  C   -0.160467
     4  C   -0.126049
     5  C   -0.159090
     6  C   -0.115525
     7  C   -0.174658
     8  C   -0.125311
     9  C   -0.162423
    10  C   -0.123021
    11  C   -0.156675
    12  C   -0.118107
    13  C   -0.176361
    14  C   -0.080289
    15  C   -0.155211
    16  C   -0.119046
    17  C   -0.120474
    18  C   -0.119324
    19  C   -0.148965
    20  H    0.123702
    21  H    0.119798
    22  H    0.115195
    23  H    0.122302
    24  H    0.125603
    25  H    0.148662
    26  H    0.124884
    27  H    0.117161
    28  H    0.120017
    29  H    0.119257
    30  H    0.151125
    31  H    0.144693
    32  H    0.148203
    33  H    0.148528
    34  H    0.176489
 Sum of Mulliken charges =  -0.00000

 Dipole moment (field-independent basis, Debye):
    X=             -0.9555    Y=             -3.7010    Z=             -0.2016  Tot=              3.8277
 Quadrupole moment (field-independent basis, Debye-Ang):
   XX=           -118.9036   YY=           -108.1667   ZZ=           -110.6605
   XY=              4.5446   XZ=              0.5440   YZ=             -1.3363

 Summary of Natural Population Analysis:

                                       Natural Population
                Natural  -----------------------------------------------
    Atom  No    Charge         Core      Valence    Rydberg      Total
 -----------------------------------------------------------------------
      P    1    1.24213      9.99750     3.71013    0.05024    13.75787
      C    2   -0.45371      1.99886     4.43041    0.02443     6.45371
      C    3   -0.21519      1.99901     4.20030    0.01588     6.21519
      C    4   -0.24990      1.99910     4.23568    0.01512     6.24990
      C    5   -0.27745      1.99910     4.26223    0.01612     6.27745
      C    6   -0.22373      1.99909     4.21030    0.01434     6.22373
      C    7   -0.26420      1.99899     4.24734    0.01788     6.26420
      C    8   -0.46750      1.99888     4.44235    0.02627     6.46750
      C    9   -0.23356      1.99899     4.21713    0.01744     6.23356
      C   10   -0.23713      1.99909     4.22341    0.01463     6.23713
      C   11   -0.27205      1.99909     4.25693    0.01602     6.27205
      C   12   -0.23558      1.99910     4.22188    0.01461     6.23558
      C   13   -0.23845      1.99902     4.22318    0.01625     6.23845
      C   14   -0.37502      1.99891     4.35129    0.02482     6.37502
      C   15   -0.20033      1.99902     4.18625    0.01506     6.20033
      C   16   -0.23538      1.99910     4.22205    0.01424     6.23538
      C   17   -0.19505      1.99909     4.18229    0.01367     6.19505
      C   18   -0.22887      1.99909     4.21576    0.01402     6.22887
      C   19   -0.20585      1.99900     4.19077    0.01608     6.20585
      H   20    0.22980      0.00000     0.76907    0.00113     0.77020
      H   21    0.23282      0.00000     0.76630    0.00088     0.76718
      H   22    0.22878      0.00000     0.77033    0.00089     0.77122
      H   23    0.23422      0.00000     0.76490    0.00088     0.76578
      H   24    0.23355      0.00000     0.76508    0.00137     0.76645
      H   25    0.24590      0.00000     0.75253    0.00157     0.75410
      H   26    0.23557      0.00000     0.76355    0.00089     0.76443
      H   27    0.22954      0.00000     0.76955    0.00091     0.77046
      H   28    0.23221      0.00000     0.76684    0.00095     0.76779
      H   29    0.22605      0.00000     0.77298    0.00097     0.77395
      H   30    0.24328      0.00000     0.75550    0.00122     0.75672
      H   31    0.24404      0.00000     0.75508    0.00089     0.75596
      H   32    0.24293      0.00000     0.75626    0.00081     0.75707
      H   33    0.24640      0.00000     0.75274    0.00086     0.75360
      H   34    0.26173      0.00000     0.73708    0.00119     0.73827
 =======================================================================
   * Total *    0.00000     45.98001    91.64746    0.37253   138.00000

 Normal termination of Gaussian 16 at Sun Dec  8 18:54:08 2019.
