 Gaussian 16, Revision A.03,

 -----------------------------------------
 # opt=CalcFc B3LYP/6-31G* scf=xqc scf=xqc
 -----------------------------------------

 -------------------
 Title Card Required
 -------------------
 Symbolic Z-matrix:
 Charge =  0 Multiplicity = 1

 SCF Done:  E(RB3LYP) =  -1036.27424483     A.U. after   14 cycles
 SCF Done:  E(RB3LYP) =  -1036.28961226     A.U. after   15 cycles
 SCF Done:  E(RB3LYP) =  -1036.27355475     A.U. after   14 cycles
 SCF Done:  E(RB3LYP) =  -1036.29209824     A.U. after   13 cycles
 SCF Done:  E(RB3LYP) =  -1036.29494021     A.U. after   14 cycles
 SCF Done:  E(RB3LYP) =  -1036.29584013     A.U. after   12 cycles
 SCF Done:  E(RB3LYP) =  -1036.29672805     A.U. after   14 cycles
 SCF Done:  E(RB3LYP) =  -1036.29758731     A.U. after   13 cycles
 SCF Done:  E(RB3LYP) =  -1036.29787838     A.U. after   12 cycles
 SCF Done:  E(RB3LYP) =  -1036.29795436     A.U. after   12 cycles
 SCF Done:  E(RB3LYP) =  -1036.29823088     A.U. after    9 cycles
 SCF Done:  E(RB3LYP) =  -1036.29823270     A.U. after    9 cycles
 SCF Done:  E(RB3LYP) =  -1036.29822985     A.U. after    7 cycles
 SCF Done:  E(RB3LYP) =  -1036.29823788     A.U. after    8 cycles
 SCF Done:  E(RB3LYP) =  -1036.29654024     A.U. after   12 cycles
 SCF Done:  E(RB3LYP) =  -1036.29771358     A.U. after   11 cycles
 SCF Done:  E(RB3LYP) =  -1036.29709596     A.U. after   12 cycles
 SCF Done:  E(RB3LYP) =  -1036.29823836     A.U. after    8 cycles
 Optimization completed.
    -- Stationary point found.
 Normal termination of Gaussian 16 at Sun Dec  8 18:33:57 2019.

 ----------------------------------------------------------------------
 # freq B3LYP/6-31G* scf=xqc volume NMR pop=NPA density=current Geom=Al
 lCheck Guess=Read
 ----------------------------------------------------------------------

 Structure from the checkpoint file:  "direct_arylation_ligand38_conf22.chk"
 -------------------
 Title Card Required
 -------------------
 Charge =  0 Multiplicity = 1

 SCF Done:  E(RB3LYP) =  -1036.29823836     A.U. after    1 cycles

      1  P    Isotropic =   361.6937   Anisotropy =    40.0628

      2  C    Isotropic =    56.1238   Anisotropy =   179.4369

      3  C    Isotropic =    61.0380   Anisotropy =   164.1646

      4  C    Isotropic =    68.7291   Anisotropy =   164.1197

      5  C    Isotropic =    68.1649   Anisotropy =   167.2882

      6  C    Isotropic =    68.6780   Anisotropy =   163.8920

      7  C    Isotropic =    62.6198   Anisotropy =   174.0501

      8  C    Isotropic =    56.0918   Anisotropy =   179.4566

      9  C    Isotropic =    62.5718   Anisotropy =   174.0332

     10  C    Isotropic =    68.6808   Anisotropy =   163.8769

     11  C    Isotropic =    68.1604   Anisotropy =   167.3320

     12  C    Isotropic =    68.7236   Anisotropy =   164.1432

     13  C    Isotropic =    61.0116   Anisotropy =   164.0981

     14  C    Isotropic =    56.1688   Anisotropy =   179.4539

     15  C    Isotropic =    60.9804   Anisotropy =   164.0977

     16  C    Isotropic =    68.7247   Anisotropy =   164.1236

     17  C    Isotropic =    68.1524   Anisotropy =   167.3261

     18  C    Isotropic =    68.6749   Anisotropy =   163.8948

     19  C    Isotropic =    62.5500   Anisotropy =   174.1283

     20  H    Isotropic =    24.6134   Anisotropy =     9.2613

     21  H    Isotropic =    24.9283   Anisotropy =     4.5884

     22  H    Isotropic =    25.0226   Anisotropy =     3.6394

     23  H    Isotropic =    25.0479   Anisotropy =     6.0881

     24  H    Isotropic =    25.4019   Anisotropy =    12.2376

     25  H    Isotropic =    25.3996   Anisotropy =    12.2210

     26  H    Isotropic =    25.0480   Anisotropy =     6.0857

     27  H    Isotropic =    25.0208   Anisotropy =     3.6414

     28  H    Isotropic =    24.9263   Anisotropy =     4.5912

     29  H    Isotropic =    24.6128   Anisotropy =     9.2510

     30  H    Isotropic =    24.6086   Anisotropy =     9.2450

     31  H    Isotropic =    24.9275   Anisotropy =     4.5844

     32  H    Isotropic =    25.0211   Anisotropy =     3.6390

     33  H    Isotropic =    25.0465   Anisotropy =     6.0868

     34  H    Isotropic =    25.3919   Anisotropy =    12.2225

  Exact polarizability: 224.186  -0.096 224.003   0.078   0.080 165.123
 Approx polarizability: 330.976  -0.228 330.641   0.186   0.186 308.203

                      1                      2                      3
                      A                      A                      A
 Frequencies --     24.5544                25.5339                39.1392
 Red. masses --      3.7994                 3.8058                 3.6907
 Frc consts  --      0.0013                 0.0015                 0.0033
 IR Inten    --      0.2809                 0.2806                 0.0024

                      4                      5                      6
                      A                      A                      A
 Frequencies --     53.4740                53.6268                70.8463
 Red. masses --      5.2511                 5.2404                 5.1673
 Frc consts  --      0.0088                 0.0089                 0.0153
 IR Inten    --      0.0875                 0.0886                 0.3096

                      7                      8                      9
                      A                      A                      A
 Frequencies --    181.7670               202.6176               202.8295
 Red. masses --      4.5616                 4.6402                 4.6420
 Frc consts  --      0.0888                 0.1122                 0.1125
 IR Inten    --      0.3530                 1.1272                 1.1286

                     10                     11                     12
                      A                      A                      A
 Frequencies --    245.5624               259.6977               260.2609
 Red. masses --      5.7394                 4.7200                 4.7270
 Frc consts  --      0.2039                 0.1876                 0.1886
 IR Inten    --      0.4826                 0.2298                 0.2288

                     13                     14                     15
                      A                      A                      A
 Frequencies --    408.9697               409.0191               412.4664
 Red. masses --      3.0823                 3.0819                 3.6191
 Frc consts  --      0.3037                 0.3038                 0.3628
 IR Inten    --      1.9756                 1.9824                 0.1652

                     16                     17                     18
                      A                      A                      A
 Frequencies --    417.1486               429.4150               429.6489
 Red. masses --      4.5774                 7.3128                 7.3113
 Frc consts  --      0.4693                 0.7945                 0.7952
 IR Inten    --      0.5604                 7.6947                 7.7383

                     19                     20                     21
                      A                      A                      A
 Frequencies --    509.5506               509.7238               516.4530
 Red. masses --      4.2463                 4.2462                 4.5910
 Frc consts  --      0.6496                 0.6500                 0.7215
 IR Inten    --     26.0730                26.0982                11.9320

                     22                     23                     24
                      A                      A                      A
 Frequencies --    632.7468               632.7646               633.3970
 Red. masses --      6.4273                 6.4273                 6.4371
 Frc consts  --      1.5161                 1.5162                 1.5216
 IR Inten    --      0.1810                 0.1830                 0.0167

                     25                     26                     27
                      A                      A                      A
 Frequencies --    691.8363               705.1720               705.2405
 Red. masses --      6.5805                 5.7898                 5.7561
 Frc consts  --      1.8557                 1.6963                 1.6867
 IR Inten    --      0.7941                 1.1349                 1.0965

                     28                     29                     30
                      A                      A                      A
 Frequencies --    712.4010               712.5069               713.4144
 Red. masses --      2.1980                 2.1904                 2.1365
 Frc consts  --      0.6572                 0.6552                 0.6407
 IR Inten    --     26.4154                26.4599                16.5934

                     31                     32                     33
                      A                      A                      A
 Frequencies --    761.4067               762.8980               762.9412
 Red. masses --      1.6145                 1.6487                 1.6482
 Frc consts  --      0.5515                 0.5654                 0.5652
 IR Inten    --     19.1765                25.0092                24.8380

                     34                     35                     36
                      A                      A                      A
 Frequencies --    866.3514               866.4519               868.9017
 Red. masses --      1.2476                 1.2475                 1.2461
 Frc consts  --      0.5517                 0.5518                 0.5543
 IR Inten    --      0.2221                 0.2137                 0.1306

                     37                     38                     39
                      A                      A                      A
 Frequencies --    933.0313               933.1661               934.3750
 Red. masses --      1.3438                 1.3437                 1.3382
 Frc consts  --      0.6893                 0.6894                 0.6884
 IR Inten    --      1.2520                 1.2695                 0.0391

                     40                     41                     42
                      A                      A                      A
 Frequencies --    975.9821               976.0756               977.8059
 Red. masses --      1.3609                 1.3608                 1.3552
 Frc consts  --      0.7638                 0.7639                 0.7634
 IR Inten    --      0.0156                 0.0147                 0.1382

                     43                     44                     45
                      A                      A                      A
 Frequencies --   1000.4226              1000.4653              1001.1794
 Red. masses --      1.2540                 1.2539                 1.2523
 Frc consts  --      0.7395                 0.7395                 0.7396
 IR Inten    --      0.0768                 0.0834                 0.0006

                     46                     47                     48
                      A                      A                      A
 Frequencies --   1015.3527              1015.4117              1015.7668
 Red. masses --      6.3141                 6.3113                 6.3098
 Frc consts  --      3.8353                 3.8340                 3.8358
 IR Inten    --      4.3210                 4.3764                 0.0940

                     49                     50                     51
                      A                      A                      A
 Frequencies --   1052.7249              1052.7848              1052.9268
 Red. masses --      3.3108                 3.3212                 3.2533
 Frc consts  --      2.1618                 2.1688                 2.1250
 IR Inten    --      2.0743                 2.0765                 0.0475

                     52                     53                     54
                      A                      A                      A
 Frequencies --   1107.7861              1108.1428              1109.4784
 Red. masses --      1.9083                 1.8833                 1.6545
 Frc consts  --      1.3797                 1.3626                 1.1999
 IR Inten    --      4.6952                 4.2318                 2.9641

                     55                     56                     57
                      A                      A                      A
 Frequencies --   1110.8056              1110.9116              1115.8983
 Red. masses --      2.1633                 2.1847                 2.6114
 Frc consts  --      1.5727                 1.5886                 1.9159
 IR Inten    --      9.1188                 9.2808                 1.1327

                     58                     59                     60
                      A                      A                      A
 Frequencies --   1193.5235              1193.9510              1193.9933
 Red. masses --      1.1034                 1.1000                 1.1001
 Frc consts  --      0.9261                 0.9239                 0.9240
 IR Inten    --      0.0013                 0.1297                 0.1262

                     61                     62                     63
                      A                      A                      A
 Frequencies --   1219.1876              1219.6323              1220.7622
 Red. masses --      1.1475                 1.1479                 1.1473
 Frc consts  --      1.0050                 1.0061                 1.0073
 IR Inten    --      5.9016                 6.0831                 0.4690

                     64                     65                     66
                      A                      A                      A
 Frequencies --   1325.0357              1328.6928              1328.9663
 Red. masses --      3.4832                 3.4822                 3.5367
 Frc consts  --      3.6032                 3.6221                 3.6803
 IR Inten    --      2.6458                 2.4233                 2.4571

                     67                     68                     69
                      A                      A                      A
 Frequencies --   1365.0428              1365.4853              1365.6105
 Red. masses --      1.6632                 1.6451                 1.6405
 Frc consts  --      1.8260                 1.8072                 1.8026
 IR Inten    --      0.6841                 0.7962                 1.9218

                     70                     71                     72
                      A                      A                      A
 Frequencies --   1480.5640              1481.0000              1481.0822
 Red. masses --      2.1107                 2.1151                 2.1165
 Frc consts  --      2.7260                 2.7333                 2.7354
 IR Inten    --     16.7051                 6.5639                 6.6163

                     73                     74                     75
                      A                      A                      A
 Frequencies --   1531.0658              1531.5897              1531.7247
 Red. masses --      2.0158                 1.9986                 1.9969
 Frc consts  --      2.7840                 2.7622                 2.7604
 IR Inten    --      2.0134                10.1072                10.1765

                     76                     77                     78
                      A                      A                      A
 Frequencies --   1630.1880              1630.4668              1630.4796
 Red. masses --      5.1021                 5.1112                 5.1125
 Frc consts  --      7.9887                 8.0056                 8.0078
 IR Inten    --      0.3957                 0.0455                 0.0456

                     79                     80                     81
                      A                      A                      A
 Frequencies --   1646.1785              1646.2054              1647.9781
 Red. masses --      5.2713                 5.2681                 5.2823
 Frc consts  --      8.4163                 8.4115                 8.4523
 IR Inten    --      3.4872                 3.5331                 0.3222

                     82                     83                     84
                      A                      A                      A
 Frequencies --   3176.1163              3176.1358              3176.1867
 Red. masses --      1.0854                 1.0853                 1.0853
 Frc consts  --      6.4508                 6.4508                 6.4510
 IR Inten    --      2.2246                 1.8470                 1.8866

                     85                     86                     87
                      A                      A                      A
 Frequencies --   3182.6695              3182.7137              3182.7962
 Red. masses --      1.0875                 1.0875                 1.0876
 Frc consts  --      6.4903                 6.4905                 6.4913
 IR Inten    --      0.7463                 0.7037                 0.2552

                     88                     89                     90
                      A                      A                      A
 Frequencies --   3192.8602              3192.8892              3193.0134
 Red. masses --      1.0916                 1.0917                 1.0917
 Frc consts  --      6.5568                 6.5570                 6.5580
 IR Inten    --     10.2978                11.8109                46.2110

                     91                     92                     93
                      A                      A                      A
 Frequencies --   3203.8998              3203.9996              3204.3646
 Red. masses --      1.0941                 1.0942                 1.0943
 Frc consts  --      6.6169                 6.6181                 6.6201
 IR Inten    --     40.5312                42.0855                 5.3256

                     94                     95                     96
                      A                      A                      A
 Frequencies --   3210.0686              3210.2527              3211.0979
 Red. masses --      1.0957                 1.0955                 1.0955
 Frc consts  --      6.6523                 6.6519                 6.6555
 IR Inten    --     20.1725                19.0966                16.3527

 - Thermochemistry -
 -------------------
 Temperature   298.150 Kelvin.  Pressure   1.00000 Atm.
 Atom     1 has atomic number 15 and mass  30.97376

 Molecular mass:   262.09114 amu.
 Principal axes and moments of inertia in atomic units:
                           1         2         3
     Eigenvalues --  5161.444335165.122168680.07536
           X            0.99957  -0.02927   0.00002
           Y            0.02927   0.99957   0.00002
           Z           -0.00002  -0.00002   1.00000
 This molecule is an asymmetric top.
 Rotational symmetry number  1.
 Warning -- assumption of classical behavior for rotation
           may cause significant error
 Rotational temperatures (Kelvin)      0.01678     0.01677     0.00998
 Rotational constants (GHZ):           0.34966     0.34941     0.20792
 Zero-point vibrational energy     720024.5 (Joules/Mol)
                                  172.08999 (Kcal/Mol)
 Warning -- explicit consideration of  21 degrees of freedom as
           vibrations may cause significant error
 Vibrational temperatures:     35.33    36.74    56.31    76.94    77.16
          (Kelvin)            101.93   261.52   291.52   291.83   353.31
                              373.65   374.46   588.42   588.49   593.45
                              600.18   617.83   618.17   733.13   733.38
                              743.06   910.38   910.41   911.32   995.40
                             1014.59  1014.68  1024.99  1025.14  1026.44
                             1095.49  1097.64  1097.70  1246.49  1246.63
                             1250.16  1342.42  1342.62  1344.36  1404.22
                             1404.36  1406.84  1439.39  1439.45  1440.47
                             1460.87  1460.95  1461.46  1514.64  1514.72
                             1514.93  1593.86  1594.37  1596.29  1598.20
                             1598.35  1605.53  1717.21  1717.83  1717.89
                             1754.14  1754.78  1756.40  1906.43  1911.69
                             1912.09  1963.99  1964.63  1964.81  2130.20
                             2130.83  2130.95  2202.86  2203.62  2203.81
                             2345.48  2345.88  2345.90  2368.48  2368.52
                             2371.07  4569.72  4569.75  4569.82  4579.15
                             4579.22  4579.33  4593.81  4593.86  4594.03
                             4609.70  4609.84  4610.37  4618.57  4618.84
                             4620.05

 Zero-point correction=                           0.274243 (Hartree/Particle)
 Thermal correction to Energy=                    0.290151
 Thermal correction to Enthalpy=                  0.291095
 Thermal correction to Gibbs Free Energy=         0.227936
 Sum of electronic and zero-point Energies=          -1036.023996
 Sum of electronic and thermal Energies=             -1036.008087
 Sum of electronic and thermal Enthalpies=           -1036.007143
 Sum of electronic and thermal Free Energies=        -1036.070302

                     E (Thermal)             CV                S
                      KCal/Mol        Cal/Mol-Kelvin    Cal/Mol-Kelvin
 Total                  182.072             62.529            132.930
 Electronic               0.000              0.000              0.000
 Translational            0.889              2.981             42.590
 Rotational               0.889              2.981             33.803
 Vibrational            180.295             56.567             56.537
 Vibration     1          0.593              1.985              6.227
 Vibration     2          0.593              1.985              6.149
 Vibration     3          0.594              1.981              5.302
 Vibration     4          0.596              1.976              4.685
 Vibration     5          0.596              1.976              4.679
 Vibration     6          0.598              1.968              4.130
 Vibration     7          0.630              1.865              2.310
 Vibration     8          0.639              1.836              2.109
 Vibration     9          0.639              1.836              2.107
 Vibration    10          0.660              1.770              1.762
 Vibration    11          0.668              1.746              1.664
 Vibration    12          0.668              1.745              1.660
 Vibration    13          0.773              1.451              0.930
 Vibration    14          0.773              1.451              0.930
 Vibration    15          0.776              1.443              0.918
 Vibration    16          0.780              1.433              0.902
 Vibration    17          0.791              1.406              0.861
 Vibration    18          0.791              1.406              0.860
 Vibration    19          0.865              1.229              0.635
 Vibration    20          0.865              1.228              0.634
 Vibration    21          0.871              1.214              0.618

                           ! Non-Optimized Parameters !
 Normal termination of Gaussian 16 at Sun Dec  8 18:49:44 2019.
 Gaussian 16:  ES64L-G16RevA.03 25-Dec-2016

 ----------------------------------------------------------------------
 # TD(NStates=10, Root=1) B3LYP/6-31G* scf=xqc volume pop=NPA density=c
 urrent Geom=AllCheck Guess=Read
 ----------------------------------------------------------------------

 Structure from the checkpoint file:  "direct_arylation_ligand38_conf23.chk"
 -------------------
 Title Card Required
 -------------------
 Charge =  0 Multiplicity = 1

                         Standard orientation:
 ---------------------------------------------------------------------
 Center     Atomic      Atomic             Coordinates (Angstroms)
 Number     Number       Type             X           Y           Z
 ---------------------------------------------------------------------
      1         15           0       -0.000214    0.000350   -1.206568
      2          6           0        1.214705    1.147466   -0.402906
      3          6           0        2.463574    1.290294   -1.031164
      4          6           0        3.436863    2.139464   -0.505174
      5          6           0        3.170419    2.876735    0.650545
      6          6           0        1.928892    2.755301    1.276552
      7          6           0        0.958653    1.895980    0.756092
      8          6           0        0.386259   -1.625078   -0.402559
      9          6           0        1.158303   -1.776397    0.759428
     10          6           0        1.417600   -3.045907    1.280707
     11          6           0        0.906404   -4.182613    0.652474
     12          6           0        0.138928   -4.045904   -0.506183
     13          6           0       -0.110088   -2.778754   -1.032907
     14          6           0       -1.601060    0.478195   -0.402423
     15          6           0       -2.354341    1.481626   -1.035125
     16          6           0       -3.576619    1.898827   -0.508662
     17          6           0       -4.076667    1.305053    0.652181
     18          6           0       -3.345390    0.297308    1.282903
     19          6           0       -2.116020   -0.112175    0.761817
     20          1           0        2.671539    0.734308   -1.942625
     21          1           0        4.398389    2.233707   -1.003284
     22          1           0        3.923679    3.546774    1.056671
     23          1           0        1.712957    3.329893    2.173867
     24          1           0       -0.003442    1.811003    1.252302
     25          1           0        1.562175   -0.899949    1.257228
     26          1           0        2.019834   -3.145314    2.180369
     27          1           0        1.110222   -5.169684    1.059218
     28          1           0       -0.256711   -4.926361   -1.005973
     29          1           0       -0.692216   -2.681667   -1.946591
     30          1           0       -1.980742    1.935145   -1.950474
     31          1           0       -4.143171    2.679112   -1.010356
     32          1           0       -5.033689    1.621475    1.058727
     33          1           0       -3.730982   -0.172548    2.184297
     34          1           0       -1.557115   -0.897667    1.261559
 ---------------------------------------------------------------------

 SCF Done:  E(RB3LYP) =  -1036.29823836     A.U. after    1 cycles

 Excitation energies and oscillator strengths:

 Excited State   1:      Singlet-A      4.5091 eV  274.97 nm  f=0.1272  <S**2>=0.000
      69 -> 70         0.69696
 This state for optimization and/or second-order correction.
 Total Energy, E(TD-HF/TD-DFT) =  -1036.13253293
 Copying the excited state density for this state as the 1-particle RhoCI density.

 Excited State   2:      Singlet-A      4.5122 eV  274.77 nm  f=0.1284  <S**2>=0.000
      69 -> 71         0.69691

 Excited State   3:      Singlet-A      4.7578 eV  260.59 nm  f=0.0022  <S**2>=0.000
      67 -> 70         0.12300
      68 -> 71        -0.12364
      69 -> 72         0.67460

 Excited State   4:      Singlet-A      5.0577 eV  245.14 nm  f=0.0002  <S**2>=0.000
      66 -> 70        -0.16585
      67 -> 70        -0.11978
      68 -> 71        -0.11913
      69 -> 74         0.62977

 Excited State   5:      Singlet-A      5.0588 eV  245.08 nm  f=0.0002  <S**2>=0.000
      66 -> 71        -0.16672
      67 -> 71         0.12080
      68 -> 70        -0.12054
      69 -> 75         0.62906

 Excited State   6:      Singlet-A      5.1514 eV  240.68 nm  f=0.0085  <S**2>=0.000
      69 -> 73         0.67907

 Excited State   7:      Singlet-A      5.4272 eV  228.45 nm  f=0.0146  <S**2>=0.000
      63 -> 72        -0.16611
      64 -> 74         0.14415
      65 -> 75         0.14100
      67 -> 70         0.42476
      68 -> 71        -0.41527
      69 -> 72        -0.16537

 Excited State   8:      Singlet-A      5.5137 eV  224.87 nm  f=0.0005  <S**2>=0.000
      63 -> 74         0.14364
      64 -> 70        -0.10052
      64 -> 72        -0.22360
      64 -> 75         0.11337
      65 -> 72        -0.17247
      65 -> 74         0.11168
      66 -> 70         0.22682
      67 -> 70         0.24918
      68 -> 71         0.26070
      68 -> 72         0.16321
      69 -> 74         0.28658

 Excited State   9:      Singlet-A      5.5152 eV  224.81 nm  f=0.0004  <S**2>=0.000
      63 -> 75         0.14429
      64 -> 72         0.17299
      64 -> 74         0.11104
      65 -> 72        -0.22372
      65 -> 75        -0.11221
      66 -> 71         0.22494
      67 -> 71        -0.25393
      67 -> 72         0.16399
      68 -> 70         0.25971
      69 -> 75         0.28791

 Excited State  10:      Singlet-A      5.6179 eV  220.69 nm  f=0.0009  <S**2>=0.000
      67 -> 71         0.47348
      68 -> 70         0.48470

 The electronic state is 1-A.
 Alpha  occ. eigenvalues --  -77.08112 -10.19448 -10.19446 -10.19446 -10.19150
 Alpha  occ. eigenvalues --  -10.19146 -10.19143 -10.19119 -10.19116 -10.19115
 Alpha  occ. eigenvalues --  -10.19033 -10.19030 -10.19028 -10.19009 -10.19007
 Alpha  occ. eigenvalues --  -10.19005 -10.18964 -10.18961 -10.18959  -6.54843
 Alpha  occ. eigenvalues --   -4.71102  -4.71102  -4.70601  -0.85559  -0.84847
 Alpha  occ. eigenvalues --   -0.84844  -0.76669  -0.74366  -0.74365  -0.74329
 Alpha  occ. eigenvalues --   -0.73821  -0.73820  -0.64436  -0.60337  -0.60307
 Alpha  occ. eigenvalues --   -0.60305  -0.59207  -0.59206  -0.55448  -0.51436
 Alpha  occ. eigenvalues --   -0.51434  -0.49296  -0.45440  -0.45439  -0.44774
 Alpha  occ. eigenvalues --   -0.44344  -0.44344  -0.44068  -0.41947  -0.41869
 Alpha  occ. eigenvalues --   -0.41867  -0.40380  -0.40376  -0.36843  -0.36353
 Alpha  occ. eigenvalues --   -0.36349  -0.35898  -0.34252  -0.34251  -0.34224
 Alpha  occ. eigenvalues --   -0.31885  -0.31882  -0.26773  -0.25451  -0.25444
 Alpha  occ. eigenvalues --   -0.25242  -0.24704  -0.24703  -0.21146
 Alpha virt. eigenvalues --   -0.01884  -0.01876  -0.00829   0.00173   0.00424
 Alpha virt. eigenvalues --    0.00432   0.06876   0.06892   0.09492   0.11038
 Alpha virt. eigenvalues --    0.11040   0.13902   0.14528   0.14530   0.15165

 Mulliken charges:
               1
     1  P    0.450583
     2  C   -0.091731
     3  C   -0.163947
     4  C   -0.116929
     5  C   -0.126406
     6  C   -0.122226
     7  C   -0.148123
     8  C   -0.094992
     9  C   -0.164895
    10  C   -0.115519
    11  C   -0.140888
    12  C   -0.124576
    13  C   -0.153762
    14  C   -0.134265
    15  C   -0.174517
    16  C   -0.121575
    17  C   -0.168880
    18  C   -0.120302
    19  C   -0.172661
    20  H    0.143595
    21  H    0.139943
    22  H    0.142876
    23  H    0.144824
    24  H    0.178053
    25  H    0.143656
    26  H    0.134356
    27  H    0.130800
    28  H    0.132045
    29  H    0.138481
    30  H    0.111996
    31  H    0.112540
    32  H    0.106872
    33  H    0.116505
    34  H    0.129069
 Sum of Mulliken charges =  -0.00000

 Dipole moment (field-independent basis, Debye):
    X=              3.7750    Y=              0.1647    Z=             -0.1975  Tot=              3.7837
 Quadrupole moment (field-independent basis, Debye-Ang):
   XX=           -117.5985   YY=           -109.4765   ZZ=           -110.6548
   XY=              5.7506   XZ=              1.0703   YZ=              0.8521

 Summary of Natural Population Analysis:

                                       Natural Population
                Natural  -----------------------------------------------
    Atom  No    Charge         Core      Valence    Rydberg      Total
 -----------------------------------------------------------------------
      P    1    1.24225      9.99750     3.71000    0.05024    13.75775
      C    2   -0.39648      1.99890     4.37192    0.02566     6.39648
      C    3   -0.21415      1.99902     4.19971    0.01542     6.21415
      C    4   -0.23189      1.99910     4.21861    0.01418     6.23189
      C    5   -0.20780      1.99909     4.19461    0.01410     6.20780
      C    6   -0.23422      1.99909     4.22090    0.01423     6.23422
      C    7   -0.20292      1.99900     4.18767    0.01625     6.20292
      C    8   -0.41096      1.99888     4.38801    0.02407     6.41096
      C    9   -0.24322      1.99899     4.22711    0.01712     6.24322
      C   10   -0.22297      1.99909     4.20976    0.01412     6.22297
      C   11   -0.23881      1.99909     4.22471    0.01501     6.23881
      C   12   -0.24619      1.99910     4.23226    0.01484     6.24619
      C   13   -0.20206      1.99901     4.18764    0.01540     6.20206
      C   14   -0.48911      1.99886     4.46446    0.02578     6.48911
      C   15   -0.23804      1.99901     4.22263    0.01640     6.23804
      C   16   -0.24258      1.99910     4.22852    0.01496     6.24258
      C   17   -0.29794      1.99910     4.28213    0.01672     6.29794
      C   18   -0.23282      1.99909     4.21906    0.01466     6.23282
      C   19   -0.25691      1.99899     4.23991    0.01802     6.25691
      H   20    0.23882      0.00000     0.76005    0.00113     0.76118
      H   21    0.24155      0.00000     0.75753    0.00093     0.75845
      H   22    0.24063      0.00000     0.75853    0.00085     0.75937
      H   23    0.24477      0.00000     0.75437    0.00087     0.75523
      H   24    0.26244      0.00000     0.73626    0.00129     0.73756
      H   25    0.24364      0.00000     0.75507    0.00129     0.75636
      H   26    0.23978      0.00000     0.75934    0.00088     0.76022
      H   27    0.23553      0.00000     0.76360    0.00087     0.76447
      H   28    0.23855      0.00000     0.76058    0.00087     0.76145
      H   29    0.23758      0.00000     0.76119    0.00123     0.76242
      H   30    0.22275      0.00000     0.77629    0.00096     0.77725
      H   31    0.22897      0.00000     0.77011    0.00093     0.77103
      H   32    0.22510      0.00000     0.77400    0.00090     0.77490
      H   33    0.23162      0.00000     0.76750    0.00088     0.76838
      H   34    0.23509      0.00000     0.76336    0.00155     0.76491
 =======================================================================
   * Total *   -0.00000     45.98001    91.64741    0.37259   138.00000

 Normal termination of Gaussian 16 at Sun Dec  8 19:06:17 2019.
