 Gaussian 16, Revision A.03,

 -----------------------------------------
 # opt=CalcFc B3LYP/6-31G* scf=xqc scf=xqc
 -----------------------------------------

 -------------------
 Title Card Required
 -------------------
 Symbolic Z-matrix:
 Charge =  0 Multiplicity = 1

 SCF Done:  E(RB3LYP) =  -1036.28110493     A.U. after   14 cycles
 SCF Done:  E(RB3LYP) =  -1036.28352250     A.U. after   14 cycles
 SCF Done:  E(RB3LYP) =  -1036.28214151     A.U. after   14 cycles
 SCF Done:  E(RB3LYP) =  -1036.29267376     A.U. after   13 cycles
 SCF Done:  E(RB3LYP) =  -1036.29547529     A.U. after   14 cycles
 SCF Done:  E(RB3LYP) =  -1036.28849178     A.U. after   15 cycles
 SCF Done:  E(RB3LYP) =  -1036.28532854     A.U. after   13 cycles
 SCF Done:  E(RB3LYP) =  -1036.26432606     A.U. after   14 cycles
 SCF Done:  E(RB3LYP) =  -1036.27700456     A.U. after   12 cycles
 SCF Done:  E(RB3LYP) =  -1036.28515003     A.U. after   12 cycles
 SCF Done:  E(RB3LYP) =  -1036.29823178     A.U. after    8 cycles
 SCF Done:  E(RB3LYP) =  -1036.29823178     A.U. after    7 cycles
 SCF Done:  E(RB3LYP) =  -1036.29823394     A.U. after    8 cycles
 SCF Done:  E(RB3LYP) =  -1036.29821903     A.U. after   11 cycles
 SCF Done:  E(RB3LYP) =  -1036.29823137     A.U. after   11 cycles
 SCF Done:  E(RB3LYP) =  -1036.29823233     A.U. after    9 cycles
 SCF Done:  E(RB3LYP) =  -1036.29822987     A.U. after    7 cycles
 SCF Done:  E(RB3LYP) =  -1036.29823003     A.U. after    7 cycles
 Optimization completed.
    -- Stationary point found.
 Normal termination of Gaussian 16 at Sun Dec  8 18:35:52 2019.

 ----------------------------------------------------------------------
 # freq B3LYP/6-31G* scf=xqc volume NMR pop=NPA density=current Geom=Al
 lCheck Guess=Read
 ----------------------------------------------------------------------

 Structure from the checkpoint file:  "direct_arylation_ligand38_conf152.chk"
 -------------------
 Title Card Required
 -------------------
 Charge =  0 Multiplicity = 1

 SCF Done:  E(RB3LYP) =  -1036.29823003     A.U. after    1 cycles

      1  P    Isotropic =   361.5728   Anisotropy =    39.8244

      2  C    Isotropic =    56.1016   Anisotropy =   179.4828

      3  C    Isotropic =    60.9824   Anisotropy =   164.0676

      4  C    Isotropic =    68.7153   Anisotropy =   164.1307

      5  C    Isotropic =    68.1397   Anisotropy =   167.3450

      6  C    Isotropic =    68.6850   Anisotropy =   163.8817

      7  C    Isotropic =    62.5532   Anisotropy =   174.0595

      8  C    Isotropic =    56.1999   Anisotropy =   179.4095

      9  C    Isotropic =    62.5444   Anisotropy =   174.1411

     10  C    Isotropic =    68.6723   Anisotropy =   163.9015

     11  C    Isotropic =    68.1499   Anisotropy =   167.3628

     12  C    Isotropic =    68.7241   Anisotropy =   164.1385

     13  C    Isotropic =    60.9690   Anisotropy =   164.1022

     14  C    Isotropic =    56.0784   Anisotropy =   179.4750

     15  C    Isotropic =    61.0741   Anisotropy =   164.2092

     16  C    Isotropic =    68.7354   Anisotropy =   164.0933

     17  C    Isotropic =    68.1938   Anisotropy =   167.2413

     18  C    Isotropic =    68.6832   Anisotropy =   163.8846

     19  C    Isotropic =    62.6576   Anisotropy =   174.0332

     20  H    Isotropic =    24.6090   Anisotropy =     9.2452

     21  H    Isotropic =    24.9264   Anisotropy =     4.5883

     22  H    Isotropic =    25.0206   Anisotropy =     3.6415

     23  H    Isotropic =    25.0474   Anisotropy =     6.0844

     24  H    Isotropic =    25.3953   Anisotropy =    12.2067

     25  H    Isotropic =    25.3903   Anisotropy =    12.2237

     26  H    Isotropic =    25.0457   Anisotropy =     6.0871

     27  H    Isotropic =    25.0184   Anisotropy =     3.6430

     28  H    Isotropic =    24.9245   Anisotropy =     4.5872

     29  H    Isotropic =    24.6091   Anisotropy =     9.2432

     30  H    Isotropic =    24.6170   Anisotropy =     9.2726

     31  H    Isotropic =    24.9326   Anisotropy =     4.5855

     32  H    Isotropic =    25.0267   Anisotropy =     3.6304

     33  H    Isotropic =    25.0497   Anisotropy =     6.0878

     34  H    Isotropic =    25.4036   Anisotropy =    12.2546

  Exact polarizability: 224.333  -0.146 223.867  -0.056   0.214 165.118
 Approx polarizability: 331.282  -0.339 330.348  -0.124   0.507 308.192

                      1                      2                      3
                      A                      A                      A
 Frequencies --     21.6668                22.4956                37.9482
 Red. masses --      3.7967                 3.7941                 3.6894
 Frc consts  --      0.0011                 0.0011                 0.0031
 IR Inten    --      0.2834                 0.2804                 0.0021

                      4                      5                      6
                      A                      A                      A
 Frequencies --     53.1662                53.2581                70.6211
 Red. masses --      5.2557                 5.2526                 5.1670
 Frc consts  --      0.0088                 0.0088                 0.0152
 IR Inten    --      0.0823                 0.0864                 0.3093

                      7                      8                      9
                      A                      A                      A
 Frequencies --    181.5222               202.2032               202.7860
 Red. masses --      4.5616                 4.6431                 4.6393
 Frc consts  --      0.0886                 0.1118                 0.1124
 IR Inten    --      0.3522                 1.1331                 1.1391

                     10                     11                     12
                      A                      A                      A
 Frequencies --    245.5669               259.6814               260.0919
 Red. masses --      5.7406                 4.7193                 4.7231
 Frc consts  --      0.2040                 0.1875                 0.1882
 IR Inten    --      0.4833                 0.2221                 0.2260

                     13                     14                     15
                      A                      A                      A
 Frequencies --    408.7388               408.7788               412.3595
 Red. masses --      3.0803                 3.0770                 3.5917
 Frc consts  --      0.3032                 0.3029                 0.3598
 IR Inten    --      1.9875                 1.9419                 0.1584

                     16                     17                     18
                      A                      A                      A
 Frequencies --    417.0863               429.2855               429.5912
 Red. masses --      4.6178                 7.3161                 7.3089
 Frc consts  --      0.4733                 0.7944                 0.7947
 IR Inten    --      0.5644                 7.6783                 7.7303

                     19                     20                     21
                      A                      A                      A
 Frequencies --    509.3387               509.6619               516.2861
 Red. masses --      4.2496                 4.2439                 4.5912
 Frc consts  --      0.6495                 0.6495                 0.7210
 IR Inten    --     26.0947                26.1614                11.9574

                     22                     23                     24
                      A                      A                      A
 Frequencies --    632.7215               632.7450               633.3606
 Red. masses --      6.4271                 6.4273                 6.4369
 Frc consts  --      1.5160                 1.5161                 1.5213
 IR Inten    --      0.1814                 0.1813                 0.0158

                     25                     26                     27
                      A                      A                      A
 Frequencies --    691.8669               705.0614               705.2317
 Red. masses --      6.5802                 5.7159                 5.7122
 Frc consts  --      1.8558                 1.6741                 1.6738
 IR Inten    --      0.7803                 1.1860                 1.1981

                     28                     29                     30
                      A                      A                      A
 Frequencies --    712.2222               712.2968               713.2539
 Red. masses --      2.1992                 2.2028                 2.1352
 Frc consts  --      0.6573                 0.6585                 0.6400
 IR Inten    --     26.3146                26.4521                16.5232

                     31                     32                     33
                      A                      A                      A
 Frequencies --    761.3656               762.8088               762.9452
 Red. masses --      1.6141                 1.6474                 1.6508
 Frc consts  --      0.5513                 0.5648                 0.5661
 IR Inten    --     19.2037                24.9894                24.8060

                     34                     35                     36
                      A                      A                      A
 Frequencies --    866.1777               866.2141               868.7759
 Red. masses --      1.2478                 1.2478                 1.2462
 Frc consts  --      0.5516                 0.5516                 0.5542
 IR Inten    --      0.2280                 0.2241                 0.1318

                     37                     38                     39
                      A                      A                      A
 Frequencies --    932.8314               932.9376               934.2402
 Red. masses --      1.3444                 1.3441                 1.3385
 Frc consts  --      0.6893                 0.6893                 0.6883
 IR Inten    --      1.2638                 1.2625                 0.0295

                     40                     41                     42
                      A                      A                      A
 Frequencies --    975.8048               975.8407               977.6643
 Red. masses --      1.3614                 1.3612                 1.3555
 Frc consts  --      0.7638                 0.7637                 0.7634
 IR Inten    --      0.0160                 0.0175                 0.1393

                     43                     44                     45
                      A                      A                      A
 Frequencies --   1000.3477              1000.3816              1001.1189
 Red. masses --      1.2542                 1.2544                 1.2527
 Frc consts  --      0.7395                 0.7396                 0.7397
 IR Inten    --      0.0774                 0.0784                 0.0001

                     46                     47                     48
                      A                      A                      A
 Frequencies --   1015.3549              1015.3841              1015.7467
 Red. masses --      6.3134                 6.3109                 6.3065
 Frc consts  --      3.8348                 3.8336                 3.8336
 IR Inten    --      4.3229                 4.3700                 0.0710

                     49                     50                     51
                      A                      A                      A
 Frequencies --   1052.6761              1052.7376              1052.9026
 Red. masses --      3.3082                 3.3138                 3.2515
 Frc consts  --      2.1599                 2.1638                 2.1238
 IR Inten    --      2.1140                 2.0884                 0.0418

                     52                     53                     54
                      A                      A                      A
 Frequencies --   1107.7225              1108.0404              1109.4922
 Red. masses --      1.8987                 1.8722                 1.6543
 Frc consts  --      1.3727                 1.3543                 1.1998
 IR Inten    --      4.5031                 4.0412                 2.9064

                     55                     56                     57
                      A                      A                      A
 Frequencies --   1110.6919              1110.8205              1116.0948
 Red. masses --      2.1647                 2.2105                 2.6145
 Frc consts  --      1.5734                 1.6070                 1.9188
 IR Inten    --      9.0308                 9.7391                 1.2277

                     58                     59                     60
                      A                      A                      A
 Frequencies --   1193.4693              1193.8632              1193.9275
 Red. masses --      1.1033                 1.1000                 1.1000
 Frc consts  --      0.9259                 0.9237                 0.9239
 IR Inten    --      0.0017                 0.1332                 0.1269

                     61                     62                     63
                      A                      A                      A
 Frequencies --   1219.0506              1219.4131              1220.7992
 Red. masses --      1.1474                 1.1477                 1.1472
 Frc consts  --      1.0047                 1.0055                 1.0074
 IR Inten    --      6.0295                 6.0918                 0.3407

                     64                     65                     66
                      A                      A                      A
 Frequencies --   1324.9907              1328.6671              1328.7378
 Red. masses --      3.4899                 3.4759                 3.4950
 Frc consts  --      3.6098                 3.6154                 3.6356
 IR Inten    --      2.6381                 2.4590                 2.4202

                     67                     68                     69
                      A                      A                      A
 Frequencies --   1364.9229              1365.2439              1365.5247
 Red. masses --      1.6621                 1.6525                 1.6445
 Frc consts  --      1.8244                 1.8147                 1.8067
 IR Inten    --      0.1825                 0.4222                 2.7882

                     70                     71                     72
                      A                      A                      A
 Frequencies --   1480.4973              1480.9581              1480.9905
 Red. masses --      2.1110                 2.1157                 2.1158
 Frc consts  --      2.7262                 2.7340                 2.7342
 IR Inten    --     16.5272                 6.7697                 6.5537

                     73                     74                     75
                      A                      A                      A
 Frequencies --   1531.0031              1531.4330              1531.5851
 Red. masses --      2.0155                 1.9995                 1.9979
 Frc consts  --      2.7835                 2.7630                 2.7613
 IR Inten    --      2.0041                10.1513                10.1378

                     76                     77                     78
                      A                      A                      A
 Frequencies --   1630.1452              1630.4131              1630.4455
 Red. masses --      5.1017                 5.1141                 5.1137
 Frc consts  --      7.9877                 8.0097                 8.0094
 IR Inten    --      0.3890                 0.0542                 0.0451

                     79                     80                     81
                      A                      A                      A
 Frequencies --   1646.1261              1646.1463              1647.9297
 Red. masses --      5.2734                 5.2704                 5.2834
 Frc consts  --      8.4190                 8.4146                 8.4537
 IR Inten    --      3.5211                 3.4889                 0.3220

                     82                     83                     84
                      A                      A                      A
 Frequencies --   3176.0441              3176.1209              3176.1752
 Red. masses --      1.0854                 1.0853                 1.0853
 Frc consts  --      6.4506                 6.4508                 6.4508
 IR Inten    --      2.1150                 1.9843                 1.8787

                     85                     86                     87
                      A                      A                      A
 Frequencies --   3182.6082              3182.6823              3182.7502
 Red. masses --      1.0875                 1.0875                 1.0876
 Frc consts  --      6.4900                 6.4903                 6.4911
 IR Inten    --      0.7056                 0.7541                 0.2412

                     88                     89                     90
                      A                      A                      A
 Frequencies --   3192.8263              3192.8567              3192.9743
 Red. masses --      1.0916                 1.0916                 1.0917
 Frc consts  --      6.5567                 6.5567                 6.5578
 IR Inten    --     10.8929                10.3649                46.8651

                     91                     92                     93
                      A                      A                      A
 Frequencies --   3203.8813              3203.9342              3204.2949
 Red. masses --      1.0941                 1.0941                 1.0942
 Frc consts  --      6.6170                 6.6175                 6.6195
 IR Inten    --     41.3472                41.7876                 4.5671

                     94                     95                     96
                      A                      A                      A
 Frequencies --   3210.0533              3210.1344              3210.9774
 Red. masses --      1.0957                 1.0956                 1.0956
 Frc consts  --      6.6521                 6.6519                 6.6555
 IR Inten    --     20.0633                19.6810                16.2938

 - Thermochemistry -
 -------------------
 Temperature   298.150 Kelvin.  Pressure   1.00000 Atm.
 Atom     1 has atomic number 15 and mass  30.97376

 Molecular mass:   262.09114 amu.
 Principal axes and moments of inertia in atomic units:
                           1         2         3
     Eigenvalues --  5160.152345166.545088680.35521
           X            0.99971  -0.02387  -0.00002
           Y            0.02387   0.99971   0.00006
           Z            0.00002  -0.00006   1.00000
 This molecule is an asymmetric top.
 Rotational symmetry number  1.
 Warning -- assumption of classical behavior for rotation
           may cause significant error
 Rotational temperatures (Kelvin)      0.01679     0.01676     0.00998
 Rotational constants (GHZ):           0.34975     0.34931     0.20791
 Zero-point vibrational energy     719928.3 (Joules/Mol)
                                  172.06699 (Kcal/Mol)
 Warning -- explicit consideration of  21 degrees of freedom as
           vibrations may cause significant error
 Vibrational temperatures:     31.17    32.37    54.60    76.49    76.63
          (Kelvin)            101.61   261.17   290.93   291.76   353.32
                              373.62   374.21   588.08   588.14   593.29
                              600.09   617.65   618.09   732.82   733.29
                              742.82   910.35   910.38   911.26   995.44
                             1014.43  1014.67  1024.73  1024.84  1026.21
                             1095.44  1097.51  1097.71  1246.24  1246.29
                             1249.97  1342.14  1342.29  1344.16  1403.97
                             1404.02  1406.64  1439.28  1439.33  1440.39
                             1460.87  1460.91  1461.43  1514.57  1514.65
                             1514.89  1593.77  1594.22  1596.31  1598.04
                             1598.22  1605.81  1717.14  1717.70  1717.80
                             1753.94  1754.46  1756.46  1906.37  1911.66
                             1911.76  1963.82  1964.28  1964.69  2130.11
                             2130.77  2130.82  2202.77  2203.39  2203.61
                             2345.42  2345.80  2345.85  2368.41  2368.44
                             2371.00  4569.62  4569.73  4569.81  4579.06
                             4579.17  4579.27  4593.76  4593.81  4593.98
                             4609.67  4609.75  4610.27  4618.55  4618.67
                             4619.88

 Zero-point correction=                           0.274206 (Hartree/Particle)
 Thermal correction to Energy=                    0.290135
 Thermal correction to Enthalpy=                  0.291079
 Thermal correction to Gibbs Free Energy=         0.227632
 Sum of electronic and zero-point Energies=          -1036.024024
 Sum of electronic and thermal Energies=             -1036.008095
 Sum of electronic and thermal Enthalpies=           -1036.007151
 Sum of electronic and thermal Free Energies=        -1036.070598

                     E (Thermal)             CV                S
                      KCal/Mol        Cal/Mol-Kelvin    Cal/Mol-Kelvin
 Total                  182.062             62.540            133.536
 Electronic               0.000              0.000              0.000
 Translational            0.889              2.981             42.590
 Rotational               0.889              2.981             33.803
 Vibrational            180.285             56.578             57.143
 Vibration     1          0.593              1.985              6.475
 Vibration     2          0.593              1.985              6.401
 Vibration     3          0.594              1.982              5.363
 Vibration     4          0.596              1.976              4.696
 Vibration     5          0.596              1.976              4.693
 Vibration     6          0.598              1.968              4.136
 Vibration     7          0.630              1.865              2.313
 Vibration     8          0.639              1.837              2.113
 Vibration     9          0.639              1.836              2.108
 Vibration    10          0.660              1.770              1.762
 Vibration    11          0.668              1.746              1.664
 Vibration    12          0.668              1.746              1.661
 Vibration    13          0.773              1.451              0.931
 Vibration    14          0.773              1.451              0.931
 Vibration    15          0.776              1.443              0.918
 Vibration    16          0.780              1.433              0.902
 Vibration    17          0.791              1.406              0.861
 Vibration    18          0.791              1.406              0.860
 Vibration    19          0.864              1.229              0.635
 Vibration    20          0.865              1.229              0.634
 Vibration    21          0.871              1.214              0.619

                           ! Non-Optimized Parameters !
 Normal termination of Gaussian 16 at Sun Dec  8 18:50:21 2019.
 Gaussian 16:  ES64L-G16RevA.03 25-Dec-2016

 ----------------------------------------------------------------------
 # TD(NStates=10, Root=1) B3LYP/6-31G* scf=xqc volume pop=NPA density=c
 urrent Geom=AllCheck Guess=Read
 ----------------------------------------------------------------------

 Structure from the checkpoint file:  "direct_arylation_ligand38_conf153.chk"
 -------------------
 Title Card Required
 -------------------
 Charge =  0 Multiplicity = 1

                         Standard orientation:
 ---------------------------------------------------------------------
 Center     Atomic      Atomic             Coordinates (Angstroms)
 Number     Number       Type             X           Y           Z
 ---------------------------------------------------------------------
      1         15           0       -0.000580   -0.000410   -1.206425
      2          6           0        1.067439   -1.284850   -0.401853
      3          6           0        1.139521   -2.537363   -1.034783
      4          6           0        1.925715   -3.561772   -0.507842
      5          6           0        2.669804   -3.344589    0.653757
      6          6           0        2.618498   -2.100636    1.284703
      7          6           0        1.822190   -1.078691    0.763080
      8          6           0       -1.647323   -0.282396   -0.402558
      9          6           0       -1.847186   -1.039694    0.761781
     10          6           0       -3.130769   -1.218129    1.282511
     11          6           0       -4.233091   -0.639666    0.651336
     12          6           0       -4.048107    0.114013   -0.509665
     13          6           0       -2.767471    0.282350   -1.035793
     14          6           0        0.578999    1.566993   -0.403186
     15          6           0        1.638476    2.246181   -1.028520
     16          6           0        2.133897    3.439121   -0.502725
     17          6           0        1.564382    3.984710    0.649788
     18          6           0        0.502071    3.327969    1.272792
     19          6           0        0.013853    2.127245    0.752579
     20          1           0        0.578176   -2.707834   -1.950721
     21          1           0        1.965828   -4.525109   -1.009735
     22          1           0        3.291019   -4.138165    1.060725
     23          1           0        3.198954   -1.923182    2.186668
     24          1           0        1.791557   -0.115141    1.262836
     25          1           0       -0.997927   -1.495548    1.261833
     26          1           0       -3.268090   -1.810119    2.183980
     27          1           0       -5.231253   -0.780658    1.057645
     28          1           0       -4.901920    0.561733   -1.011735
     29          1           0       -2.633667    0.854280   -1.951275
     30          1           0        2.074433    1.837840   -1.937550
     31          1           0        2.956618    3.947892   -0.998518
     32          1           0        1.942169    4.919477    1.055714
     33          1           0        0.050817    3.749445    2.167603
     34          1           0       -0.813398    1.626466    1.246497
 ---------------------------------------------------------------------

 SCF Done:  E(RB3LYP) =  -1036.29823003     A.U. after    3 cycles

 Excitation energies and oscillator strengths:

 Excited State   1:      Singlet-A      4.5076 eV  275.06 nm  f=0.1266  <S**2>=0.000
      69 -> 70         0.69710
 This state for optimization and/or second-order correction.
 Total Energy, E(TD-HF/TD-DFT) =  -1036.13257975
 Copying the excited state density for this state as the 1-particle RhoCI density.

 Excited State   2:      Singlet-A      4.5135 eV  274.70 nm  f=0.1290  <S**2>=0.000
      69 -> 71         0.69701

 Excited State   3:      Singlet-A      4.7577 eV  260.59 nm  f=0.0022  <S**2>=0.000
      67 -> 70        -0.12396
      68 -> 71        -0.12526
      69 -> 72         0.67460

 Excited State   4:      Singlet-A      5.0569 eV  245.18 nm  f=0.0002  <S**2>=0.000
      66 -> 70         0.16631
      67 -> 71         0.13231
      68 -> 70         0.13226
      69 -> 74         0.63062

 Excited State   5:      Singlet-A      5.0593 eV  245.06 nm  f=0.0002  <S**2>=0.000
      66 -> 71         0.16790
      67 -> 70         0.13429
      68 -> 71        -0.13405
      69 -> 75         0.62894

 Excited State   6:      Singlet-A      5.1513 eV  240.68 nm  f=0.0085  <S**2>=0.000
      69 -> 73         0.67888

 Excited State   7:      Singlet-A      5.4271 eV  228.45 nm  f=0.0146  <S**2>=0.000
      63 -> 72         0.16598
      64 -> 74         0.14632
      65 -> 75         0.14046
      67 -> 70         0.42956
      68 -> 71         0.41164
      69 -> 72         0.16528

 Excited State   8:      Singlet-A      5.5129 eV  224.90 nm  f=0.0005  <S**2>=0.000
      63 -> 74         0.14326
      64 -> 70        -0.12795
      64 -> 72         0.22448
      65 -> 71         0.12572
      65 -> 72        -0.17097
      66 -> 70        -0.22776
      67 -> 71        -0.25101
      68 -> 70        -0.26554
      68 -> 72        -0.16149
      69 -> 74         0.28569

 Excited State   9:      Singlet-A      5.5159 eV  224.77 nm  f=0.0004  <S**2>=0.000
      63 -> 75         0.14443
      64 -> 71         0.11682
      64 -> 72         0.17171
      65 -> 70         0.12495
      65 -> 72         0.22466
      65 -> 75         0.10142
      66 -> 71        -0.22402
      67 -> 70        -0.24688
      67 -> 72         0.16357
      68 -> 71         0.27455
      69 -> 75         0.28820

 Excited State  10:      Singlet-A      5.6179 eV  220.70 nm  f=0.0009  <S**2>=0.000
      65 -> 71         0.10203
      67 -> 71        -0.47037
      68 -> 70         0.49407

 The electronic state is 1-A.
 Alpha  occ. eigenvalues --  -77.08112 -10.19448 -10.19447 -10.19445 -10.19151
 Alpha  occ. eigenvalues --  -10.19149 -10.19139 -10.19121 -10.19118 -10.19112
 Alpha  occ. eigenvalues --  -10.19034 -10.19033 -10.19024 -10.19010 -10.19009
 Alpha  occ. eigenvalues --  -10.19002 -10.18965 -10.18965 -10.18955  -6.54843
 Alpha  occ. eigenvalues --   -4.71102  -4.71102  -4.70601  -0.85560  -0.84848
 Alpha  occ. eigenvalues --   -0.84842  -0.76669  -0.74367  -0.74365  -0.74329
 Alpha  occ. eigenvalues --   -0.73822  -0.73819  -0.64436  -0.60338  -0.60307
 Alpha  occ. eigenvalues --   -0.60304  -0.59207  -0.59206  -0.55448  -0.51436
 Alpha  occ. eigenvalues --   -0.51433  -0.49296  -0.45441  -0.45438  -0.44774
 Alpha  occ. eigenvalues --   -0.44344  -0.44343  -0.44068  -0.41947  -0.41870
 Alpha  occ. eigenvalues --   -0.41866  -0.40381  -0.40374  -0.36843  -0.36355
 Alpha  occ. eigenvalues --   -0.36347  -0.35898  -0.34253  -0.34250  -0.34224
 Alpha  occ. eigenvalues --   -0.31886  -0.31881  -0.26774  -0.25454  -0.25441
 Alpha  occ. eigenvalues --   -0.25242  -0.24705  -0.24702  -0.21146
 Alpha virt. eigenvalues --   -0.01888  -0.01873  -0.00829   0.00173   0.00421
 Alpha virt. eigenvalues --    0.00435   0.06871   0.06899   0.09492   0.11037
 Alpha virt. eigenvalues --    0.11041   0.13902   0.14528   0.14531   0.15165

 Mulliken charges:
               1
     1  P    0.450626
     2  C   -0.109445
     3  C   -0.158265
     4  C   -0.125692
     5  C   -0.154252
     6  C   -0.115390
     7  C   -0.172135
     8  C   -0.129257
     9  C   -0.165740
    10  C   -0.122336
    11  C   -0.161098
    12  C   -0.119054
    13  C   -0.176340
    14  C   -0.082293
    15  C   -0.157552
    16  C   -0.118385
    17  C   -0.120850
    18  C   -0.120248
    19  C   -0.147929
    20  H    0.127915
    21  H    0.123184
    22  H    0.119394
    23  H    0.125498
    24  H    0.129872
    25  H    0.142508
    26  H    0.121883
    27  H    0.113416
    28  H    0.117225
    29  H    0.116323
    30  H    0.149840
    31  H    0.144113
    32  H    0.147738
    33  H    0.148313
    34  H    0.178414
 Sum of Mulliken charges =  -0.00000

 Dipole moment (field-independent basis, Debye):
    X=              1.8786    Y=              3.2832    Z=             -0.1989  Tot=              3.7879
 Quadrupole moment (field-independent basis, Debye-Ang):
   XX=           -119.3850   YY=           -107.6843   ZZ=           -110.6604
   XY=              3.8708   XZ=             -0.1589   YZ=              1.3794

 Summary of Natural Population Analysis:

                                       Natural Population
                Natural  -----------------------------------------------
    Atom  No    Charge         Core      Valence    Rydberg      Total
 -----------------------------------------------------------------------
      P    1    1.24230      9.99750     3.70995    0.05024    13.75770
      C    2   -0.44183      1.99887     4.41866    0.02429     6.44183
      C    3   -0.21121      1.99901     4.19644    0.01576     6.21121
      C    4   -0.24897      1.99910     4.23482    0.01505     6.24897
      C    5   -0.26718      1.99909     4.25225    0.01584     6.26718
      C    6   -0.22333      1.99909     4.20996    0.01428     6.22333
      C    7   -0.25879      1.99899     4.24213    0.01766     6.25879
      C    8   -0.47638      1.99887     4.45131    0.02619     6.47638
      C    9   -0.24096      1.99899     4.22432    0.01766     6.24096
      C   10   -0.23607      1.99909     4.22233    0.01466     6.23607
      C   11   -0.28145      1.99909     4.26607    0.01629     6.28145
      C   12   -0.23757      1.99910     4.22376    0.01472     6.23757
      C   13   -0.23922      1.99902     4.22389    0.01632     6.23922
      C   14   -0.37839      1.99891     4.35446    0.02503     6.37839
      C   15   -0.20371      1.99902     4.18956    0.01513     6.20371
      C   16   -0.23418      1.99910     4.22089    0.01420     6.23418
      C   17   -0.19594      1.99909     4.18315    0.01370     6.19594
      C   18   -0.23051      1.99909     4.21735    0.01407     6.23051
      C   19   -0.20345      1.99900     4.18838    0.01607     6.20345
      H   20    0.23206      0.00000     0.76677    0.00117     0.76794
      H   21    0.23443      0.00000     0.76470    0.00088     0.76557
      H   22    0.23060      0.00000     0.76851    0.00089     0.76940
      H   23    0.23568      0.00000     0.76344    0.00088     0.76432
      H   24    0.23594      0.00000     0.76272    0.00135     0.76406
      H   25    0.24248      0.00000     0.75594    0.00158     0.75752
      H   26    0.23416      0.00000     0.76496    0.00088     0.76584
      H   27    0.22792      0.00000     0.77118    0.00091     0.77208
      H   28    0.23096      0.00000     0.76809    0.00095     0.76904
      H   29    0.22463      0.00000     0.77442    0.00096     0.77537
      H   30    0.24246      0.00000     0.75635    0.00120     0.75754
      H   31    0.24368      0.00000     0.75542    0.00090     0.75632
      H   32    0.24274      0.00000     0.75644    0.00082     0.75726
      H   33    0.24633      0.00000     0.75281    0.00086     0.75367
      H   34    0.26278      0.00000     0.73602    0.00121     0.73722
 =======================================================================
   * Total *    0.00000     45.98001    91.64743    0.37256   138.00000

 Normal termination of Gaussian 16 at Sun Dec  8 19:04:55 2019.
