 Gaussian 16, Revision A.03,

 -----------------------------------------
 # opt=CalcFc B3LYP/6-31G* scf=xqc scf=xqc
 -----------------------------------------

 -------------------
 Title Card Required
 -------------------
 Symbolic Z-matrix:
 Charge =  0 Multiplicity = 1

 SCF Done:  E(RB3LYP) =  -1036.28295677     A.U. after   14 cycles
 SCF Done:  E(RB3LYP) =  -1036.29426441     A.U. after   15 cycles
 SCF Done:  E(RB3LYP) =  -1036.27645297     A.U. after   14 cycles
 SCF Done:  E(RB3LYP) =  -1036.29651599     A.U. after   12 cycles
 SCF Done:  E(RB3LYP) =  -1036.29713720     A.U. after   12 cycles
 SCF Done:  E(RB3LYP) =  -1036.29765646     A.U. after   12 cycles
 SCF Done:  E(RB3LYP) =  -1036.29798332     A.U. after   14 cycles
 SCF Done:  E(RB3LYP) =  -1036.29804100     A.U. after   11 cycles
 SCF Done:  E(RB3LYP) =  -1036.29808777     A.U. after   11 cycles
 SCF Done:  E(RB3LYP) =  -1036.29810894     A.U. after   11 cycles
 SCF Done:  E(RB3LYP) =  -1036.29824009     A.U. after    8 cycles
 SCF Done:  E(RB3LYP) =  -1036.29787277     A.U. after   12 cycles
 SCF Done:  E(RB3LYP) =  -1036.29821472     A.U. after   11 cycles
 SCF Done:  E(RB3LYP) =  -1036.29822998     A.U. after   10 cycles
 SCF Done:  E(RB3LYP) =  -1036.29823250     A.U. after    8 cycles
 SCF Done:  E(RB3LYP) =  -1036.29823100     A.U. after    8 cycles
 SCF Done:  E(RB3LYP) =  -1036.29823192     A.U. after    8 cycles
 SCF Done:  E(RB3LYP) =  -1036.29823234     A.U. after    8 cycles
 Optimization completed.
    -- Stationary point found.
 Normal termination of Gaussian 16 at Sun Dec  8 18:36:07 2019.

 ----------------------------------------------------------------------
 # freq B3LYP/6-31G* scf=xqc volume NMR pop=NPA density=current Geom=Al
 lCheck Guess=Read
 ----------------------------------------------------------------------

 Structure from the checkpoint file:  "direct_arylation_ligand38_conf242.chk"
 -------------------
 Title Card Required
 -------------------
 Charge =  0 Multiplicity = 1

 SCF Done:  E(RB3LYP) =  -1036.29823234     A.U. after    1 cycles

      1  P    Isotropic =   361.1941   Anisotropy =    39.5377

      2  C    Isotropic =    56.1027   Anisotropy =   179.2746

      3  C    Isotropic =    60.9705   Anisotropy =   164.1162

      4  C    Isotropic =    68.7302   Anisotropy =   164.1161

      5  C    Isotropic =    68.1588   Anisotropy =   167.3698

      6  C    Isotropic =    68.6677   Anisotropy =   163.8990

      7  C    Isotropic =    62.5956   Anisotropy =   174.0711

      8  C    Isotropic =    56.1039   Anisotropy =   179.3686

      9  C    Isotropic =    62.5928   Anisotropy =   173.9893

     10  C    Isotropic =    68.6865   Anisotropy =   163.9054

     11  C    Isotropic =    68.1767   Anisotropy =   167.3234

     12  C    Isotropic =    68.7523   Anisotropy =   164.0871

     13  C    Isotropic =    61.0556   Anisotropy =   164.2119

     14  C    Isotropic =    56.0565   Anisotropy =   179.4924

     15  C    Isotropic =    61.0357   Anisotropy =   164.1060

     16  C    Isotropic =    68.7325   Anisotropy =   164.1387

     17  C    Isotropic =    68.1628   Anisotropy =   167.3413

     18  C    Isotropic =    68.6830   Anisotropy =   163.9036

     19  C    Isotropic =    62.5807   Anisotropy =   173.9749

     20  H    Isotropic =    24.6129   Anisotropy =     9.2565

     21  H    Isotropic =    24.9260   Anisotropy =     4.5884

     22  H    Isotropic =    25.0191   Anisotropy =     3.6426

     23  H    Isotropic =    25.0500   Anisotropy =     6.0940

     24  H    Isotropic =    25.4118   Anisotropy =    12.2429

     25  H    Isotropic =    25.4036   Anisotropy =    12.2248

     26  H    Isotropic =    25.0479   Anisotropy =     6.0814

     27  H    Isotropic =    25.0210   Anisotropy =     3.6403

     28  H    Isotropic =    24.9286   Anisotropy =     4.5851

     29  H    Isotropic =    24.6160   Anisotropy =     9.2596

     30  H    Isotropic =    24.6138   Anisotropy =     9.2543

     31  H    Isotropic =    24.9267   Anisotropy =     4.5876

     32  H    Isotropic =    25.0181   Anisotropy =     3.6409

     33  H    Isotropic =    25.0466   Anisotropy =     6.0793

     34  H    Isotropic =    25.3947   Anisotropy =    12.2251

  Exact polarizability: 224.502  -0.023 223.999   0.012   0.048 164.844
 Approx polarizability: 331.448  -0.059 330.810   0.029   0.111 307.621

                      1                      2                      3
                      A                      A                      A
 Frequencies --     23.3480                24.6094                38.9272
 Red. masses --      3.7960                 3.7973                 3.6894
 Frc consts  --      0.0012                 0.0014                 0.0033
 IR Inten    --      0.2824                 0.2841                 0.0021

                      4                      5                      6
                      A                      A                      A
 Frequencies --     53.2416                53.3946                70.5491
 Red. masses --      5.2511                 5.2547                 5.1688
 Frc consts  --      0.0088                 0.0088                 0.0152
 IR Inten    --      0.0846                 0.0851                 0.3124

                      7                      8                      9
                      A                      A                      A
 Frequencies --    181.7863               202.4808               202.7135
 Red. masses --      4.5617                 4.6425                 4.6412
 Frc consts  --      0.0888                 0.1121                 0.1124
 IR Inten    --      0.3525                 1.1329                 1.1309

                     10                     11                     12
                      A                      A                      A
 Frequencies --    245.4341               259.7418               259.9259
 Red. masses --      5.7384                 4.7216                 4.7257
 Frc consts  --      0.2037                 0.1877                 0.1881
 IR Inten    --      0.4825                 0.2233                 0.2247

                     13                     14                     15
                      A                      A                      A
 Frequencies --    408.7490               408.9204               412.2725
 Red. masses --      3.0776                 3.0828                 3.6501
 Frc consts  --      0.3030                 0.3037                 0.3655
 IR Inten    --      1.9410                 1.9902                 0.1781

                     16                     17                     18
                      A                      A                      A
 Frequencies --    417.0596               429.3729               429.6585
 Red. masses --      4.5267                 7.2978                 7.3255
 Frc consts  --      0.4639                 0.7927                 0.7968
 IR Inten    --      0.5496                 7.7190                 7.6906

                     19                     20                     21
                      A                      A                      A
 Frequencies --    509.3519               509.6159               516.6524
 Red. masses --      4.2432                 4.2474                 4.5868
 Frc consts  --      0.6486                 0.6499                 0.7214
 IR Inten    --     26.0198                26.0159                12.0273

                     22                     23                     24
                      A                      A                      A
 Frequencies --    632.6989               632.7333               633.3376
 Red. masses --      6.4275                 6.4272                 6.4371
 Frc consts  --      1.5160                 1.5161                 1.5213
 IR Inten    --      0.1788                 0.1795                 0.0164

                     25                     26                     27
                      A                      A                      A
 Frequencies --    691.7577               704.9298               705.2019
 Red. masses --      6.5804                 5.7368                 5.7957
 Frc consts  --      1.8553                 1.6796                 1.6982
 IR Inten    --      0.7927                 1.1407                 1.0336

                     28                     29                     30
                      A                      A                      A
 Frequencies --    712.2365               712.4265               713.4055
 Red. masses --      2.1989                 2.1899                 2.1369
 Frc consts  --      0.6572                 0.6549                 0.6408
 IR Inten    --     26.4010                26.0575                16.9104

                     31                     32                     33
                      A                      A                      A
 Frequencies --    761.4794               762.8387               762.9755
 Red. masses --      1.6155                 1.6489                 1.6473
 Frc consts  --      0.5519                 0.5654                 0.5650
 IR Inten    --     19.3574                24.7865                24.9801

                     34                     35                     36
                      A                      A                      A
 Frequencies --    866.1536               866.4228               868.9136
 Red. masses --      1.2478                 1.2476                 1.2462
 Frc consts  --      0.5516                 0.5518                 0.5544
 IR Inten    --      0.2192                 0.2191                 0.1312

                     37                     38                     39
                      A                      A                      A
 Frequencies --    932.8280               933.0482               934.3651
 Red. masses --      1.3443                 1.3439                 1.3385
 Frc consts  --      0.6892                 0.6893                 0.6885
 IR Inten    --      1.2298                 1.2540                 0.0756

                     40                     41                     42
                      A                      A                      A
 Frequencies --    975.7752               975.9799               977.7753
 Red. masses --      1.3613                 1.3609                 1.3553
 Frc consts  --      0.7636                 0.7638                 0.7634
 IR Inten    --      0.0169                 0.0176                 0.1373

                     43                     44                     45
                      A                      A                      A
 Frequencies --   1000.3065              1000.4197              1001.1609
 Red. masses --      1.2541                 1.2541                 1.2523
 Frc consts  --      0.7394                 0.7395                 0.7395
 IR Inten    --      0.0779                 0.0796                 0.0022

                     46                     47                     48
                      A                      A                      A
 Frequencies --   1015.3446              1015.3774              1015.7453
 Red. masses --      6.3122                 6.3145                 6.3117
 Frc consts  --      3.8341                 3.8357                 3.8367
 IR Inten    --      4.3061                 4.3644                 0.0643

                     49                     50                     51
                      A                      A                      A
 Frequencies --   1052.6397              1052.6751              1052.8594
 Red. masses --      3.3193                 3.3203                 3.2555
 Frc consts  --      2.1670                 2.1678                 2.1262
 IR Inten    --      2.0922                 2.0662                 0.0451

                     52                     53                     54
                      A                      A                      A
 Frequencies --   1107.7938              1108.0807              1109.4322
 Red. masses --      1.9094                 1.8856                 1.6548
 Frc consts  --      1.3806                 1.3641                 1.2000
 IR Inten    --      4.6768                 4.3108                 2.9209

                     55                     56                     57
                      A                      A                      A
 Frequencies --   1110.6794              1110.7505              1115.8542
 Red. masses --      2.1443                 2.1973                 2.6126
 Frc consts  --      1.5585                 1.5973                 1.9166
 IR Inten    --      8.7972                 9.3953                 1.1743

                     58                     59                     60
                      A                      A                      A
 Frequencies --   1193.4699              1193.8661              1193.9793
 Red. masses --      1.1034                 1.1001                 1.1004
 Frc consts  --      0.9260                 0.9239                 0.9243
 IR Inten    --      0.0055                 0.1346                 0.1246

                     61                     62                     63
                      A                      A                      A
 Frequencies --   1219.2364              1219.5403              1220.8031
 Red. masses --      1.1476                 1.1479                 1.1474
 Frc consts  --      1.0051                 1.0059                 1.0075
 IR Inten    --      6.0231                 6.0771                 0.3753

                     64                     65                     66
                      A                      A                      A
 Frequencies --   1325.1276              1328.8766              1328.9681
 Red. masses --      3.4981                 3.5014                 3.5181
 Frc consts  --      3.6191                 3.6430                 3.6609
 IR Inten    --      2.6234                 2.4370                 2.4511

                     67                     68                     69
                      A                      A                      A
 Frequencies --   1365.1657              1365.4158              1365.8249
 Red. masses --      1.6544                 1.6496                 1.6384
 Frc consts  --      1.8167                 1.8120                 1.8008
 IR Inten    --      0.2842                 1.2839                 1.8267

                     70                     71                     72
                      A                      A                      A
 Frequencies --   1480.5590              1481.0317              1481.0960
 Red. masses --      2.1109                 2.1159                 2.1164
 Frc consts  --      2.7262                 2.7344                 2.7353
 IR Inten    --     16.6442                 6.5949                 6.6609

                     73                     74                     75
                      A                      A                      A
 Frequencies --   1531.0527              1531.5591              1531.6811
 Red. masses --      2.0145                 1.9983                 1.9961
 Frc consts  --      2.7823                 2.7617                 2.7591
 IR Inten    --      2.1086                10.0770                10.1797

                     76                     77                     78
                      A                      A                      A
 Frequencies --   1630.1107              1630.3770              1630.4650
 Red. masses --      5.1020                 5.1125                 5.1126
 Frc consts  --      7.9878                 8.0068                 8.0078
 IR Inten    --      0.3830                 0.0529                 0.0506

                     79                     80                     81
                      A                      A                      A
 Frequencies --   1646.1850              1646.2275              1647.9869
 Red. masses --      5.2660                 5.2716                 5.2809
 Frc consts  --      8.4079                 8.4173                 8.4502
 IR Inten    --      3.5573                 3.5297                 0.3119

                     82                     83                     84
                      A                      A                      A
 Frequencies --   3176.0846              3176.1353              3176.1692
 Red. masses --      1.0854                 1.0854                 1.0853
 Frc consts  --      6.4508                 6.4509                 6.4509
 IR Inten    --      2.1118                 2.0208                 1.8811

                     85                     86                     87
                      A                      A                      A
 Frequencies --   3182.5615              3182.7241              3182.8227
 Red. masses --      1.0874                 1.0875                 1.0876
 Frc consts  --      6.4895                 6.4906                 6.4914
 IR Inten    --      0.6111                 0.6465                 0.3994

                     88                     89                     90
                      A                      A                      A
 Frequencies --   3192.7493              3192.8883              3193.0101
 Red. masses --      1.0915                 1.0917                 1.0918
 Frc consts  --      6.5553                 6.5572                 6.5581
 IR Inten    --     13.0049                13.7338                40.5746

                     91                     92                     93
                      A                      A                      A
 Frequencies --   3203.2262              3204.0758              3204.3796
 Red. masses --      1.0935                 1.0943                 1.0944
 Frc consts  --      6.6105                 6.6189                 6.6209
 IR Inten    --     30.1749                42.2899                13.0675

                     94                     95                     96
                      A                      A                      A
 Frequencies --   3209.2089              3210.4231              3211.1611
 Red. masses --      1.0966                 1.0954                 1.0954
 Frc consts  --      6.6541                 6.6522                 6.6550
 IR Inten    --     24.6558                18.2199                16.1237

 - Thermochemistry -
 -------------------
 Temperature   298.150 Kelvin.  Pressure   1.00000 Atm.
 Atom     1 has atomic number 15 and mass  30.97376

 Molecular mass:   262.09114 amu.
 Principal axes and moments of inertia in atomic units:
                           1         2         3
     Eigenvalues --  5154.393425170.672048683.03848
           X            1.00000  -0.00312  -0.00001
           Y            0.00312   1.00000   0.00003
           Z            0.00001  -0.00003   1.00000
 This molecule is an asymmetric top.
 Rotational symmetry number  1.
 Warning -- assumption of classical behavior for rotation
           may cause significant error
 Rotational temperatures (Kelvin)      0.01680     0.01675     0.00998
 Rotational constants (GHZ):           0.35014     0.34903     0.20785
 Zero-point vibrational energy     719975.1 (Joules/Mol)
                                  172.07817 (Kcal/Mol)
 Warning -- explicit consideration of  21 degrees of freedom as
           vibrations may cause significant error
 Vibrational temperatures:     33.59    35.41    56.01    76.60    76.82
          (Kelvin)            101.50   261.55   291.32   291.66   353.12
                              373.71   373.98   588.10   588.35   593.17
                              600.06   617.77   618.18   732.84   733.22
                              743.35   910.31   910.36   911.23   995.29
                             1014.24  1014.63  1024.75  1025.02  1026.43
                             1095.60  1097.55  1097.75  1246.20  1246.59
                             1250.17  1342.13  1342.45  1344.34  1403.92
                             1404.22  1406.80  1439.22  1439.38  1440.45
                             1460.85  1460.90  1461.43  1514.51  1514.56
                             1514.83  1593.87  1594.28  1596.23  1598.02
                             1598.12  1605.47  1717.14  1717.71  1717.87
                             1754.21  1754.65  1756.46  1906.56  1911.96
                             1912.09  1964.17  1964.53  1965.12  2130.19
                             2130.87  2130.97  2202.84  2203.57  2203.75
                             2345.37  2345.75  2345.88  2368.49  2368.55
                             2371.09  4569.68  4569.75  4569.80  4579.00
                             4579.23  4579.37  4593.65  4593.85  4594.03
                             4608.73  4609.95  4610.39  4617.34  4619.08
                             4620.14

 Zero-point correction=                           0.274224 (Hartree/Particle)
 Thermal correction to Energy=                    0.290141
 Thermal correction to Enthalpy=                  0.291085
 Thermal correction to Gibbs Free Energy=         0.227822
 Sum of electronic and zero-point Energies=          -1036.024008
 Sum of electronic and thermal Energies=             -1036.008091
 Sum of electronic and thermal Enthalpies=           -1036.007147
 Sum of electronic and thermal Free Energies=        -1036.070410

                     E (Thermal)             CV                S
                      KCal/Mol        Cal/Mol-Kelvin    Cal/Mol-Kelvin
 Total                  182.066             62.536            133.148
 Electronic               0.000              0.000              0.000
 Translational            0.889              2.981             42.590
 Rotational               0.889              2.981             33.803
 Vibrational            180.289             56.574             56.755
 Vibration     1          0.593              1.985              6.327
 Vibration     2          0.593              1.985              6.222
 Vibration     3          0.594              1.981              5.313
 Vibration     4          0.596              1.976              4.693
 Vibration     5          0.596              1.976              4.688
 Vibration     6          0.598              1.968              4.138
 Vibration     7          0.630              1.865              2.310
 Vibration     8          0.639              1.836              2.110
 Vibration     9          0.639              1.836              2.108
 Vibration    10          0.660              1.770              1.763
 Vibration    11          0.668              1.746              1.664
 Vibration    12          0.668              1.746              1.662
 Vibration    13          0.773              1.451              0.931
 Vibration    14          0.773              1.451              0.930
 Vibration    15          0.776              1.444              0.919
 Vibration    16          0.780              1.433              0.902
 Vibration    17          0.791              1.406              0.861
 Vibration    18          0.791              1.406              0.860
 Vibration    19          0.865              1.229              0.635
 Vibration    20          0.865              1.229              0.635
 Vibration    21          0.872              1.213              0.618

                           ! Non-Optimized Parameters !
 Normal termination of Gaussian 16 at Sun Dec  8 18:52:00 2019.
 Gaussian 16:  ES64L-G16RevA.03 25-Dec-2016

 ----------------------------------------------------------------------
 # TD(NStates=10, Root=1) B3LYP/6-31G* scf=xqc volume pop=NPA density=c
 urrent Geom=AllCheck Guess=Read
 ----------------------------------------------------------------------

 Structure from the checkpoint file:  "direct_arylation_ligand38_conf243.chk"
 -------------------
 Title Card Required
 -------------------
 Charge =  0 Multiplicity = 1

                         Standard orientation:
 ---------------------------------------------------------------------
 Center     Atomic      Atomic             Coordinates (Angstroms)
 Number     Number       Type             X           Y           Z
 ---------------------------------------------------------------------
      1         15           0       -0.002896    0.000507   -1.206518
      2          6           0        0.865236   -1.427311   -0.401514
      3          6           0        0.748161   -2.677713   -1.032019
      4          6           0        1.376496   -3.806462   -0.506488
      5          6           0        2.150901   -3.699959    0.650720
      6          6           0        2.287111   -2.461093    1.279105
      7          6           0        1.647694   -1.333448    0.759361
      8          6           0       -1.672878   -0.033649   -0.401312
      9          6           0       -1.984220   -0.762037    0.756898
     10          6           0       -3.280435   -0.751796    1.276933
     11          6           0       -4.283716   -0.010202    0.650980
     12          6           0       -3.987223    0.717851   -0.503306
     13          6           0       -2.695523    0.698138   -1.028557
     14          6           0        0.802116    1.465380   -0.404345
     15          6           0        1.947397    1.982598   -1.033073
     16          6           0        2.617290    3.085993   -0.504962
     17          6           0        2.140241    3.704710    0.652566
     18          6           0        0.994573    3.210670    1.278409
     19          6           0        0.331166    2.098029    0.756373
     20          1           0        0.162705   -2.764863   -1.944587
     21          1           0        1.270794   -4.765892   -1.006351
     22          1           0        2.650452   -4.575947    1.056151
     23          1           0        2.892334   -2.369866    2.177623
     24          1           0        1.763307   -0.375193    1.256688
     25          1           0       -1.211809   -1.342820    1.251805
     26          1           0       -3.505031   -1.324067    2.173604
     27          1           0       -5.292112   -0.004250    1.056424
     28          1           0       -4.764185    1.292826   -1.000566
     29          1           0       -2.476936    1.252933   -1.938239
     30          1           0        2.312831    1.517686   -1.946018
     31          1           0        3.504180    3.469256   -1.002995
     32          1           0        2.654630    4.571067    1.060150
     33          1           0        0.615014    3.690771    2.176966
     34          1           0       -0.559058    1.722559    1.252496
 ---------------------------------------------------------------------

 SCF Done:  E(RB3LYP) =  -1036.29823234     A.U. after    1 cycles

 Excitation energies and oscillator strengths:

 Excited State   1:      Singlet-A      4.5083 eV  275.01 nm  f=0.1274  <S**2>=0.000
      69 -> 70         0.69623
 This state for optimization and/or second-order correction.
 Total Energy, E(TD-HF/TD-DFT) =  -1036.13255535
 Copying the excited state density for this state as the 1-particle RhoCI density.

 Excited State   2:      Singlet-A      4.5139 eV  274.67 nm  f=0.1289  <S**2>=0.000
      69 -> 71         0.69615

 Excited State   3:      Singlet-A      4.7560 eV  260.69 nm  f=0.0022  <S**2>=0.000
      67 -> 70        -0.10113
      68 -> 71         0.10114
      69 -> 72         0.67476

 Excited State   4:      Singlet-A      5.0574 eV  245.15 nm  f=0.0002  <S**2>=0.000
      66 -> 70         0.16777
      69 -> 74         0.62858

 Excited State   5:      Singlet-A      5.0586 eV  245.10 nm  f=0.0002  <S**2>=0.000
      66 -> 71         0.16839
      69 -> 75         0.62777

 Excited State   6:      Singlet-A      5.1506 eV  240.72 nm  f=0.0085  <S**2>=0.000
      69 -> 73         0.67890

 Excited State   7:      Singlet-A      5.4283 eV  228.41 nm  f=0.0147  <S**2>=0.000
      63 -> 72         0.16586
      64 -> 74         0.14415
      65 -> 75        -0.14033
      67 -> 70         0.32245
      67 -> 71        -0.27378
      68 -> 70        -0.28223
      68 -> 71        -0.30943
      69 -> 72         0.16465

 Excited State   8:      Singlet-A      5.5140 eV  224.86 nm  f=0.0005  <S**2>=0.000
      63 -> 74         0.14383
      64 -> 71        -0.11449
      64 -> 72         0.22678
      65 -> 70         0.11864
      65 -> 72        -0.16844
      66 -> 70        -0.22744
      67 -> 70        -0.20562
      67 -> 71        -0.17464
      67 -> 72        -0.12339
      68 -> 70         0.16152
      68 -> 71        -0.21958
      68 -> 72        -0.10941
      69 -> 74         0.28708

 Excited State   9:      Singlet-A      5.5153 eV  224.80 nm  f=0.0003  <S**2>=0.000
      63 -> 75         0.14399
      64 -> 70        -0.11627
      64 -> 72        -0.16967
      65 -> 71        -0.11418
      65 -> 72        -0.22745
      66 -> 71        -0.22266
      67 -> 70        -0.17314
      67 -> 71         0.20847
      67 -> 72        -0.10885
      68 -> 70        -0.22101
      68 -> 71        -0.16716
      68 -> 72         0.12236
      69 -> 75         0.28842

 Excited State  10:      Singlet-A      5.6189 eV  220.66 nm  f=0.0009  <S**2>=0.000
      65 -> 71        -0.10349
      67 -> 70         0.29761
      67 -> 71         0.37539
      68 -> 70         0.38824
      68 -> 71        -0.29288

 The electronic state is 1-A.
 Alpha  occ. eigenvalues --  -77.08118 -10.19453 -10.19445 -10.19445 -10.19150
 Alpha  occ. eigenvalues --  -10.19148 -10.19144 -10.19119 -10.19117 -10.19115
 Alpha  occ. eigenvalues --  -10.19034 -10.19032 -10.19029 -10.19009 -10.19009
 Alpha  occ. eigenvalues --  -10.19004 -10.18965 -10.18963 -10.18956  -6.54847
 Alpha  occ. eigenvalues --   -4.71106  -4.71106  -4.70605  -0.85560  -0.84847
 Alpha  occ. eigenvalues --   -0.84844  -0.76667  -0.74368  -0.74366  -0.74328
 Alpha  occ. eigenvalues --   -0.73822  -0.73819  -0.64433  -0.60334  -0.60310
 Alpha  occ. eigenvalues --   -0.60308  -0.59208  -0.59204  -0.55447  -0.51437
 Alpha  occ. eigenvalues --   -0.51433  -0.49295  -0.45441  -0.45439  -0.44771
 Alpha  occ. eigenvalues --   -0.44346  -0.44344  -0.44066  -0.41947  -0.41872
 Alpha  occ. eigenvalues --   -0.41869  -0.40377  -0.40373  -0.36849  -0.36355
 Alpha  occ. eigenvalues --   -0.36347  -0.35898  -0.34253  -0.34249  -0.34222
 Alpha  occ. eigenvalues --   -0.31883  -0.31880  -0.26785  -0.25452  -0.25440
 Alpha  occ. eigenvalues --   -0.25246  -0.24704  -0.24703  -0.21143
 Alpha virt. eigenvalues --   -0.01885  -0.01868  -0.00834   0.00171   0.00426
 Alpha virt. eigenvalues --    0.00433   0.06863   0.06891   0.09493   0.11035
 Alpha virt. eigenvalues --    0.11040   0.13909   0.14526   0.14530   0.15164

 Mulliken charges:
               1
     1  P    0.450453
     2  C   -0.134120
     3  C   -0.172951
     4  C   -0.122522
     5  C   -0.170051
     6  C   -0.119434
     7  C   -0.174504
     8  C   -0.097159
     9  C   -0.149429
    10  C   -0.122751
    11  C   -0.130440
    12  C   -0.116609
    13  C   -0.166594
    14  C   -0.090340
    15  C   -0.152481
    16  C   -0.123894
    17  C   -0.135698
    18  C   -0.115918
    19  C   -0.161592
    20  H    0.111890
    21  H    0.111962
    22  H    0.105900
    23  H    0.115583
    24  H    0.125452
    25  H    0.175514
    26  H    0.142281
    27  H    0.139475
    28  H    0.137178
    29  H    0.139959
    30  H    0.142339
    31  H    0.135426
    32  H    0.135211
    33  H    0.137849
    34  H    0.150015
 Sum of Mulliken charges =  -0.00000

 Dipole moment (field-independent basis, Debye):
    X=             -2.3084    Y=              2.9755    Z=             -0.1942  Tot=              3.7709
 Quadrupole moment (field-independent basis, Debye-Ang):
   XX=           -109.2905   YY=           -117.7113   ZZ=           -110.7083
   XY=              5.6631   XZ=             -1.2915   YZ=              0.3892

 Summary of Natural Population Analysis:

                                       Natural Population
                Natural  -----------------------------------------------
    Atom  No    Charge         Core      Valence    Rydberg      Total
 -----------------------------------------------------------------------
      P    1    1.24127      9.99750     3.71105    0.05018    13.75873
      C    2   -0.48898      1.99886     4.46453    0.02559     6.48898
      C    3   -0.23608      1.99901     4.22069    0.01638     6.23608
      C    4   -0.24433      1.99910     4.23021    0.01503     6.24433
      C    5   -0.30047      1.99910     4.28460    0.01678     6.30047
      C    6   -0.23131      1.99909     4.21758    0.01464     6.23131
      C    7   -0.26140      1.99899     4.24433    0.01808     6.26140
      C    8   -0.40716      1.99890     4.38237    0.02589     6.40716
      C    9   -0.20530      1.99900     4.18990    0.01640     6.20530
      C   10   -0.23534      1.99909     4.22194    0.01430     6.23534
      C   11   -0.21620      1.99909     4.20274    0.01438     6.21620
      C   12   -0.23167      1.99910     4.21837    0.01421     6.23167
      C   13   -0.21878      1.99902     4.20419    0.01557     6.21878
      C   14   -0.39988      1.99889     4.37694    0.02405     6.39988
      C   15   -0.19953      1.99901     4.18524    0.01528     6.19953
      C   16   -0.24456      1.99910     4.23073    0.01473     6.24456
      C   17   -0.22780      1.99909     4.21403    0.01467     6.22780
      C   18   -0.22342      1.99909     4.21026    0.01407     6.22342
      C   19   -0.23603      1.99899     4.22015    0.01690     6.23603
      H   20    0.22288      0.00000     0.77615    0.00098     0.77712
      H   21    0.22879      0.00000     0.77030    0.00092     0.77121
      H   22    0.22469      0.00000     0.77441    0.00089     0.77531
      H   23    0.23117      0.00000     0.76795    0.00088     0.76883
      H   24    0.23310      0.00000     0.76537    0.00152     0.76690
      H   25    0.26093      0.00000     0.73773    0.00134     0.73907
      H   26    0.24360      0.00000     0.75552    0.00087     0.75640
      H   27    0.23915      0.00000     0.75999    0.00086     0.76085
      H   28    0.24020      0.00000     0.75886    0.00094     0.75980
      H   29    0.23681      0.00000     0.76208    0.00111     0.76319
      H   30    0.23951      0.00000     0.75924    0.00124     0.76049
      H   31    0.24010      0.00000     0.75904    0.00087     0.75990
      H   32    0.23743      0.00000     0.76171    0.00086     0.76257
      H   33    0.24141      0.00000     0.75772    0.00087     0.75859
      H   34    0.24721      0.00000     0.75153    0.00126     0.75279
 =======================================================================
   * Total *    0.00000     45.98001    91.64745    0.37254   138.00000

 Normal termination of Gaussian 16 at Sun Dec  8 19:08:06 2019.
