 Gaussian 16, Revision A.03,

 -----------------------------------------
 # opt=CalcFc B3LYP/6-31G* scf=xqc scf=xqc
 -----------------------------------------

 -------------------
 Title Card Required
 -------------------
 Symbolic Z-matrix:
 Charge =  0 Multiplicity = 1

 SCF Done:  E(RB3LYP) =  -1036.27584565     A.U. after   14 cycles
 SCF Done:  E(RB3LYP) =  -1036.27862066     A.U. after   14 cycles
 SCF Done:  E(RB3LYP) =  -1036.29104101     A.U. after   15 cycles
 SCF Done:  E(RB3LYP) =  -1036.26856779     A.U. after   14 cycles
 SCF Done:  E(RB3LYP) =  -1036.29235291     A.U. after   13 cycles
 SCF Done:  E(RB3LYP) =  -1036.29473441     A.U. after   12 cycles
 SCF Done:  E(RB3LYP) =  -1036.29550278     A.U. after   12 cycles
 SCF Done:  E(RB3LYP) =  -1036.29616813     A.U. after   12 cycles
 SCF Done:  E(RB3LYP) =  -1036.29684090     A.U. after   12 cycles
 SCF Done:  E(RB3LYP) =  -1036.29720796     A.U. after   12 cycles
 SCF Done:  E(RB3LYP) =  -1036.29823012     A.U. after    8 cycles
 SCF Done:  E(RB3LYP) =  -1036.29822986     A.U. after    7 cycles
 SCF Done:  E(RB3LYP) =  -1036.29822939     A.U. after    7 cycles
 SCF Done:  E(RB3LYP) =  -1036.29820764     A.U. after   11 cycles
 SCF Done:  E(RB3LYP) =  -1036.29823373     A.U. after   11 cycles
 SCF Done:  E(RB3LYP) =  -1036.29823753     A.U. after    9 cycles
 SCF Done:  E(RB3LYP) =  -1036.29823021     A.U. after    8 cycles
 SCF Done:  E(RB3LYP) =  -1036.29823534     A.U. after    7 cycles
 Optimization completed.
    -- Stationary point found.
 Normal termination of Gaussian 16 at Sun Dec  8 18:51:05 2019.

 ----------------------------------------------------------------------
 # freq B3LYP/6-31G* scf=xqc volume NMR pop=NPA density=current Geom=Al
 lCheck Guess=Read
 ----------------------------------------------------------------------

 Structure from the checkpoint file:  "direct_arylation_ligand38_conf62.chk"
 -------------------
 Title Card Required
 -------------------
 Charge =  0 Multiplicity = 1

 SCF Done:  E(RB3LYP) =  -1036.29823534     A.U. after    1 cycles

      1  P    Isotropic =   361.6385   Anisotropy =    40.0840

      2  C    Isotropic =    56.1513   Anisotropy =   179.4204

      3  C    Isotropic =    61.0104   Anisotropy =   164.1124

      4  C    Isotropic =    68.7309   Anisotropy =   164.1336

      5  C    Isotropic =    68.1567   Anisotropy =   167.3244

      6  C    Isotropic =    68.6800   Anisotropy =   163.8873

      7  C    Isotropic =    62.5864   Anisotropy =   174.0723

      8  C    Isotropic =    56.1281   Anisotropy =   179.4502

      9  C    Isotropic =    62.5638   Anisotropy =   174.0653

     10  C    Isotropic =    68.6753   Anisotropy =   163.8809

     11  C    Isotropic =    68.1564   Anisotropy =   167.3327

     12  C    Isotropic =    68.7298   Anisotropy =   164.1379

     13  C    Isotropic =    61.0026   Anisotropy =   164.0930

     14  C    Isotropic =    56.1105   Anisotropy =   179.4444

     15  C    Isotropic =    62.5894   Anisotropy =   174.0166

     16  C    Isotropic =    68.6760   Anisotropy =   163.8771

     17  C    Isotropic =    68.1741   Anisotropy =   167.3216

     18  C    Isotropic =    68.7269   Anisotropy =   164.1521

     19  C    Isotropic =    61.0193   Anisotropy =   164.1112

     20  H    Isotropic =    24.6121   Anisotropy =     9.2496

     21  H    Isotropic =    24.9268   Anisotropy =     4.5885

     22  H    Isotropic =    25.0210   Anisotropy =     3.6421

     23  H    Isotropic =    25.0477   Anisotropy =     6.0851

     24  H    Isotropic =    25.3992   Anisotropy =    12.2216

     25  H    Isotropic =    25.3981   Anisotropy =    12.2208

     26  H    Isotropic =    25.0475   Anisotropy =     6.0869

     27  H    Isotropic =    25.0198   Anisotropy =     3.6432

     28  H    Isotropic =    24.9271   Anisotropy =     4.5876

     29  H    Isotropic =    24.6113   Anisotropy =     9.2469

     30  H    Isotropic =    25.4024   Anisotropy =    12.2237

     31  H    Isotropic =    25.0490   Anisotropy =     6.0857

     32  H    Isotropic =    25.0201   Anisotropy =     3.6434

     33  H    Isotropic =    24.9259   Anisotropy =     4.5921

     34  H    Isotropic =    24.6139   Anisotropy =     9.2552

  Exact polarizability: 224.145   0.038 224.027  -0.034  -0.037 165.134
 Approx polarizability: 330.898   0.087 330.684  -0.079  -0.090 308.229

                      1                      2                      3
                      A                      A                      A
 Frequencies --     23.1753                24.8053                39.0776
 Red. masses --      3.7986                 3.8011                 3.6897
 Frc consts  --      0.0012                 0.0014                 0.0033
 IR Inten    --      0.2811                 0.2823                 0.0017

                      4                      5                      6
                      A                      A                      A
 Frequencies --     53.3747                53.4618                70.7111
 Red. masses --      5.2511                 5.2464                 5.1674
 Frc consts  --      0.0088                 0.0088                 0.0152
 IR Inten    --      0.0851                 0.0857                 0.3092

                      7                      8                      9
                      A                      A                      A
 Frequencies --    181.4918               202.3597               202.7704
 Red. masses --      4.5620                 4.6437                 4.6424
 Frc consts  --      0.0885                 0.1120                 0.1125
 IR Inten    --      0.3534                 1.1344                 1.1372

                     10                     11                     12
                      A                      A                      A
 Frequencies --    245.5609               259.6902               259.8455
 Red. masses --      5.7391                 4.7181                 4.7213
 Frc consts  --      0.2039                 0.1875                 0.1878
 IR Inten    --      0.4819                 0.2266                 0.2256

                     13                     14                     15
                      A                      A                      A
 Frequencies --    408.8294               408.9466               412.4555
 Red. masses --      3.0793                 3.0819                 3.5975
 Frc consts  --      0.3032                 0.3037                 0.3606
 IR Inten    --      1.9564                 1.9851                 0.1607

                     16                     17                     18
                      A                      A                      A
 Frequencies --    417.1693               429.4199               429.5474
 Red. masses --      4.6106                 7.2943                 7.3178
 Frc consts  --      0.4727                 0.7925                 0.7955
 IR Inten    --      0.5633                 7.6712                 7.7384

                     19                     20                     21
                      A                      A                      A
 Frequencies --    509.4368               509.6353               516.4116
 Red. masses --      4.2474                 4.2447                 4.5905
 Frc consts  --      0.6495                 0.6496                 0.7213
 IR Inten    --     26.1353                26.1197                11.9420

                     22                     23                     24
                      A                      A                      A
 Frequencies --    632.7177               632.7425               633.3717
 Red. masses --      6.4272                 6.4273                 6.4371
 Frc consts  --      1.5160                 1.5161                 1.5214
 IR Inten    --      0.1797                 0.1800                 0.0162

                     25                     26                     27
                      A                      A                      A
 Frequencies --    691.8461               705.1929               705.2025
 Red. masses --      6.5808                 5.7609                 5.7317
 Frc consts  --      1.8559                 1.6879                 1.6794
 IR Inten    --      0.7908                 1.1136                 1.1191

                     28                     29                     30
                      A                      A                      A
 Frequencies --    712.2804               712.3791               713.3922
 Red. masses --      2.1998                 2.1953                 2.1360
 Frc consts  --      0.6575                 0.6564                 0.6405
 IR Inten    --     26.4607                26.4528                16.5489

                     31                     32                     33
                      A                      A                      A
 Frequencies --    761.4292               762.9283               762.9525
 Red. masses --      1.6146                 1.6476                 1.6488
 Frc consts  --      0.5515                 0.5650                 0.5655
 IR Inten    --     19.1631                24.9794                24.8801

                     34                     35                     36
                      A                      A                      A
 Frequencies --    866.2347               866.2789               868.8691
 Red. masses --      1.2477                 1.2477                 1.2462
 Frc consts  --      0.5516                 0.5517                 0.5543
 IR Inten    --      0.2279                 0.2206                 0.1315

                     37                     38                     39
                      A                      A                      A
 Frequencies --    932.9927               933.0335               934.3495
 Red. masses --      1.3441                 1.3441                 1.3383
 Frc consts  --      0.6894                 0.6894                 0.6884
 IR Inten    --      1.2587                 1.2706                 0.0378

                     40                     41                     42
                      A                      A                      A
 Frequencies --    975.8497               975.8874               977.7631
 Red. masses --      1.3613                 1.3611                 1.3554
 Frc consts  --      0.7638                 0.7637                 0.7634
 IR Inten    --      0.0174                 0.0150                 0.1397

                     43                     44                     45
                      A                      A                      A
 Frequencies --   1000.3966              1000.4199              1001.1668
 Red. masses --      1.2543                 1.2542                 1.2524
 Frc consts  --      0.7396                 0.7396                 0.7396
 IR Inten    --      0.0797                 0.0827                 0.0006

                     46                     47                     48
                      A                      A                      A
 Frequencies --   1015.3511              1015.3737              1015.7528
 Red. masses --      6.3106                 6.3122                 6.3099
 Frc consts  --      3.8332                 3.8343                 3.8357
 IR Inten    --      4.3692                 4.3614                 0.0481

                     49                     50                     51
                      A                      A                      A
 Frequencies --   1052.7030              1052.7600              1052.9440
 Red. masses --      3.3130                 3.3171                 3.2539
 Frc consts  --      2.1631                 2.1660                 2.1255
 IR Inten    --      2.0871                 2.0739                 0.0460

                     52                     53                     54
                      A                      A                      A
 Frequencies --   1107.7795              1108.0335              1109.4479
 Red. masses --      1.8866                 1.8750                 1.6547
 Frc consts  --      1.3641                 1.3563                 1.2000
 IR Inten    --      4.3059                 4.1547                 2.9238

                     55                     56                     57
                      A                      A                      A
 Frequencies --   1110.8314              1110.8693              1115.9458
 Red. masses --      2.1958                 2.1918                 2.6117
 Frc consts  --      1.5964                 1.5936                 1.9163
 IR Inten    --      9.4997                 9.3755                 1.1530

                     58                     59                     60
                      A                      A                      A
 Frequencies --   1193.5295              1193.9437              1193.9919
 Red. masses --      1.1034                 1.1001                 1.1001
 Frc consts  --      0.9261                 0.9239                 0.9240
 IR Inten    --      0.0018                 0.1320                 0.1290

                     61                     62                     63
                      A                      A                      A
 Frequencies --   1219.1969              1219.4379              1220.7885
 Red. masses --      1.1475                 1.1477                 1.1473
 Frc consts  --      1.0049                 1.0055                 1.0074
 IR Inten    --      6.0604                 5.9484                 0.4397

                     64                     65                     66
                      A                      A                      A
 Frequencies --   1325.0297              1328.7106              1328.8658
 Red. masses --      3.4862                 3.4842                 3.5072
 Frc consts  --      3.6062                 3.6242                 3.6490
 IR Inten    --      2.6461                 2.4324                 2.4507

                     67                     68                     69
                      A                      A                      A
 Frequencies --   1365.1376              1365.2814              1365.6965
 Red. masses --      1.6580                 1.6542                 1.6427
 Frc consts  --      1.8204                 1.8167                 1.8051
 IR Inten    --      0.1440                 1.0804                 2.1682

                     70                     71                     72
                      A                      A                      A
 Frequencies --   1480.5432              1480.9723              1481.0559
 Red. masses --      2.1104                 2.1151                 2.1155
 Frc consts  --      2.7256                 2.7332                 2.7340
 IR Inten    --     16.6879                 6.5989                 6.5812

                     73                     74                     75
                      A                      A                      A
 Frequencies --   1531.1218              1531.5785              1531.7108
 Red. masses --      2.0154                 1.9989                 1.9976
 Frc consts  --      2.7838                 2.7626                 2.7613
 IR Inten    --      2.0726                10.1440                10.0846

                     76                     77                     78
                      A                      A                      A
 Frequencies --   1630.1994              1630.4562              1630.5020
 Red. masses --      5.1012                 5.1122                 5.1125
 Frc consts  --      7.9873                 8.0071                 8.0080
 IR Inten    --      0.3973                 0.0461                 0.0456

                     79                     80                     81
                      A                      A                      A
 Frequencies --   1646.1720              1646.2082              1647.9921
 Red. masses --      5.2717                 5.2690                 5.2816
 Frc consts  --      8.4169                 8.4130                 8.4514
 IR Inten    --      3.5049                 3.5100                 0.3210

                     82                     83                     84
                      A                      A                      A
 Frequencies --   3176.1403              3176.1510              3176.1568
 Red. masses --      1.0854                 1.0853                 1.0853
 Frc consts  --      6.4510                 6.4508                 6.4509
 IR Inten    --      2.6081                 1.7239                 1.6794

                     85                     86                     87
                      A                      A                      A
 Frequencies --   3182.6736              3182.6843              3182.7556
 Red. masses --      1.0875                 1.0875                 1.0876
 Frc consts  --      6.4902                 6.4902                 6.4912
 IR Inten    --      0.7854                 0.7818                 0.1206

                     88                     89                     90
                      A                      A                      A
 Frequencies --   3192.8559              3192.8702              3192.9966
 Red. masses --      1.0916                 1.0916                 1.0917
 Frc consts  --      6.5567                 6.5567                 6.5579
 IR Inten    --     10.1685                10.0509                47.5713

                     91                     92                     93
                      A                      A                      A
 Frequencies --   3203.8502              3203.9040              3204.2896
 Red. masses --      1.0940                 1.0941                 1.0942
 Frc consts  --      6.6164                 6.6168                 6.6192
 IR Inten    --     40.6733                40.5618                 5.1162

                     94                     95                     96
                      A                      A                      A
 Frequencies --   3209.9567              3210.0369              3210.9096
 Red. masses --      1.0958                 1.0957                 1.0957
 Frc consts  --      6.6525                 6.6523                 6.6558
 IR Inten    --     21.0443                20.4388                16.2156

 - Thermochemistry -
 -------------------
 Temperature   298.150 Kelvin.  Pressure   1.00000 Atm.
 Atom     1 has atomic number 15 and mass  30.97376

 Molecular mass:   262.09114 amu.
 Principal axes and moments of inertia in atomic units:
                           1         2         3
     Eigenvalues --  5162.158555164.566038680.08864
           X            0.99986   0.01660  -0.00001
           Y           -0.01660   0.99986  -0.00001
           Z            0.00001   0.00001   1.00000
 This molecule is an asymmetric top.
 Rotational symmetry number  1.
 Warning -- assumption of classical behavior for rotation
           may cause significant error
 Rotational temperatures (Kelvin)      0.01678     0.01677     0.00998
 Rotational constants (GHZ):           0.34961     0.34945     0.20792
 Zero-point vibrational energy     719984.4 (Joules/Mol)
                                  172.08041 (Kcal/Mol)
 Warning -- explicit consideration of  21 degrees of freedom as
           vibrations may cause significant error
 Vibrational temperatures:     33.34    35.69    56.22    76.79    76.92
          (Kelvin)            101.74   261.13   291.15   291.74   353.31
                              373.64   373.86   588.21   588.38   593.43
                              600.21   617.84   618.02   732.97   733.25
                              743.00   910.34   910.38   911.28   995.41
                             1014.62  1014.63  1024.81  1024.95  1026.41
                             1095.53  1097.68  1097.72  1246.32  1246.38
                             1250.11  1342.37  1342.43  1344.32  1404.03
                             1404.08  1406.78  1439.35  1439.38  1440.46
                             1460.86  1460.90  1461.44  1514.60  1514.69
                             1514.95  1593.85  1594.21  1596.25  1598.24
                             1598.29  1605.60  1717.22  1717.82  1717.89
                             1754.15  1754.50  1756.44  1906.42  1911.72
                             1911.94  1964.13  1964.34  1964.93  2130.17
                             2130.79  2130.91  2202.94  2203.60  2203.79
                             2345.49  2345.86  2345.93  2368.47  2368.53
                             2371.09  4569.76  4569.77  4569.78  4579.16
                             4579.17  4579.28  4593.81  4593.83  4594.01
                             4609.63  4609.70  4610.26  4618.41  4618.53
                             4619.78

 Zero-point correction=                           0.274228 (Hartree/Particle)
 Thermal correction to Energy=                    0.290144
 Thermal correction to Enthalpy=                  0.291088
 Thermal correction to Gibbs Free Energy=         0.227834
 Sum of electronic and zero-point Energies=          -1036.024008
 Sum of electronic and thermal Energies=             -1036.008092
 Sum of electronic and thermal Enthalpies=           -1036.007148
 Sum of electronic and thermal Free Energies=        -1036.070402

                     E (Thermal)             CV                S
                      KCal/Mol        Cal/Mol-Kelvin    Cal/Mol-Kelvin
 Total                  182.068             62.534            133.130
 Electronic               0.000              0.000              0.000
 Translational            0.889              2.981             42.590
 Rotational               0.889              2.981             33.803
 Vibrational            180.290             56.573             56.737
 Vibration     1          0.593              1.985              6.342
 Vibration     2          0.593              1.985              6.207
 Vibration     3          0.594              1.981              5.305
 Vibration     4          0.596              1.976              4.688
 Vibration     5          0.596              1.976              4.685
 Vibration     6          0.598              1.968              4.133
 Vibration     7          0.630              1.865              2.313
 Vibration     8          0.639              1.837              2.112
 Vibration     9          0.639              1.836              2.108
 Vibration    10          0.660              1.770              1.762
 Vibration    11          0.668              1.746              1.664
 Vibration    12          0.668              1.746              1.663
 Vibration    13          0.773              1.451              0.931
 Vibration    14          0.773              1.451              0.930
 Vibration    15          0.776              1.443              0.918
 Vibration    16          0.780              1.433              0.902
 Vibration    17          0.791              1.406              0.861
 Vibration    18          0.791              1.406              0.860
 Vibration    19          0.865              1.229              0.635
 Vibration    20          0.865              1.229              0.634
 Vibration    21          0.871              1.214              0.618

                           ! Non-Optimized Parameters !
 Normal termination of Gaussian 16 at Sun Dec  8 19:06:35 2019.
 Gaussian 16:  ES64L-G16RevA.03 25-Dec-2016

 ----------------------------------------------------------------------
 # TD(NStates=10, Root=1) B3LYP/6-31G* scf=xqc volume pop=NPA density=c
 urrent Geom=AllCheck Guess=Read
 ----------------------------------------------------------------------

 Structure from the checkpoint file:  "direct_arylation_ligand38_conf63.chk"
 -------------------
 Title Card Required
 -------------------
 Charge =  0 Multiplicity = 1

                         Standard orientation:
 ---------------------------------------------------------------------
 Center     Atomic      Atomic             Coordinates (Angstroms)
 Number     Number       Type             X           Y           Z
 ---------------------------------------------------------------------
      1         15           0       -0.000205    0.000217   -1.206443
      2          6           0       -1.593783    0.502214   -0.402601
      3          6           0       -2.779889    0.090033   -1.033439
      4          6           0       -4.026107    0.429396   -0.507240
      5          6           0       -4.107804    1.204677    0.651404
      6          6           0       -2.937572    1.632877    1.280118
      7          6           0       -1.689741    1.283084    0.759359
      8          6           0        1.231550    1.128958   -0.402440
      9          6           0        1.954419    0.821802    0.760446
     10          6           0        2.881485    1.727130    1.281523
     11          6           0        3.097367    2.954098    0.652212
     12          6           0        2.386462    3.270821   -0.507307
     13          6           0        1.469226    2.361646   -1.033830
     14          6           0        0.361954   -1.630847   -0.402678
     15          6           0       -0.267944   -2.105390    0.757985
     16          6           0        0.053153   -3.360928    1.278741
     17          6           0        1.010791   -4.159246    0.651326
     18          6           0        1.643026   -3.699798   -0.506005
     19          6           0        1.313743   -2.450896   -1.032214
     20          1           0       -2.724484   -0.497505   -1.947138
     21          1           0       -4.932494    0.098016   -1.007414
     22          1           0       -5.077846    1.478864    1.057770
     23          1           0       -2.993832    2.240678    2.179769
     24          1           0       -0.786810    1.623031    1.257593
     25          1           0        1.796114   -0.129704    1.259135
     26          1           0        3.434941    1.472069    2.181849
     27          1           0        3.820023    3.656769    1.058800
     28          1           0        2.553933    4.221006   -1.007933
     29          1           0        0.933764    2.607278   -1.948192
     30          1           0       -1.015138   -1.494229    1.255263
     31          1           0       -0.446368   -3.714344    2.177370
     32          1           0        1.258434   -5.136417    1.057650
     33          1           0        2.384575   -4.318229   -1.005177
     34          1           0        1.796249   -2.108313   -1.944872
 ---------------------------------------------------------------------

 SCF Done:  E(RB3LYP) =  -1036.29823534     A.U. after    1 cycles

 Excitation energies and oscillator strengths:

 Excited State   1:      Singlet-A      4.5099 eV  274.92 nm  f=0.1275  <S**2>=0.000
      69 -> 70         0.69694
 This state for optimization and/or second-order correction.
 Total Energy, E(TD-HF/TD-DFT) =  -1036.13249993
 Copying the excited state density for this state as the 1-particle RhoCI density.

 Excited State   2:      Singlet-A      4.5112 eV  274.84 nm  f=0.1281  <S**2>=0.000
      69 -> 71         0.69692

 Excited State   3:      Singlet-A      4.7578 eV  260.59 nm  f=0.0022  <S**2>=0.000
      67 -> 70         0.12167
      68 -> 71        -0.12195
      69 -> 72         0.67460

 Excited State   4:      Singlet-A      5.0579 eV  245.13 nm  f=0.0002  <S**2>=0.000
      66 -> 70        -0.16907
      67 -> 71        -0.13507
      68 -> 70         0.13499
      69 -> 74         0.63040

 Excited State   5:      Singlet-A      5.0584 eV  245.10 nm  f=0.0002  <S**2>=0.000
      66 -> 71         0.16942
      67 -> 70         0.13559
      68 -> 71         0.13541
      69 -> 75         0.63005

 Excited State   6:      Singlet-A      5.1513 eV  240.68 nm  f=0.0085  <S**2>=0.000
      69 -> 73         0.67916

 Excited State   7:      Singlet-A      5.4272 eV  228.45 nm  f=0.0146  <S**2>=0.000
      63 -> 72        -0.16616
      64 -> 74        -0.13479
      65 -> 75         0.13340
      67 -> 70         0.41933
      68 -> 71        -0.41578
      69 -> 72        -0.16539

 Excited State   8:      Singlet-A      5.5140 eV  224.85 nm  f=0.0005  <S**2>=0.000
      63 -> 74         0.14467
      64 -> 70        -0.10251
      64 -> 72         0.21541
      65 -> 71         0.10260
      65 -> 72        -0.18279
      66 -> 70         0.22654
      67 -> 71         0.27019
      68 -> 70        -0.27302
      68 -> 72        -0.16334
      69 -> 74         0.28825

 Excited State   9:      Singlet-A      5.5147 eV  224.82 nm  f=0.0004  <S**2>=0.000
      63 -> 75         0.14490
      64 -> 71        -0.10105
      64 -> 72        -0.18296
      65 -> 70        -0.10224
      65 -> 72        -0.21553
      66 -> 71        -0.22569
      67 -> 70        -0.26955
      67 -> 72         0.16352
      68 -> 71        -0.27505
      69 -> 75         0.28880

 Excited State  10:      Singlet-A      5.6180 eV  220.69 nm  f=0.0009  <S**2>=0.000
      67 -> 71         0.47170
      68 -> 70         0.47719

 The electronic state is 1-A.
 Alpha  occ. eigenvalues --  -77.08112 -10.19447 -10.19447 -10.19446 -10.19147
 Alpha  occ. eigenvalues --  -10.19147 -10.19145 -10.19117 -10.19117 -10.19115
 Alpha  occ. eigenvalues --  -10.19031 -10.19031 -10.19029 -10.19008 -10.19007
 Alpha  occ. eigenvalues --  -10.19006 -10.18963 -10.18962 -10.18960  -6.54843
 Alpha  occ. eigenvalues --   -4.71102  -4.71101  -4.70600  -0.85560  -0.84846
 Alpha  occ. eigenvalues --   -0.84845  -0.76669  -0.74366  -0.74365  -0.74329
 Alpha  occ. eigenvalues --   -0.73821  -0.73821  -0.64436  -0.60337  -0.60307
 Alpha  occ. eigenvalues --   -0.60305  -0.59207  -0.59206  -0.55448  -0.51435
 Alpha  occ. eigenvalues --   -0.51434  -0.49296  -0.45440  -0.45439  -0.44775
 Alpha  occ. eigenvalues --   -0.44344  -0.44344  -0.44068  -0.41946  -0.41868
 Alpha  occ. eigenvalues --   -0.41867  -0.40379  -0.40377  -0.36843  -0.36352
 Alpha  occ. eigenvalues --   -0.36350  -0.35898  -0.34252  -0.34251  -0.34224
 Alpha  occ. eigenvalues --   -0.31884  -0.31883  -0.26773  -0.25449  -0.25446
 Alpha  occ. eigenvalues --   -0.25242  -0.24704  -0.24703  -0.21146
 Alpha virt. eigenvalues --   -0.01882  -0.01879  -0.00829   0.00174   0.00426
 Alpha virt. eigenvalues --    0.00430   0.06882   0.06889   0.09492   0.11039
 Alpha virt. eigenvalues --    0.11040   0.13901   0.14529   0.14530   0.15165

 Mulliken charges:
               1
     1  P    0.450695
     2  C   -0.123468
     3  C   -0.175482
     4  C   -0.118003
     5  C   -0.154625
     6  C   -0.122941
     7  C   -0.161682
     8  C   -0.117419
     9  C   -0.174592
    10  C   -0.115911
    11  C   -0.160645
    12  C   -0.125486
    13  C   -0.161671
    14  C   -0.080106
    15  C   -0.149392
    16  C   -0.119217
    17  C   -0.120877
    18  C   -0.119586
    19  C   -0.155138
    20  H    0.120781
    21  H    0.121294
    22  H    0.118885
    23  H    0.126251
    24  H    0.151094
    25  H    0.124879
    26  H    0.121367
    27  H    0.113990
    28  H    0.118935
    29  H    0.122508
    30  H    0.174751
    31  H    0.148060
    32  H    0.147671
    33  H    0.144302
    34  H    0.150775
 Sum of Mulliken charges =  -0.00000

 Dipole moment (field-independent basis, Debye):
    X=              0.3198    Y=             -3.7383    Z=             -0.1970  Tot=              3.7572
 Quadrupole moment (field-independent basis, Debye-Ang):
   XX=           -119.2733   YY=           -107.8103   ZZ=           -110.6492
   XY=             -4.0234   XZ=             -0.6957   YZ=             -1.1562

 Summary of Natural Population Analysis:

                                       Natural Population
                Natural  -----------------------------------------------
    Atom  No    Charge         Core      Valence    Rydberg      Total
 -----------------------------------------------------------------------
      P    1    1.24234      9.99750     3.70991    0.05025    13.75766
      C    2   -0.46334      1.99888     4.43814    0.02631     6.46334
      C    3   -0.23658      1.99902     4.22136    0.01620     6.23658
      C    4   -0.23540      1.99910     4.22172    0.01458     6.23540
      C    5   -0.26771      1.99909     4.25270    0.01592     6.26771
      C    6   -0.23683      1.99909     4.22313    0.01461     6.23683
      C    7   -0.23160      1.99899     4.21521    0.01740     6.23160
      C    8   -0.45808      1.99886     4.43469    0.02453     6.45808
      C    9   -0.26363      1.99899     4.24678    0.01786     6.26363
      C   10   -0.22460      1.99909     4.21113    0.01438     6.22460
      C   11   -0.28068      1.99910     4.26536    0.01622     6.28068
      C   12   -0.24902      1.99910     4.23481    0.01511     6.24902
      C   13   -0.21752      1.99901     4.20254    0.01596     6.21752
      C   14   -0.37519      1.99890     4.35162    0.02467     6.37519
      C   15   -0.20777      1.99900     4.19265    0.01612     6.20777
      C   16   -0.22862      1.99909     4.21551    0.01402     6.22862
      C   17   -0.19616      1.99909     4.18338    0.01368     6.19616
      C   18   -0.23622      1.99910     4.22285    0.01428     6.23622
      C   19   -0.20019      1.99902     4.18611    0.01507     6.20019
      H   20    0.22679      0.00000     0.77223    0.00098     0.77321
      H   21    0.23279      0.00000     0.76626    0.00096     0.76721
      H   22    0.23027      0.00000     0.76882    0.00091     0.76973
      H   23    0.23619      0.00000     0.76292    0.00089     0.76381
      H   24    0.24725      0.00000     0.75120    0.00155     0.75275
      H   25    0.23308      0.00000     0.76554    0.00138     0.76692
      H   26    0.23378      0.00000     0.76534    0.00088     0.76622
      H   27    0.22825      0.00000     0.77086    0.00089     0.77175
      H   28    0.23239      0.00000     0.76672    0.00088     0.76761
      H   29    0.22914      0.00000     0.76974    0.00113     0.77086
      H   30    0.26083      0.00000     0.73797    0.00119     0.73917
      H   31    0.24620      0.00000     0.75294    0.00086     0.75380
      H   32    0.24274      0.00000     0.75644    0.00082     0.75726
      H   33    0.24389      0.00000     0.75523    0.00088     0.75611
      H   34    0.24322      0.00000     0.75557    0.00122     0.75678
 =======================================================================
   * Total *   -0.00000     45.98001    91.64739    0.37260   138.00000

 Normal termination of Gaussian 16 at Sun Dec  8 19:22:31 2019.
