 Gaussian 16, Revision A.03,

 -----------------------------------------
 # opt=CalcFc B3LYP/6-31G* scf=xqc scf=xqc
 -----------------------------------------

 -------------------
 Title Card Required
 -------------------
 Symbolic Z-matrix:
 Charge =  0 Multiplicity = 1

 SCF Done:  E(RB3LYP) =  -1036.24325298     A.U. after   14 cycles
 SCF Done:  E(RB3LYP) =  -1036.27130866     A.U. after   15 cycles
 SCF Done:  E(RB3LYP) =  -1036.25527229     A.U. after   14 cycles
 SCF Done:  E(RB3LYP) =  -1036.28225019     A.U. after   13 cycles
 SCF Done:  E(RB3LYP) =  -1036.27436895     A.U. after   13 cycles
 SCF Done:  E(RB3LYP) =  -1036.28388372     A.U. after   13 cycles
 SCF Done:  E(RB3LYP) =  -1036.28077736     A.U. after   15 cycles
 SCF Done:  E(RB3LYP) =  -1036.28265936     A.U. after   13 cycles
 SCF Done:  E(RB3LYP) =  -1036.28466042     A.U. after   11 cycles
 SCF Done:  E(RB3LYP) =  -1036.28500587     A.U. after   12 cycles
 SCF Done:  E(RB3LYP) =  -1036.29823455     A.U. after    7 cycles
 SCF Done:  E(RB3LYP) =  -1036.29823424     A.U. after    9 cycles
 SCF Done:  E(RB3LYP) =  -1036.29823153     A.U. after    9 cycles
 SCF Done:  E(RB3LYP) =  -1036.29823856     A.U. after    7 cycles
 SCF Done:  E(RB3LYP) =  -1036.29703117     A.U. after   11 cycles
 SCF Done:  E(RB3LYP) =  -1036.29793818     A.U. after   11 cycles
 SCF Done:  E(RB3LYP) =  -1036.29754937     A.U. after   12 cycles
 SCF Done:  E(RB3LYP) =  -1036.29823906     A.U. after    8 cycles
 Optimization completed.
    -- Stationary point found.
 Normal termination of Gaussian 16 at Sun Dec  8 19:07:00 2019.

 ----------------------------------------------------------------------
 # freq B3LYP/6-31G* scf=xqc volume NMR pop=NPA density=current Geom=Al
 lCheck Guess=Read
 ----------------------------------------------------------------------

 Structure from the checkpoint file:  "direct_arylation_ligand38_conf162.chk"
 -------------------
 Title Card Required
 -------------------
 Charge =  0 Multiplicity = 1

 SCF Done:  E(RB3LYP) =  -1036.29823906     A.U. after    1 cycles

      1  P    Isotropic =   361.6227   Anisotropy =    39.8895

      2  C    Isotropic =    56.1281   Anisotropy =   179.4004

      3  C    Isotropic =    62.5835   Anisotropy =   174.0479

      4  C    Isotropic =    68.6766   Anisotropy =   163.8898

      5  C    Isotropic =    68.1640   Anisotropy =   167.3261

      6  C    Isotropic =    68.7320   Anisotropy =   164.1372

      7  C    Isotropic =    61.0124   Anisotropy =   164.1424

      8  C    Isotropic =    56.1291   Anisotropy =   179.4278

      9  C    Isotropic =    62.5834   Anisotropy =   174.0600

     10  C    Isotropic =    68.6752   Anisotropy =   163.8981

     11  C    Isotropic =    68.1505   Anisotropy =   167.3135

     12  C    Isotropic =    68.7285   Anisotropy =   164.1219

     13  C    Isotropic =    61.0121   Anisotropy =   164.1412

     14  C    Isotropic =    56.1121   Anisotropy =   179.4396

     15  C    Isotropic =    61.0226   Anisotropy =   164.1529

     16  C    Isotropic =    68.7301   Anisotropy =   164.1242

     17  C    Isotropic =    68.1702   Anisotropy =   167.3000

     18  C    Isotropic =    68.6742   Anisotropy =   163.8888

     19  C    Isotropic =    62.5920   Anisotropy =   174.0385

     20  H    Isotropic =    25.4016   Anisotropy =    12.2324

     21  H    Isotropic =    25.0483   Anisotropy =     6.0863

     22  H    Isotropic =    25.0207   Anisotropy =     3.6407

     23  H    Isotropic =    24.9256   Anisotropy =     4.5896

     24  H    Isotropic =    24.6126   Anisotropy =     9.2536

     25  H    Isotropic =    25.4008   Anisotropy =    12.2281

     26  H    Isotropic =    25.0474   Anisotropy =     6.0870

     27  H    Isotropic =    25.0214   Anisotropy =     3.6398

     28  H    Isotropic =    24.9276   Anisotropy =     4.5864

     29  H    Isotropic =    24.6107   Anisotropy =     9.2527

     30  H    Isotropic =    24.6124   Anisotropy =     9.2571

     31  H    Isotropic =    24.9281   Anisotropy =     4.5868

     32  H    Isotropic =    25.0223   Anisotropy =     3.6365

     33  H    Isotropic =    25.0483   Anisotropy =     6.0866

     34  H    Isotropic =    25.4008   Anisotropy =    12.2359

  Exact polarizability: 224.207   0.027 224.156   0.026   0.020 164.965
 Approx polarizability: 331.041   0.067 330.948   0.058   0.048 307.863

                      1                      2                      3
                      A                      A                      A
 Frequencies --     24.6737                25.3553                39.2582
 Red. masses --      3.8001                 3.8042                 3.6903
 Frc consts  --      0.0014                 0.0014                 0.0034
 IR Inten    --      0.2815                 0.2814                 0.0023

                      4                      5                      6
                      A                      A                      A
 Frequencies --     53.4549                53.6609                70.8027
 Red. masses --      5.2493                 5.2432                 5.1682
 Frc consts  --      0.0088                 0.0089                 0.0153
 IR Inten    --      0.0872                 0.0880                 0.3110

                      7                      8                      9
                      A                      A                      A
 Frequencies --    181.8322               202.5652               202.7837
 Red. masses --      4.5612                 4.6437                 4.6391
 Frc consts  --      0.0889                 0.1123                 0.1124
 IR Inten    --      0.3531                 1.1302                 1.1272

                     10                     11                     12
                      A                      A                      A
 Frequencies --    245.5335               259.8531               260.1352
 Red. masses --      5.7383                 4.7215                 4.7266
 Frc consts  --      0.2038                 0.1878                 0.1884
 IR Inten    --      0.4834                 0.2292                 0.2278

                     13                     14                     15
                      A                      A                      A
 Frequencies --    408.9542               409.0232               412.3946
 Red. masses --      3.0814                 3.0808                 3.6628
 Frc consts  --      0.3036                 0.3037                 0.3670
 IR Inten    --      1.9822                 1.9636                 0.1756

                     16                     17                     18
                      A                      A                      A
 Frequencies --    417.0767               429.5568               429.6371
 Red. masses --      4.5119                 7.3084                 7.3150
 Frc consts  --      0.4624                 0.7945                 0.7956
 IR Inten    --      0.5488                 7.7014                 7.6987

                     19                     20                     21
                      A                      A                      A
 Frequencies --    509.5419               509.6549               516.5174
 Red. masses --      4.2485                 4.2466                 4.5882
 Frc consts  --      0.6499                 0.6499                 0.7212
 IR Inten    --     26.0687                26.0392                11.9579

                     22                     23                     24
                      A                      A                      A
 Frequencies --    632.7436               632.7708               633.3913
 Red. masses --      6.4273                 6.4272                 6.4370
 Frc consts  --      1.5161                 1.5162                 1.5215
 IR Inten    --      0.1806                 0.1822                 0.0169

                     25                     26                     27
                      A                      A                      A
 Frequencies --    691.8201               705.1882               705.2484
 Red. masses --      6.5802                 5.7760                 5.7554
 Frc consts  --      1.8556                 1.6923                 1.6866
 IR Inten    --      0.7912                 1.1290                 1.0847

                     28                     29                     30
                      A                      A                      A
 Frequencies --    712.4007               712.4962               713.4150
 Red. masses --      2.1977                 2.1933                 2.1359
 Frc consts  --      0.6572                 0.6560                 0.6405
 IR Inten    --     26.3165                26.4744                16.6478

                     31                     32                     33
                      A                      A                      A
 Frequencies --    761.4253               762.8787               762.9305
 Red. masses --      1.6149                 1.6473                 1.6491
 Frc consts  --      0.5516                 0.5649                 0.5656
 IR Inten    --     19.2740                24.9564                24.8710

                     34                     35                     36
                      A                      A                      A
 Frequencies --    866.3208               866.4369               868.9026
 Red. masses --      1.2476                 1.2475                 1.2462
 Frc consts  --      0.5517                 0.5518                 0.5543
 IR Inten    --      0.2197                 0.2148                 0.1305

                     37                     38                     39
                      A                      A                      A
 Frequencies --    933.0179               933.1292               934.3507
 Red. masses --      1.3439                 1.3436                 1.3382
 Frc consts  --      0.6893                 0.6893                 0.6883
 IR Inten    --      1.2579                 1.2745                 0.0288

                     40                     41                     42
                      A                      A                      A
 Frequencies --    975.9567               976.0589               977.7913
 Red. masses --      1.3610                 1.3608                 1.3552
 Frc consts  --      0.7638                 0.7638                 0.7634
 IR Inten    --      0.0154                 0.0149                 0.1380

                     43                     44                     45
                      A                      A                      A
 Frequencies --   1000.4098              1000.4619              1001.1742
 Red. masses --      1.2541                 1.2538                 1.2523
 Frc consts  --      0.7395                 0.7394                 0.7395
 IR Inten    --      0.0773                 0.0833                 0.0002

                     46                     47                     48
                      A                      A                      A
 Frequencies --   1015.3604              1015.4082              1015.7640
 Red. masses --      6.3140                 6.3114                 6.3105
 Frc consts  --      3.8353                 3.8340                 3.8362
 IR Inten    --      4.3337                 4.3749                 0.0730

                     49                     50                     51
                      A                      A                      A
 Frequencies --   1052.7289              1052.7851              1052.9322
 Red. masses --      3.3104                 3.3211                 3.2537
 Frc consts  --      2.1615                 2.1688                 2.1253
 IR Inten    --      2.0851                 2.0681                 0.0525

                     52                     53                     54
                      A                      A                      A
 Frequencies --   1107.7927              1108.1384              1109.4699
 Red. masses --      1.9114                 1.8776                 1.6551
 Frc consts  --      1.3820                 1.3584                 1.2003
 IR Inten    --      4.7470                 4.1408                 2.9673

                     55                     56                     57
                      A                      A                      A
 Frequencies --   1110.8166              1110.9330              1115.8932
 Red. masses --      2.1612                 2.1899                 2.6113
 Frc consts  --      1.5712                 1.5924                 1.9158
 IR Inten    --      9.0153                 9.3389                 1.1362

                     58                     59                     60
                      A                      A                      A
 Frequencies --   1193.5302              1193.9557              1194.0008
 Red. masses --      1.1034                 1.1000                 1.1001
 Frc consts  --      0.9261                 0.9239                 0.9240
 IR Inten    --      0.0013                 0.1309                 0.1257

                     61                     62                     63
                      A                      A                      A
 Frequencies --   1219.1947              1219.6284              1220.7692
 Red. masses --      1.1475                 1.1479                 1.1473
 Frc consts  --      1.0050                 1.0060                 1.0074
 IR Inten    --      5.8728                 6.0775                 0.4919

                     64                     65                     66
                      A                      A                      A
 Frequencies --   1325.0340              1328.7458              1328.9765
 Red. masses --      3.4822                 3.4843                 3.5379
 Frc consts  --      3.6021                 3.6245                 3.6815
 IR Inten    --      2.6380                 2.4358                 2.4459

                     67                     68                     69
                      A                      A                      A
 Frequencies --   1365.0597              1365.4890              1365.6387
 Red. masses --      1.6633                 1.6455                 1.6394
 Frc consts  --      1.8261                 1.8077                 1.8014
 IR Inten    --      0.7685                 0.7125                 1.9140

                     70                     71                     72
                      A                      A                      A
 Frequencies --   1480.5535              1481.0367              1481.0763
 Red. masses --      2.1105                 2.1156                 2.1162
 Frc consts  --      2.7257                 2.7340                 2.7350
 IR Inten    --     16.6322                 6.6427                 6.6160

                     73                     74                     75
                      A                      A                      A
 Frequencies --   1531.0769              1531.6076              1531.7323
 Red. masses --      2.0157                 1.9985                 1.9970
 Frc consts  --      2.7840                 2.7621                 2.7605
 IR Inten    --      2.0225                10.1462                10.1488

                     76                     77                     78
                      A                      A                      A
 Frequencies --   1630.1858              1630.4788              1630.4898
 Red. masses --      5.1020                 5.1125                 5.1118
 Frc consts  --      7.9885                 8.0079                 8.0069
 IR Inten    --      0.3973                 0.0437                 0.0448

                     79                     80                     81
                      A                      A                      A
 Frequencies --   1646.1936              1646.2075              1647.9879
 Red. masses --      5.2704                 5.2685                 5.2820
 Frc consts  --      8.4150                 8.4121                 8.4519
 IR Inten    --      3.5248                 3.5207                 0.3188

                     82                     83                     84
                      A                      A                      A
 Frequencies --   3176.1027              3176.1543              3176.1700
 Red. masses --      1.0854                 1.0853                 1.0853
 Frc consts  --      6.4508                 6.4509                 6.4509
 IR Inten    --      2.1191                 2.0623                 1.8055

                     85                     86                     87
                      A                      A                      A
 Frequencies --   3182.6731              3182.7246              3182.7883
 Red. masses --      1.0875                 1.0875                 1.0876
 Frc consts  --      6.4903                 6.4905                 6.4913
 IR Inten    --      0.7310                 0.7902                 0.1771

                     88                     89                     90
                      A                      A                      A
 Frequencies --   3192.8719              3192.8963              3193.0187
 Red. masses --      1.0916                 1.0917                 1.0918
 Frc consts  --      6.5568                 6.5570                 6.5581
 IR Inten    --     10.2009                11.4850                46.7363

                     91                     92                     93
                      A                      A                      A
 Frequencies --   3203.9113              3204.0356              3204.3984
 Red. masses --      1.0941                 1.0942                 1.0943
 Frc consts  --      6.6170                 6.6184                 6.6205
 IR Inten    --     40.4687                41.5041                 6.2672

                     94                     95                     96
                      A                      A                      A
 Frequencies --   3210.0803              3210.3207              3211.1600
 Red. masses --      1.0957                 1.0955                 1.0955
 Frc consts  --      6.6524                 6.6520                 6.6554
 IR Inten    --     20.0946                18.7872                16.3174

 - Thermochemistry -
 -------------------
 Temperature   298.150 Kelvin.  Pressure   1.00000 Atm.
 Atom     1 has atomic number 15 and mass  30.97376

 Molecular mass:   262.09114 amu.
 Principal axes and moments of inertia in atomic units:
                           1         2         3
     Eigenvalues --  5162.261435163.222278681.66107
           X            0.99949   0.03182   0.00001
           Y           -0.03182   0.99949   0.00001
           Z           -0.00001  -0.00001   1.00000
 This molecule is an asymmetric top.
 Rotational symmetry number  1.
 Warning -- assumption of classical behavior for rotation
           may cause significant error
 Rotational temperatures (Kelvin)      0.01678     0.01678     0.00998
 Rotational constants (GHZ):           0.34960     0.34954     0.20788
 Zero-point vibrational energy     720026.1 (Joules/Mol)
                                  172.09037 (Kcal/Mol)
 Warning -- explicit consideration of  21 degrees of freedom as
           vibrations may cause significant error
 Vibrational temperatures:     35.50    36.48    56.48    76.91    77.21
          (Kelvin)            101.87   261.62   291.45   291.76   353.27
                              373.87   374.28   588.39   588.49   593.34
                              600.08   618.04   618.15   733.12   733.28
                              743.15   910.38   910.42   911.31   995.37
                             1014.61  1014.70  1024.99  1025.12  1026.45
                             1095.52  1097.61  1097.69  1246.44  1246.61
                             1250.16  1342.40  1342.56  1344.32  1404.18
                             1404.33  1406.82  1439.37  1439.44  1440.47
                             1460.88  1460.95  1461.46  1514.64  1514.72
                             1514.93  1593.87  1594.36  1596.28  1598.22
                             1598.38  1605.52  1717.22  1717.84  1717.90
                             1754.15  1754.77  1756.41  1906.43  1911.77
                             1912.10  1964.02  1964.63  1964.85  2130.19
                             2130.88  2130.94  2202.88  2203.64  2203.82
                             2345.47  2345.90  2345.91  2368.51  2368.53
                             2371.09  4569.70  4569.78  4569.80  4579.16
                             4579.23  4579.32  4593.83  4593.87  4594.04
                             4609.71  4609.89  4610.41  4618.59  4618.94
                             4620.14

 Zero-point correction=                           0.274243 (Hartree/Particle)
 Thermal correction to Energy=                    0.290152
 Thermal correction to Enthalpy=                  0.291096
 Thermal correction to Gibbs Free Energy=         0.227937
 Sum of electronic and zero-point Energies=          -1036.023996
 Sum of electronic and thermal Energies=             -1036.008087
 Sum of electronic and thermal Enthalpies=           -1036.007143
 Sum of electronic and thermal Free Energies=        -1036.070302

                     E (Thermal)             CV                S
                      KCal/Mol        Cal/Mol-Kelvin    Cal/Mol-Kelvin
 Total                  182.073             62.529            132.929
 Electronic               0.000              0.000              0.000
 Translational            0.889              2.981             42.590
 Rotational               0.889              2.981             33.803
 Vibrational            180.295             56.568             56.536
 Vibration     1          0.593              1.985              6.217
 Vibration     2          0.593              1.985              6.163
 Vibration     3          0.594              1.981              5.296
 Vibration     4          0.596              1.976              4.685
 Vibration     5          0.596              1.976              4.678
 Vibration     6          0.598              1.968              4.131
 Vibration     7          0.630              1.864              2.310
 Vibration     8          0.639              1.836              2.110
 Vibration     9          0.639              1.836              2.108
 Vibration    10          0.660              1.770              1.762
 Vibration    11          0.668              1.746              1.663
 Vibration    12          0.668              1.746              1.661
 Vibration    13          0.773              1.451              0.930
 Vibration    14          0.773              1.451              0.930
 Vibration    15          0.776              1.443              0.918
 Vibration    16          0.780              1.433              0.902
 Vibration    17          0.791              1.406              0.860
 Vibration    18          0.791              1.406              0.860
 Vibration    19          0.865              1.229              0.635
 Vibration    20          0.865              1.229              0.634
 Vibration    21          0.872              1.213              0.618

                           ! Non-Optimized Parameters !
 Normal termination of Gaussian 16 at Sun Dec  8 19:20:30 2019.
 Gaussian 16:  ES64L-G16RevA.03 25-Dec-2016

 ----------------------------------------------------------------------
 # TD(NStates=10, Root=1) B3LYP/6-31G* scf=xqc volume pop=NPA density=c
 urrent Geom=AllCheck Guess=Read
 ----------------------------------------------------------------------

 Structure from the checkpoint file:  "direct_arylation_ligand38_conf163.chk"
 -------------------
 Title Card Required
 -------------------
 Charge =  0 Multiplicity = 1

                         Standard orientation:
 ---------------------------------------------------------------------
 Center     Atomic      Atomic             Coordinates (Angstroms)
 Number     Number       Type             X           Y           Z
 ---------------------------------------------------------------------
      1         15           0        0.000100   -0.000032   -1.206360
      2          6           0        1.622728   -0.398294   -0.402522
      3          6           0        1.768820   -1.173658    0.757900
      4          6           0        3.036576   -1.442581    1.278595
      5          6           0        4.176689   -0.937828    0.651382
      6          6           0        4.045158   -0.167077   -0.505725
      7          6           0        2.779730    0.091517   -1.031935
      8          6           0       -1.156214   -1.205990   -0.402430
      9          6           0       -1.899288   -0.945357    0.759058
     10          6           0       -2.765964   -1.908748    1.280009
     11          6           0       -2.900360   -3.147890    0.651903
     12          6           0       -2.168591   -3.418821   -0.506259
     13          6           0       -1.311890   -2.452315   -1.032600
     14          6           0       -0.466310    1.604404   -0.402703
     15          6           0       -1.469770    2.360981   -1.031481
     16          6           0       -1.878882    3.585961   -0.505030
     17          6           0       -1.276654    4.085610    0.651652
     18          6           0       -0.268597    3.351197    1.278167
     19          6           0        0.132661    2.119023    0.757255
     20          1           0        0.889681   -1.572735    1.254826
     21          1           0        3.131924   -2.047351    2.176992
     22          1           0        5.162372   -1.149155    1.057657
     23          1           0        4.928260    0.223617   -1.004739
     24          1           0        2.686539    0.676130   -1.944443
     25          1           0       -1.804128    0.014998    1.256789
     26          1           0       -3.336138   -1.689381    2.179308
     27          1           0       -3.576156   -3.895808    1.058364
     28          1           0       -2.272898   -4.378483   -1.005949
     29          1           0       -0.760129   -2.663578   -1.945865
     30          1           0       -1.929880    1.987742   -1.943687
     31          1           0       -2.659462    4.154935   -1.003515
     32          1           0       -1.586755    5.044711    1.058165
     33          1           0        0.207855    3.736399    2.176261
     34          1           0        0.918371    1.557639    1.253821
 ---------------------------------------------------------------------

 SCF Done:  E(RB3LYP) =  -1036.29823906     A.U. after    1 cycles

 Excitation energies and oscillator strengths:

 Excited State   1:      Singlet-A      4.5094 eV  274.95 nm  f=0.1278  <S**2>=0.000
      69 -> 70         0.69711
 This state for optimization and/or second-order correction.
 Total Energy, E(TD-HF/TD-DFT) =  -1036.13252102
 Copying the excited state density for this state as the 1-particle RhoCI density.

 Excited State   2:      Singlet-A      4.5104 eV  274.88 nm  f=0.1282  <S**2>=0.000
      69 -> 71         0.69710

 Excited State   3:      Singlet-A      4.7558 eV  260.70 nm  f=0.0022  <S**2>=0.000
      67 -> 70         0.12296
      68 -> 71         0.12316
      69 -> 72         0.67477

 Excited State   4:      Singlet-A      5.0572 eV  245.16 nm  f=0.0002  <S**2>=0.000
      66 -> 70         0.16774
      67 -> 70         0.10279
      68 -> 71        -0.10278
      69 -> 74         0.62933

 Excited State   5:      Singlet-A      5.0576 eV  245.14 nm  f=0.0002  <S**2>=0.000
      66 -> 71         0.16801
      67 -> 71        -0.10291
      68 -> 70        -0.10295
      69 -> 75         0.62907

 Excited State   6:      Singlet-A      5.1500 eV  240.75 nm  f=0.0085  <S**2>=0.000
      69 -> 73         0.67912

 Excited State   7:      Singlet-A      5.4278 eV  228.42 nm  f=0.0147  <S**2>=0.000
      63 -> 72        -0.16605
      64 -> 74        -0.14403
      65 -> 75        -0.14300
      67 -> 70         0.42192
      68 -> 71         0.41870
      69 -> 72        -0.16478

 Excited State   8:      Singlet-A      5.5141 eV  224.85 nm  f=0.0004  <S**2>=0.000
      63 -> 74         0.14355
      64 -> 71        -0.11591
      64 -> 72         0.22525
      64 -> 74         0.11551
      65 -> 70        -0.11737
      65 -> 72        -0.17132
      65 -> 75        -0.11624
      66 -> 70        -0.22585
      67 -> 70        -0.17761
      67 -> 71        -0.20410
      68 -> 70        -0.20533
      68 -> 71         0.18161
      68 -> 72         0.16323
      69 -> 74         0.28650

 Excited State   9:      Singlet-A      5.5146 eV  224.83 nm  f=0.0004  <S**2>=0.000
      63 -> 75         0.14376
      64 -> 70        -0.11609
      64 -> 72         0.17147
      64 -> 75        -0.11584
      65 -> 71         0.11533
      65 -> 72         0.22531
      65 -> 74        -0.11542
      66 -> 71        -0.22528
      67 -> 70        -0.20387
      67 -> 71         0.17868
      67 -> 72        -0.16353
      68 -> 70         0.18099
      68 -> 71         0.20662
      69 -> 75         0.28691

 Excited State  10:      Singlet-A      5.6184 eV  220.68 nm  f=0.0009  <S**2>=0.000
      67 -> 71        -0.47794
      68 -> 70         0.48139

 The electronic state is 1-A.
 Alpha  occ. eigenvalues --  -77.08113 -10.19448 -10.19447 -10.19447 -10.19147
 Alpha  occ. eigenvalues --  -10.19146 -10.19145 -10.19118 -10.19117 -10.19116
 Alpha  occ. eigenvalues --  -10.19031 -10.19030 -10.19029 -10.19008 -10.19007
 Alpha  occ. eigenvalues --  -10.19007 -10.18963 -10.18961 -10.18960  -6.54844
 Alpha  occ. eigenvalues --   -4.71103  -4.71103  -4.70602  -0.85560  -0.84846
 Alpha  occ. eigenvalues --   -0.84845  -0.76669  -0.74367  -0.74366  -0.74329
 Alpha  occ. eigenvalues --   -0.73821  -0.73821  -0.64436  -0.60335  -0.60308
 Alpha  occ. eigenvalues --   -0.60307  -0.59207  -0.59207  -0.55448  -0.51435
 Alpha  occ. eigenvalues --   -0.51435  -0.49295  -0.45441  -0.45440  -0.44773
 Alpha  occ. eigenvalues --   -0.44345  -0.44345  -0.44067  -0.41946  -0.41869
 Alpha  occ. eigenvalues --   -0.41868  -0.40378  -0.40377  -0.36845  -0.36351
 Alpha  occ. eigenvalues --   -0.36350  -0.35899  -0.34252  -0.34251  -0.34224
 Alpha  occ. eigenvalues --   -0.31884  -0.31883  -0.26781  -0.25448  -0.25446
 Alpha  occ. eigenvalues --   -0.25244  -0.24704  -0.24703  -0.21141
 Alpha virt. eigenvalues --   -0.01880  -0.01877  -0.00832   0.00172   0.00428
 Alpha virt. eigenvalues --    0.00431   0.06881   0.06886   0.09493   0.11038
 Alpha virt. eigenvalues --    0.11038   0.13905   0.14528   0.14529   0.15164

 Mulliken charges:
               1
     1  P    0.450548
     2  C   -0.112260
     3  C   -0.155254
     4  C   -0.123382
     5  C   -0.143403
     6  C   -0.116877
     7  C   -0.172510
     8  C   -0.127639
     9  C   -0.176357
    10  C   -0.117254
    11  C   -0.167765
    12  C   -0.124574
    13  C   -0.167158
    14  C   -0.081423
    15  C   -0.152553
    16  C   -0.121589
    17  C   -0.125007
    18  C   -0.117446
    19  C   -0.153909
    20  H    0.163919
    21  H    0.133721
    22  H    0.128393
    23  H    0.128530
    24  H    0.129185
    25  H    0.121460
    26  H    0.116834
    27  H    0.107913
    28  H    0.113979
    29  H    0.115738
    30  H    0.149230
    31  H    0.142044
    32  H    0.144245
    33  H    0.145119
    34  H    0.165503
 Sum of Mulliken charges =  -0.00000

 Dipole moment (field-independent basis, Debye):
    X=              1.1533    Y=              3.5744    Z=             -0.1954  Tot=              3.7609
 Quadrupole moment (field-independent basis, Debye-Ang):
   XX=           -116.0456   YY=           -111.0019   ZZ=           -110.6813
   XY=             -6.5477   XZ=              1.0875   YZ=              0.7985

 Summary of Natural Population Analysis:

                                       Natural Population
                Natural  -----------------------------------------------
    Atom  No    Charge         Core      Valence    Rydberg      Total
 -----------------------------------------------------------------------
      P    1    1.24210      9.99750     3.71016    0.05024    13.75790
      C    2   -0.43880      1.99889     4.41364    0.02627     6.43880
      C    3   -0.21754      1.99899     4.20161    0.01694     6.21754
      C    4   -0.23708      1.99909     4.22349    0.01449     6.23708
      C    5   -0.24391      1.99909     4.22958    0.01524     6.24391
      C    6   -0.23273      1.99910     4.21926    0.01438     6.23273
      C    7   -0.23004      1.99902     4.21508    0.01594     6.23004
      C    8   -0.47820      1.99886     4.45436    0.02497     6.47820
      C    9   -0.26658      1.99899     4.24953    0.01806     6.26658
      C   10   -0.22736      1.99909     4.21375    0.01453     6.22736
      C   11   -0.29570      1.99910     4.27996    0.01664     6.29570
      C   12   -0.24784      1.99910     4.23361    0.01513     6.24784
      C   13   -0.22708      1.99901     4.21184    0.01622     6.22708
      C   14   -0.37975      1.99890     4.35660    0.02426     6.37975
      C   15   -0.19723      1.99902     4.18315    0.01507     6.19723
      C   16   -0.23999      1.99910     4.22643    0.01446     6.23999
      C   17   -0.20499      1.99909     4.19194    0.01396     6.20499
      C   18   -0.22569      1.99909     4.21260    0.01400     6.22569
      C   19   -0.21851      1.99899     4.20314    0.01638     6.21851
      H   20    0.25440      0.00000     0.74412    0.00148     0.74560
      H   21    0.23966      0.00000     0.75946    0.00089     0.76034
      H   22    0.23437      0.00000     0.76473    0.00090     0.76563
      H   23    0.23611      0.00000     0.76293    0.00096     0.76389
      H   24    0.23108      0.00000     0.76789    0.00103     0.76892
      H   25    0.23104      0.00000     0.76751    0.00144     0.76896
      H   26    0.23171      0.00000     0.76742    0.00088     0.76829
      H   27    0.22559      0.00000     0.77351    0.00089     0.77441
      H   28    0.22995      0.00000     0.76916    0.00089     0.77005
      H   29    0.22533      0.00000     0.77362    0.00105     0.77467
      H   30    0.24279      0.00000     0.75597    0.00124     0.75721
      H   31    0.24302      0.00000     0.75611    0.00087     0.75698
      H   32    0.24129      0.00000     0.75788    0.00083     0.75871
      H   33    0.24480      0.00000     0.75434    0.00086     0.75520
      H   34    0.25576      0.00000     0.74303    0.00121     0.74424
 =======================================================================
   * Total *   -0.00000     45.98001    91.64741    0.37259   138.00000

 Normal termination of Gaussian 16 at Sun Dec  8 19:33:44 2019.
