 Gaussian 16, Revision A.03,

 -----------------------------------------
 # opt=CalcFc B3LYP/6-31G* scf=xqc scf=xqc
 -----------------------------------------

 -------------------
 Title Card Required
 -------------------
 Symbolic Z-matrix:
 Charge =  0 Multiplicity = 1

 SCF Done:  E(RB3LYP) =  -1036.28940931     A.U. after   14 cycles
 SCF Done:  E(RB3LYP) =  -1036.29717923     A.U. after   14 cycles
 SCF Done:  E(RB3LYP) =  -1036.29759109     A.U. after   14 cycles
 SCF Done:  E(RB3LYP) =  -1036.29791401     A.U. after   12 cycles
 SCF Done:  E(RB3LYP) =  -1036.29803561     A.U. after   12 cycles
 SCF Done:  E(RB3LYP) =  -1036.29814887     A.U. after   13 cycles
 SCF Done:  E(RB3LYP) =  -1036.29820200     A.U. after   11 cycles
 SCF Done:  E(RB3LYP) =  -1036.29822986     A.U. after   12 cycles
 SCF Done:  E(RB3LYP) =  -1036.29822732     A.U. after   11 cycles
 SCF Done:  E(RB3LYP) =  -1036.29823695     A.U. after    9 cycles
 SCF Done:  E(RB3LYP) =  -1036.29823768     A.U. after    8 cycles
 SCF Done:  E(RB3LYP) =  -1036.29820719     A.U. after   11 cycles
 SCF Done:  E(RB3LYP) =  -1036.29821915     A.U. after   11 cycles
 SCF Done:  E(RB3LYP) =  -1036.29822201     A.U. after   11 cycles
 SCF Done:  E(RB3LYP) =  -1036.29823625     A.U. after   10 cycles
 SCF Done:  E(RB3LYP) =  -1036.29823340     A.U. after    7 cycles
 SCF Done:  E(RB3LYP) =  -1036.29823632     A.U. after    8 cycles
 SCF Done:  E(RB3LYP) =  -1036.29823714     A.U. after    9 cycles
 Optimization completed.
    -- Stationary point found.
 Normal termination of Gaussian 16 at Sun Dec  8 18:49:28 2019.

 ----------------------------------------------------------------------
 # freq B3LYP/6-31G* scf=xqc volume NMR pop=NPA density=current Geom=Al
 lCheck Guess=Read
 ----------------------------------------------------------------------

 Structure from the checkpoint file:  "direct_arylation_ligand38_conf112.chk"
 -------------------
 Title Card Required
 -------------------
 Charge =  0 Multiplicity = 1

 SCF Done:  E(RB3LYP) =  -1036.29823714     A.U. after    1 cycles

      1  P    Isotropic =   361.4651   Anisotropy =    39.6412

      2  C    Isotropic =    56.0938   Anisotropy =   179.4112

      3  C    Isotropic =    62.5532   Anisotropy =   174.0040

      4  C    Isotropic =    68.6799   Anisotropy =   163.8958

      5  C    Isotropic =    68.1701   Anisotropy =   167.3908

      6  C    Isotropic =    68.7292   Anisotropy =   164.1511

      7  C    Isotropic =    60.9784   Anisotropy =   164.0615

      8  C    Isotropic =    56.0806   Anisotropy =   179.4202

      9  C    Isotropic =    62.6160   Anisotropy =   174.0032

     10  C    Isotropic =    68.6793   Anisotropy =   163.8882

     11  C    Isotropic =    68.1810   Anisotropy =   167.3112

     12  C    Isotropic =    68.7332   Anisotropy =   164.1141

     13  C    Isotropic =    61.0522   Anisotropy =   164.1503

     14  C    Isotropic =    56.1503   Anisotropy =   179.4191

     15  C    Isotropic =    61.0102   Anisotropy =   164.1184

     16  C    Isotropic =    68.7336   Anisotropy =   164.1255

     17  C    Isotropic =    68.1698   Anisotropy =   167.3452

     18  C    Isotropic =    68.6713   Anisotropy =   163.9033

     19  C    Isotropic =    62.5658   Anisotropy =   174.0839

     20  H    Isotropic =    25.4026   Anisotropy =    12.2127

     21  H    Isotropic =    25.0474   Anisotropy =     6.0846

     22  H    Isotropic =    25.0164   Anisotropy =     3.6468

     23  H    Isotropic =    24.9247   Anisotropy =     4.5908

     24  H    Isotropic =    24.6128   Anisotropy =     9.2461

     25  H    Isotropic =    25.4095   Anisotropy =    12.2442

     26  H    Isotropic =    25.0491   Anisotropy =     6.0899

     27  H    Isotropic =    25.0212   Anisotropy =     3.6419

     28  H    Isotropic =    24.9288   Anisotropy =     4.5891

     29  H    Isotropic =    24.6171   Anisotropy =     9.2584

     30  H    Isotropic =    24.6129   Anisotropy =     9.2488

     31  H    Isotropic =    24.9269   Anisotropy =     4.5865

     32  H    Isotropic =    25.0191   Anisotropy =     3.6428

     33  H    Isotropic =    25.0468   Anisotropy =     6.0875

     34  H    Isotropic =    25.3994   Anisotropy =    12.2339

  Exact polarizability: 224.286   0.042 223.998   0.087   0.082 165.012
 Approx polarizability: 331.231   0.094 330.628   0.200   0.198 307.973

                      1                      2                      3
                      A                      A                      A
 Frequencies --     23.2214                25.1032                39.0935
 Red. masses --      3.7983                 3.7994                 3.6902
 Frc consts  --      0.0012                 0.0014                 0.0033
 IR Inten    --      0.2803                 0.2824                 0.0026

                      4                      5                      6
                      A                      A                      A
 Frequencies --     53.4099                53.5541                70.7942
 Red. masses --      5.2514                 5.2539                 5.1667
 Frc consts  --      0.0088                 0.0089                 0.0153
 IR Inten    --      0.0861                 0.0859                 0.3111

                      7                      8                      9
                      A                      A                      A
 Frequencies --    181.9105               202.5162               202.9507
 Red. masses --      4.5641                 4.6411                 4.6397
 Frc consts  --      0.0890                 0.1121                 0.1126
 IR Inten    --      0.3523                 1.1287                 1.1325

                     10                     11                     12
                      A                      A                      A
 Frequencies --    245.6132               259.9740               260.1619
 Red. masses --      5.7397                 4.7217                 4.7260
 Frc consts  --      0.2040                 0.1880                 0.1885
 IR Inten    --      0.4837                 0.2245                 0.2304

                     13                     14                     15
                      A                      A                      A
 Frequencies --    408.9058               408.9742               412.4595
 Red. masses --      3.0774                 3.0847                 3.6350
 Frc consts  --      0.3032                 0.3040                 0.3644
 IR Inten    --      1.9585                 1.9843                 0.1683

                     16                     17                     18
                      A                      A                      A
 Frequencies --    417.1615               429.4744               429.6307
 Red. masses --      4.5519                 7.3017                 7.3255
 Frc consts  --      0.4667                 0.7935                 0.7967
 IR Inten    --      0.5527                 7.6628                 7.7526

                     19                     20                     21
                      A                      A                      A
 Frequencies --    509.5744               509.6234               516.5352
 Red. masses --      4.2460                 4.2468                 4.5918
 Frc consts  --      0.6496                 0.6499                 0.7218
 IR Inten    --     25.9839                26.1115                11.9702

                     22                     23                     24
                      A                      A                      A
 Frequencies --    632.7416               632.7797               633.3872
 Red. masses --      6.4273                 6.4276                 6.4370
 Frc consts  --      1.5161                 1.5164                 1.5215
 IR Inten    --      0.1830                 0.1815                 0.0162

                     25                     26                     27
                      A                      A                      A
 Frequencies --    691.9082               705.1671               705.2521
 Red. masses --      6.5788                 5.7374                 5.7793
 Frc consts  --      1.8556                 1.6809                 1.6936
 IR Inten    --      0.8029                 1.1105                 1.1262

                     28                     29                     30
                      A                      A                      A
 Frequencies --    712.3169               712.4843               713.4310
 Red. masses --      2.1973                 2.1939                 2.1385
 Frc consts  --      0.6569                 0.6562                 0.6413
 IR Inten    --     26.4301                26.3693                16.5875

                     31                     32                     33
                      A                      A                      A
 Frequencies --    761.4315               762.8899               762.9292
 Red. masses --      1.6132                 1.6480                 1.6497
 Frc consts  --      0.5511                 0.5651                 0.5657
 IR Inten    --     19.2821                24.8555                24.9579

                     34                     35                     36
                      A                      A                      A
 Frequencies --    866.2905               866.4229               868.9065
 Red. masses --      1.2476                 1.2475                 1.2461
 Frc consts  --      0.5516                 0.5518                 0.5543
 IR Inten    --      0.2212                 0.2172                 0.1304

                     37                     38                     39
                      A                      A                      A
 Frequencies --    932.9483               933.0712               934.4320
 Red. masses --      1.3441                 1.3437                 1.3381
 Frc consts  --      0.6893                 0.6892                 0.6884
 IR Inten    --      1.2616                 1.2747                 0.0301

                     40                     41                     42
                      A                      A                      A
 Frequencies --    975.9028               976.0574               977.8075
 Red. masses --      1.3611                 1.3608                 1.3551
 Frc consts  --      0.7638                 0.7638                 0.7634
 IR Inten    --      0.0153                 0.0155                 0.1368

                     43                     44                     45
                      A                      A                      A
 Frequencies --   1000.3794              1000.4510              1001.1997
 Red. masses --      1.2542                 1.2540                 1.2523
 Frc consts  --      0.7395                 0.7395                 0.7396
 IR Inten    --      0.0783                 0.0796                 0.0003

                     46                     47                     48
                      A                      A                      A
 Frequencies --   1015.3850              1015.3942              1015.7645
 Red. masses --      6.3125                 6.3118                 6.3074
 Frc consts  --      3.8345                 3.8342                 3.8343
 IR Inten    --      4.3610                 4.3591                 0.0444

                     49                     50                     51
                      A                      A                      A
 Frequencies --   1052.7349              1052.7683              1052.9254
 Red. masses --      3.3122                 3.3170                 3.2523
 Frc consts  --      2.1627                 2.1660                 2.1244
 IR Inten    --      2.0914                 2.0904                 0.0399

                     52                     53                     54
                      A                      A                      A
 Frequencies --   1107.7687              1108.1684              1109.5172
 Red. masses --      1.8874                 1.8756                 1.6556
 Frc consts  --      1.3646                 1.3571                 1.2008
 IR Inten    --      4.3486                 4.0833                 2.9010

                     55                     56                     57
                      A                      A                      A
 Frequencies --   1110.8248              1110.9440              1116.1514
 Red. masses --      2.1833                 2.2016                 2.6133
 Frc consts  --      1.5872                 1.6009                 1.9182
 IR Inten    --      9.3012                 9.5500                 1.1903

                     58                     59                     60
                      A                      A                      A
 Frequencies --   1193.5193              1193.9392              1193.9718
 Red. masses --      1.1034                 1.1001                 1.1001
 Frc consts  --      0.9260                 0.9239                 0.9240
 IR Inten    --      0.0016                 0.1290                 0.1269

                     61                     62                     63
                      A                      A                      A
 Frequencies --   1219.2361              1219.5602              1220.8630
 Red. masses --      1.1476                 1.1479                 1.1473
 Frc consts  --      1.0051                 1.0059                 1.0075
 IR Inten    --      5.9403                 6.1010                 0.4341

                     64                     65                     66
                      A                      A                      A
 Frequencies --   1325.0848              1328.7754              1328.8807
 Red. masses --      3.4976                 3.4890                 3.5223
 Frc consts  --      3.6183                 3.6296                 3.6648
 IR Inten    --      2.6255                 2.4332                 2.4433

                     67                     68                     69
                      A                      A                      A
 Frequencies --   1365.0680              1365.4443              1365.6716
 Red. masses --      1.6593                 1.6467                 1.6403
 Frc consts  --      1.8217                 1.8089                 1.8025
 IR Inten    --      0.5621                 0.1769                 2.6653

                     70                     71                     72
                      A                      A                      A
 Frequencies --   1480.5441              1481.0126              1481.0551
 Red. masses --      2.1108                 2.1156                 2.1162
 Frc consts  --      2.7260                 2.7340                 2.7349
 IR Inten    --     16.5510                 6.5980                 6.7299

                     73                     74                     75
                      A                      A                      A
 Frequencies --   1531.0645              1531.5965              1531.6810
 Red. masses --      2.0155                 1.9987                 1.9972
 Frc consts  --      2.7836                 2.7624                 2.7607
 IR Inten    --      2.0224                10.0968                10.1829

                     76                     77                     78
                      A                      A                      A
 Frequencies --   1630.1670              1630.4492              1630.4792
 Red. masses --      5.1017                 5.1139                 5.1111
 Frc consts  --      7.9878                 8.0097                 8.0056
 IR Inten    --      0.3939                 0.0473                 0.0439

                     79                     80                     81
                      A                      A                      A
 Frequencies --   1646.1715              1646.1898              1647.9682
 Red. masses --      5.2706                 5.2690                 5.2823
 Frc consts  --      8.4152                 8.4128                 8.4523
 IR Inten    --      3.5238                 3.5165                 0.3201

                     82                     83                     84
                      A                      A                      A
 Frequencies --   3176.0649              3176.0747              3176.1562
 Red. masses --      1.0854                 1.0853                 1.0853
 Frc consts  --      6.4508                 6.4506                 6.4509
 IR Inten    --      2.3930                 1.7162                 1.9472

                     85                     86                     87
                      A                      A                      A
 Frequencies --   3182.6294              3182.6539              3182.7245
 Red. masses --      1.0875                 1.0875                 1.0876
 Frc consts  --      6.4900                 6.4902                 6.4910
 IR Inten    --      0.7607                 0.7509                 0.1648

                     88                     89                     90
                      A                      A                      A
 Frequencies --   3192.8270              3192.8712              3192.9867
 Red. masses --      1.0916                 1.0916                 1.0917
 Frc consts  --      6.5567                 6.5568                 6.5578
 IR Inten    --     11.2096                10.6913                46.3344

                     91                     92                     93
                      A                      A                      A
 Frequencies --   3203.8994              3203.9978              3204.3575
 Red. masses --      1.0941                 1.0942                 1.0943
 Frc consts  --      6.6172                 6.6178                 6.6199
 IR Inten    --     41.4190                40.8026                 5.6167

                     94                     95                     96
                      A                      A                      A
 Frequencies --   3210.0745              3210.2059              3211.0537
 Red. masses --      1.0957                 1.0956                 1.0956
 Frc consts  --      6.6520                 6.6520                 6.6555
 IR Inten    --     20.0845                19.3306                16.3082

 - Thermochemistry -
 -------------------
 Temperature   298.150 Kelvin.  Pressure   1.00000 Atm.
 Atom     1 has atomic number 15 and mass  30.97376

 Molecular mass:   262.09114 amu.
 Principal axes and moments of inertia in atomic units:
                           1         2         3
     Eigenvalues --  5160.920915163.933648680.00559
           X            0.99991   0.01366   0.00002
           Y           -0.01366   0.99991   0.00002
           Z           -0.00002  -0.00002   1.00000
 This molecule is an asymmetric top.
 Rotational symmetry number  1.
 Warning -- assumption of classical behavior for rotation
           may cause significant error
 Rotational temperatures (Kelvin)      0.01678     0.01677     0.00998
 Rotational constants (GHZ):           0.34969     0.34949     0.20792
 Zero-point vibrational energy     720011.6 (Joules/Mol)
                                  172.08691 (Kcal/Mol)
 Warning -- explicit consideration of  21 degrees of freedom as
           vibrations may cause significant error
 Vibrational temperatures:     33.41    36.12    56.25    76.84    77.05
          (Kelvin)            101.86   261.73   291.38   292.00   353.38
                              374.04   374.31   588.32   588.42   593.44
                              600.20   617.92   618.14   733.16   733.23
                              743.18   910.37   910.43   911.30   995.50
                             1014.58  1014.70  1024.87  1025.11  1026.47
                             1095.53  1097.63  1097.68  1246.40  1246.59
                             1250.16  1342.30  1342.48  1344.44  1404.11
                             1404.33  1406.85  1439.32  1439.43  1440.50
                             1460.91  1460.93  1461.46  1514.65  1514.70
                             1514.92  1593.83  1594.41  1596.35  1598.23
                             1598.40  1605.89  1717.21  1717.81  1717.86
                             1754.21  1754.68  1756.55  1906.50  1911.81
                             1911.96  1964.03  1964.57  1964.90  2130.17
                             2130.85  2130.91  2202.86  2203.63  2203.75
                             2345.45  2345.85  2345.90  2368.47  2368.50
                             2371.06  4569.65  4569.66  4569.78  4579.09
                             4579.13  4579.23  4593.77  4593.83  4594.00
                             4609.70  4609.84  4610.36  4618.58  4618.77
                             4619.99

 Zero-point correction=                           0.274238 (Hartree/Particle)
 Thermal correction to Energy=                    0.290150
 Thermal correction to Enthalpy=                  0.291094
 Thermal correction to Gibbs Free Energy=         0.227864
 Sum of electronic and zero-point Energies=          -1036.023999
 Sum of electronic and thermal Energies=             -1036.008087
 Sum of electronic and thermal Enthalpies=           -1036.007143
 Sum of electronic and thermal Free Energies=        -1036.070374

                     E (Thermal)             CV                S
                      KCal/Mol        Cal/Mol-Kelvin    Cal/Mol-Kelvin
 Total                  182.072             62.529            133.080
 Electronic               0.000              0.000              0.000
 Translational            0.889              2.981             42.590
 Rotational               0.889              2.981             33.803
 Vibrational            180.294             56.567             56.687
 Vibration     1          0.593              1.985              6.338
 Vibration     2          0.593              1.985              6.183
 Vibration     3          0.594              1.981              5.305
 Vibration     4          0.596              1.976              4.687
 Vibration     5          0.596              1.976              4.682
 Vibration     6          0.598              1.968              4.131
 Vibration     7          0.630              1.864              2.309
 Vibration     8          0.639              1.836              2.110
 Vibration     9          0.639              1.836              2.106
 Vibration    10          0.660              1.770              1.762
 Vibration    11          0.668              1.746              1.662
 Vibration    12          0.668              1.746              1.661
 Vibration    13          0.773              1.451              0.930
 Vibration    14          0.773              1.451              0.930
 Vibration    15          0.776              1.443              0.918
 Vibration    16          0.780              1.433              0.902
 Vibration    17          0.791              1.406              0.860
 Vibration    18          0.791              1.406              0.860
 Vibration    19          0.865              1.229              0.635
 Vibration    20          0.865              1.229              0.634
 Vibration    21          0.872              1.213              0.618

                           ! Non-Optimized Parameters !
 Normal termination of Gaussian 16 at Sun Dec  8 19:04:02 2019.
 Gaussian 16:  ES64L-G16RevA.03 25-Dec-2016

 ----------------------------------------------------------------------
 # TD(NStates=10, Root=1) B3LYP/6-31G* scf=xqc volume pop=NPA density=c
 urrent Geom=AllCheck Guess=Read
 ----------------------------------------------------------------------

 Structure from the checkpoint file:  "direct_arylation_ligand38_conf113.chk"
 -------------------
 Title Card Required
 -------------------
 Charge =  0 Multiplicity = 1

                         Standard orientation:
 ---------------------------------------------------------------------
 Center     Atomic      Atomic             Coordinates (Angstroms)
 Number     Number       Type             X           Y           Z
 ---------------------------------------------------------------------
      1         15           0       -0.000097   -0.000431   -1.206828
      2          6           0       -1.400594   -0.910869   -0.402261
      3          6           0       -2.062370   -0.489079    0.761020
      4          6           0       -3.125670   -1.229461    1.282452
      5          6           0       -3.540916   -2.403991    0.653095
      6          6           0       -2.892330   -2.833305   -0.506782
      7          6           0       -1.838140   -2.087531   -1.033655
      8          6           0       -0.088610    1.668118   -0.403162
      9          6           0        0.614711    2.033801    0.754725
     10          6           0        0.504830    3.325023    1.275641
     11          6           0       -0.312225    4.268745    0.651291
     12          6           0       -1.015349    3.918356   -0.503309
     13          6           0       -0.896110    2.632434   -1.029877
     14          6           0        1.489127   -0.757764   -0.403022
     15          6           0        2.727021   -0.545948   -1.033408
     16          6           0        3.900355   -1.085572   -0.506909
     17          6           0        3.853134   -1.864032    0.651531
     18          6           0        2.628236   -2.094220    1.279809
     19          6           0        1.455029   -1.543954    0.758831
     20          1           0       -1.748986    0.423114    1.259783
     21          1           0       -3.629121   -0.886944    2.183107
     22          1           0       -4.369262   -2.978134    1.059907
     23          1           0       -3.214222   -3.742873   -1.007379
     24          1           0       -1.350709   -2.417791   -1.948248
     25          1           0        1.254143    1.309079    1.249701
     26          1           0        1.058869    3.592354    2.172042
     27          1           0       -0.395614    5.273287    1.057777
     28          1           0       -1.647968    4.649390   -1.000209
     29          1           0       -1.431327    2.373149   -1.940617
     30          1           0        2.769192    0.042992   -1.946916
     31          1           0        4.849038   -0.907555   -1.006740
     32          1           0        4.764782   -2.294067    1.058055
     33          1           0        2.583556   -2.703231    2.179294
     34          1           0        0.508326   -1.730812    1.256796
 ---------------------------------------------------------------------

 SCF Done:  E(RB3LYP) =  -1036.29823714     A.U. after    3 cycles

 Excitation energies and oscillator strengths:

 Excited State   1:      Singlet-A      4.5092 eV  274.96 nm  f=0.1273  <S**2>=0.000
      69 -> 70         0.69702
 This state for optimization and/or second-order correction.
 Total Energy, E(TD-HF/TD-DFT) =  -1036.13252793
 Copying the excited state density for this state as the 1-particle RhoCI density.

 Excited State   2:      Singlet-A      4.5121 eV  274.78 nm  f=0.1285  <S**2>=0.000
      69 -> 71         0.69697

 Excited State   3:      Singlet-A      4.7565 eV  260.66 nm  f=0.0022  <S**2>=0.000
      67 -> 70        -0.12433
      68 -> 71         0.12504
      69 -> 72         0.67471

 Excited State   4:      Singlet-A      5.0573 eV  245.16 nm  f=0.0002  <S**2>=0.000
      66 -> 70         0.16377
      67 -> 71        -0.13054
      68 -> 70         0.13025
      69 -> 74         0.63022

 Excited State   5:      Singlet-A      5.0586 eV  245.09 nm  f=0.0002  <S**2>=0.000
      66 -> 71         0.16472
      67 -> 70        -0.13171
      68 -> 71        -0.13164
      69 -> 75         0.62927

 Excited State   6:      Singlet-A      5.1506 eV  240.72 nm  f=0.0085  <S**2>=0.000
      69 -> 73         0.67903

 Excited State   7:      Singlet-A      5.4277 eV  228.43 nm  f=0.0147  <S**2>=0.000
      63 -> 72         0.16604
      64 -> 74        -0.14747
      65 -> 75         0.14442
      67 -> 70         0.42321
      68 -> 71        -0.41392
      69 -> 72         0.16495

 Excited State   8:      Singlet-A      5.5137 eV  224.87 nm  f=0.0005  <S**2>=0.000
      63 -> 74         0.14283
      64 -> 70         0.11209
      64 -> 72        -0.22625
      65 -> 71         0.11149
      65 -> 72         0.16978
      66 -> 70        -0.22596
      67 -> 71         0.26654
      68 -> 70        -0.27387
      68 -> 72        -0.16106
      69 -> 74         0.28533

 Excited State   9:      Singlet-A      5.5153 eV  224.80 nm  f=0.0004  <S**2>=0.000
      63 -> 75         0.14348
      64 -> 71        -0.10678
      64 -> 72         0.17012
      65 -> 70         0.11036
      65 -> 72         0.22629
      66 -> 71        -0.22441
      67 -> 70         0.26478
      67 -> 72        -0.16243
      68 -> 71         0.27904
      69 -> 75         0.28678

 Excited State  10:      Singlet-A      5.6183 eV  220.68 nm  f=0.0009  <S**2>=0.000
      67 -> 71         0.47593
      68 -> 70         0.48908

 The electronic state is 1-A.
 Alpha  occ. eigenvalues --  -77.08113 -10.19447 -10.19447 -10.19446 -10.19149
 Alpha  occ. eigenvalues --  -10.19148 -10.19142 -10.19118 -10.19118 -10.19114
 Alpha  occ. eigenvalues --  -10.19033 -10.19032 -10.19027 -10.19009 -10.19009
 Alpha  occ. eigenvalues --  -10.19004 -10.18964 -10.18963 -10.18957  -6.54844
 Alpha  occ. eigenvalues --   -4.71103  -4.71103  -4.70601  -0.85560  -0.84847
 Alpha  occ. eigenvalues --   -0.84844  -0.76670  -0.74367  -0.74365  -0.74329
 Alpha  occ. eigenvalues --   -0.73821  -0.73820  -0.64436  -0.60336  -0.60308
 Alpha  occ. eigenvalues --   -0.60307  -0.59207  -0.59206  -0.55448  -0.51436
 Alpha  occ. eigenvalues --   -0.51434  -0.49295  -0.45441  -0.45439  -0.44773
 Alpha  occ. eigenvalues --   -0.44345  -0.44344  -0.44067  -0.41946  -0.41870
 Alpha  occ. eigenvalues --   -0.41867  -0.40380  -0.40375  -0.36845  -0.36353
 Alpha  occ. eigenvalues --   -0.36348  -0.35898  -0.34253  -0.34251  -0.34224
 Alpha  occ. eigenvalues --   -0.31885  -0.31882  -0.26780  -0.25450  -0.25444
 Alpha  occ. eigenvalues --   -0.25244  -0.24704  -0.24702  -0.21144
 Alpha virt. eigenvalues --   -0.01882  -0.01874  -0.00832   0.00172   0.00425
 Alpha virt. eigenvalues --    0.00433   0.06875   0.06890   0.09493   0.11037
 Alpha virt. eigenvalues --    0.11039   0.13904   0.14528   0.14530   0.15165

 Mulliken charges:
               1
     1  P    0.450467
     2  C   -0.115123
     3  C   -0.173951
     4  C   -0.115729
     5  C   -0.158828
     6  C   -0.125629
     7  C   -0.160543
     8  C   -0.080579
     9  C   -0.148774
    10  C   -0.119525
    11  C   -0.120632
    12  C   -0.119170
    13  C   -0.155756
    14  C   -0.125523
    15  C   -0.175822
    16  C   -0.118315
    17  C   -0.156716
    18  C   -0.122805
    19  C   -0.162872
    20  H    0.126168
    21  H    0.122530
    22  H    0.115520
    23  H    0.120141
    24  H    0.124111
    25  H    0.176209
    26  H    0.148309
    27  H    0.147915
    28  H    0.144426
    29  H    0.150713
    30  H    0.119316
    31  H    0.119969
    32  H    0.117120
    33  H    0.124849
    34  H    0.148528
 Sum of Mulliken charges =  -0.00000

 Dipole moment (field-independent basis, Debye):
    X=             -0.0415    Y=              3.7655    Z=             -0.1963  Tot=              3.7708
 Quadrupole moment (field-independent basis, Debye-Ang):
   XX=           -120.4099   YY=           -106.6433   ZZ=           -110.6762
   XY=             -1.3257   XZ=              0.7938   YZ=              1.1127

 Summary of Natural Population Analysis:

                                       Natural Population
                Natural  -----------------------------------------------
    Atom  No    Charge         Core      Valence    Rydberg      Total
 -----------------------------------------------------------------------
      P    1    1.24207      9.99750     3.71019    0.05024    13.75793
      C    2   -0.45335      1.99887     4.43004    0.02445     6.45335
      C    3   -0.26244      1.99899     4.24564    0.01781     6.26244
      C    4   -0.22415      1.99909     4.21071    0.01435     6.22415
      C    5   -0.27686      1.99909     4.26165    0.01612     6.27686
      C    6   -0.24911      1.99910     4.23492    0.01510     6.24911
      C    7   -0.21556      1.99901     4.20065    0.01590     6.21556
      C    8   -0.37560      1.99891     4.35192    0.02478     6.37560
      C    9   -0.20606      1.99900     4.19097    0.01609     6.20606
      C   10   -0.22917      1.99909     4.21605    0.01403     6.22917
      C   11   -0.19558      1.99909     4.18282    0.01367     6.19558
      C   12   -0.23549      1.99910     4.22215    0.01424     6.23549
      C   13   -0.20107      1.99902     4.18697    0.01508     6.20107
      C   14   -0.46769      1.99888     4.44253    0.02629     6.46769
      C   15   -0.23758      1.99902     4.22232    0.01624     6.23758
      C   16   -0.23605      1.99910     4.22232    0.01462     6.23605
      C   17   -0.27214      1.99909     4.25700    0.01604     6.27214
      C   18   -0.23668      1.99909     4.22297    0.01463     6.23668
      C   19   -0.23439      1.99899     4.21791    0.01749     6.23439
      H   20    0.23382      0.00000     0.76481    0.00137     0.76618
      H   21    0.23431      0.00000     0.76481    0.00088     0.76569
      H   22    0.22892      0.00000     0.77019    0.00089     0.77108
      H   23    0.23297      0.00000     0.76615    0.00088     0.76703
      H   24    0.23001      0.00000     0.76885    0.00114     0.76999
      H   25    0.26160      0.00000     0.73721    0.00119     0.73840
      H   26    0.24632      0.00000     0.75282    0.00086     0.75368
      H   27    0.24283      0.00000     0.75635    0.00082     0.75717
      H   28    0.24391      0.00000     0.75520    0.00089     0.75609
      H   29    0.24310      0.00000     0.75568    0.00121     0.75690
      H   30    0.22607      0.00000     0.77296    0.00097     0.77393
      H   31    0.23219      0.00000     0.76686    0.00095     0.76781
      H   32    0.22951      0.00000     0.76958    0.00091     0.77049
      H   33    0.23554      0.00000     0.76357    0.00089     0.76446
      H   34    0.24581      0.00000     0.75263    0.00156     0.75419
 =======================================================================
   * Total *    0.00000     45.98001    91.64741    0.37259   138.00000

 Normal termination of Gaussian 16 at Sun Dec  8 19:18:27 2019.
