 Gaussian 16, Revision A.03,

 -----------------------------------------
 # opt=CalcFc B3LYP/6-31G* scf=xqc scf=xqc
 -----------------------------------------

 -------------------
 Title Card Required
 -------------------
 Symbolic Z-matrix:
 Charge =  0 Multiplicity = 1

 SCF Done:  E(RB3LYP) =  -1036.29186801     A.U. after   14 cycles
 SCF Done:  E(RB3LYP) =  -1036.29790903     A.U. after   14 cycles
 SCF Done:  E(RB3LYP) =  -1036.29749122     A.U. after   14 cycles
 SCF Done:  E(RB3LYP) =  -1036.29817744     A.U. after   12 cycles
 SCF Done:  E(RB3LYP) =  -1036.29821319     A.U. after   11 cycles
 SCF Done:  E(RB3LYP) =  -1036.29822416     A.U. after   11 cycles
 SCF Done:  E(RB3LYP) =  -1036.29822878     A.U. after   10 cycles
 SCF Done:  E(RB3LYP) =  -1036.29822923     A.U. after    9 cycles
 SCF Done:  E(RB3LYP) =  -1036.29823141     A.U. after    8 cycles
 SCF Done:  E(RB3LYP) =  -1036.29823156     A.U. after    7 cycles
 SCF Done:  E(RB3LYP) =  -1036.29823750     A.U. after    8 cycles
 SCF Done:  E(RB3LYP) =  -1036.29823962     A.U. after    8 cycles
 SCF Done:  E(RB3LYP) =  -1036.29822914     A.U. after    8 cycles
 SCF Done:  E(RB3LYP) =  -1036.29820010     A.U. after   11 cycles
 SCF Done:  E(RB3LYP) =  -1036.29823698     A.U. after   11 cycles
 SCF Done:  E(RB3LYP) =  -1036.29823737     A.U. after   10 cycles
 SCF Done:  E(RB3LYP) =  -1036.29823646     A.U. after    8 cycles
 SCF Done:  E(RB3LYP) =  -1036.29822993     A.U. after    9 cycles
 Optimization completed.
    -- Stationary point found.
 Normal termination of Gaussian 16 at Sun Dec  8 18:10:56 2019.

 ----------------------------------------------------------------------
 # freq B3LYP/6-31G* scf=xqc volume NMR pop=NPA density=current Geom=Al
 lCheck Guess=Read
 ----------------------------------------------------------------------

 Structure from the checkpoint file:  "direct_arylation_ligand38_conf282.chk"
 -------------------
 Title Card Required
 -------------------
 Charge =  0 Multiplicity = 1

 SCF Done:  E(RB3LYP) =  -1036.29822993     A.U. after    1 cycles

      1  P    Isotropic =   361.5431   Anisotropy =    39.7210

      2  C    Isotropic =    56.1345   Anisotropy =   179.4442

      3  C    Isotropic =    61.0022   Anisotropy =   164.1217

      4  C    Isotropic =    68.7224   Anisotropy =   164.1266

      5  C    Isotropic =    68.1495   Anisotropy =   167.3313

      6  C    Isotropic =    68.6823   Anisotropy =   163.8917

      7  C    Isotropic =    62.5754   Anisotropy =   174.0782

      8  C    Isotropic =    56.1325   Anisotropy =   179.4122

      9  C    Isotropic =    62.5782   Anisotropy =   174.0606

     10  C    Isotropic =    68.6733   Anisotropy =   163.8933

     11  C    Isotropic =    68.1660   Anisotropy =   167.3365

     12  C    Isotropic =    68.7276   Anisotropy =   164.1351

     13  C    Isotropic =    61.0029   Anisotropy =   164.1355

     14  C    Isotropic =    56.1098   Anisotropy =   179.4729

     15  C    Isotropic =    61.0323   Anisotropy =   164.1662

     16  C    Isotropic =    68.7323   Anisotropy =   164.0958

     17  C    Isotropic =    68.1720   Anisotropy =   167.2805

     18  C    Isotropic =    68.6785   Anisotropy =   163.8969

     19  C    Isotropic =    62.6078   Anisotropy =   174.0726

     20  H    Isotropic =    24.6107   Anisotropy =     9.2500

     21  H    Isotropic =    24.9263   Anisotropy =     4.5874

     22  H    Isotropic =    25.0209   Anisotropy =     3.6404

     23  H    Isotropic =    25.0478   Anisotropy =     6.0859

     24  H    Isotropic =    25.3981   Anisotropy =    12.2236

     25  H    Isotropic =    25.3990   Anisotropy =    12.2343

     26  H    Isotropic =    25.0475   Anisotropy =     6.0877

     27  H    Isotropic =    25.0199   Anisotropy =     3.6408

     28  H    Isotropic =    24.9257   Anisotropy =     4.5894

     29  H    Isotropic =    24.6123   Anisotropy =     9.2543

     30  H    Isotropic =    24.6128   Anisotropy =     9.2590

     31  H    Isotropic =    24.9314   Anisotropy =     4.5826

     32  H    Isotropic =    25.0246   Anisotropy =     3.6323

     33  H    Isotropic =    25.0481   Anisotropy =     6.0860

     34  H    Isotropic =    25.3979   Anisotropy =    12.2370

  Exact polarizability: 224.177  -0.049 224.119   0.039  -0.034 165.031
 Approx polarizability: 330.968  -0.119 330.866   0.090  -0.082 308.006

                      1                      2                      3
                      A                      A                      A
 Frequencies --     21.2118                22.3578                37.7172
 Red. masses --      3.7952                 3.7935                 3.6888
 Frc consts  --      0.0010                 0.0011                 0.0031
 IR Inten    --      0.2836                 0.2816                 0.0019

                      4                      5                      6
                      A                      A                      A
 Frequencies --     53.1349                53.2694                70.5611
 Red. masses --      5.2546                 5.2566                 5.1677
 Frc consts  --      0.0087                 0.0088                 0.0152
 IR Inten    --      0.0811                 0.0864                 0.3100

                      7                      8                      9
                      A                      A                      A
 Frequencies --    181.5578               202.3317               202.5871
 Red. masses --      4.5610                 4.6422                 4.6392
 Frc consts  --      0.0886                 0.1120                 0.1122
 IR Inten    --      0.3521                 1.1367                 1.1356

                     10                     11                     12
                      A                      A                      A
 Frequencies --    245.5504               259.8262               259.9562
 Red. masses --      5.7398                 4.7186                 4.7243
 Frc consts  --      0.2039                 0.1877                 0.1881
 IR Inten    --      0.4840                 0.2234                 0.2241

                     13                     14                     15
                      A                      A                      A
 Frequencies --    408.7235               408.7644               412.3211
 Red. masses --      3.0768                 3.0790                 3.6096
 Frc consts  --      0.3028                 0.3031                 0.3616
 IR Inten    --      1.9549                 1.9672                 0.1628

                     16                     17                     18
                      A                      A                      A
 Frequencies --    416.9950               429.4019               429.5554
 Red. masses --      4.5887                 7.3129                 7.3145
 Frc consts  --      0.4701                 0.7944                 0.7952
 IR Inten    --      0.5580                 7.6947                 7.6999

                     19                     20                     21
                      A                      A                      A
 Frequencies --    509.4313               509.5227               516.3095
 Red. masses --      4.2481                 4.2456                 4.5896
 Frc consts  --      0.6496                 0.6494                 0.7208
 IR Inten    --     26.1398                26.0804                11.9669

                     22                     23                     24
                      A                      A                      A
 Frequencies --    632.7281               632.7381               633.3559
 Red. masses --      6.4270                 6.4273                 6.4368
 Frc consts  --      1.5160                 1.5161                 1.5213
 IR Inten    --      0.1808                 0.1810                 0.0159

                     25                     26                     27
                      A                      A                      A
 Frequencies --    691.8576               705.0951               705.2096
 Red. masses --      6.5800                 5.6953                 5.7126
 Frc consts  --      1.8557                 1.6682                 1.6739
 IR Inten    --      0.7778                 1.1927                 1.1938

                     28                     29                     30
                      A                      A                      A
 Frequencies --    712.1995               712.2975               713.2297
 Red. masses --      2.2032                 2.1999                 2.1341
 Frc consts  --      0.6584                 0.6576                 0.6396
 IR Inten    --     26.3414                26.3842                16.5656

                     31                     32                     33
                      A                      A                      A
 Frequencies --    761.3673               762.8367               762.8867
 Red. masses --      1.6149                 1.6493                 1.6497
 Frc consts  --      0.5515                 0.5655                 0.5657
 IR Inten    --     19.2354                24.8908                24.8890

                     34                     35                     36
                      A                      A                      A
 Frequencies --    866.1427               866.1777               868.7360
 Red. masses --      1.2478                 1.2478                 1.2462
 Frc consts  --      0.5515                 0.5516                 0.5542
 IR Inten    --      0.2240                 0.2274                 0.1331

                     37                     38                     39
                      A                      A                      A
 Frequencies --    932.7944               932.8774               934.1825
 Red. masses --      1.3445                 1.3442                 1.3386
 Frc consts  --      0.6892                 0.6892                 0.6883
 IR Inten    --      1.2600                 1.2690                 0.0259

                     40                     41                     42
                      A                      A                      A
 Frequencies --    975.7532               975.8205               977.6081
 Red. masses --      1.3614                 1.3613                 1.3556
 Frc consts  --      0.7637                 0.7637                 0.7633
 IR Inten    --      0.0153                 0.0171                 0.1405

                     43                     44                     45
                      A                      A                      A
 Frequencies --   1000.3370              1000.3570              1001.0944
 Red. masses --      1.2544                 1.2543                 1.2527
 Frc consts  --      0.7396                 0.7395                 0.7397
 IR Inten    --      0.0761                 0.0786                 0.0002

                     46                     47                     48
                      A                      A                      A
 Frequencies --   1015.3612              1015.3773              1015.7424
 Red. masses --      6.3129                 6.3110                 6.3068
 Frc consts  --      3.8346                 3.8336                 3.8338
 IR Inten    --      4.3430                 4.3630                 0.0524

                     49                     50                     51
                      A                      A                      A
 Frequencies --   1052.6853              1052.7363              1052.9076
 Red. masses --      3.3065                 3.3133                 3.2508
 Frc consts  --      2.1588                 2.1635                 2.1234
 IR Inten    --      2.1214                 2.0964                 0.0376

                     52                     53                     54
                      A                      A                      A
 Frequencies --   1107.6666              1108.0197              1109.4729
 Red. masses --      1.8948                 1.8783                 1.6542
 Frc consts  --      1.3697                 1.3586                 1.1997
 IR Inten    --      4.4438                 4.1495                 2.9050

                     55                     56                     57
                      A                      A                      A
 Frequencies --   1110.7078              1110.8103              1116.0836
 Red. masses --      2.1702                 2.2021                 2.6146
 Frc consts  --      1.5774                 1.6009                 1.9189
 IR Inten    --      9.1445                 9.5611                 1.2167

                     58                     59                     60
                      A                      A                      A
 Frequencies --   1193.4700              1193.8604              1193.9264
 Red. masses --      1.1033                 1.1000                 1.1000
 Frc consts  --      0.9259                 0.9237                 0.9239
 IR Inten    --      0.0016                 0.1338                 0.1281

                     61                     62                     63
                      A                      A                      A
 Frequencies --   1219.0064              1219.3740              1220.7796
 Red. masses --      1.1474                 1.1477                 1.1472
 Frc consts  --      1.0046                 1.0054                 1.0073
 IR Inten    --      6.0472                 6.0600                 0.3403

                     64                     65                     66
                      A                      A                      A
 Frequencies --   1324.9784              1328.6158              1328.7654
 Red. masses --      3.4878                 3.4605                 3.5000
 Frc consts  --      3.6077                 3.5991                 3.6410
 IR Inten    --      2.6362                 2.4426                 2.4369

                     67                     68                     69
                      A                      A                      A
 Frequencies --   1364.8825              1365.2068              1365.5115
 Red. masses --      1.6638                 1.6536                 1.6450
 Frc consts  --      1.8262                 1.8158                 1.8072
 IR Inten    --      0.1372                 0.5381                 2.7101

                     70                     71                     72
                      A                      A                      A
 Frequencies --   1480.4868              1480.9498              1480.9859
 Red. masses --      2.1108                 2.1157                 2.1156
 Frc consts  --      2.7259                 2.7339                 2.7340
 IR Inten    --     16.5900                 6.6693                 6.5892

                     73                     74                     75
                      A                      A                      A
 Frequencies --   1531.0016              1531.4268              1531.5761
 Red. masses --      2.0156                 1.9998                 1.9981
 Frc consts  --      2.7836                 2.7633                 2.7615
 IR Inten    --      1.9992                10.1521                10.1494

                     76                     77                     78
                      A                      A                      A
 Frequencies --   1630.1491              1630.4125              1630.4533
 Red. masses --      5.1018                 5.1159                 5.1131
 Frc consts  --      7.9878                 8.0124                 8.0085
 IR Inten    --      0.3948                 0.0488                 0.0434

                     79                     80                     81
                      A                      A                      A
 Frequencies --   1646.1190              1646.1451              1647.9261
 Red. masses --      5.2734                 5.2707                 5.2834
 Frc consts  --      8.4191                 8.4149                 8.4535
 IR Inten    --      3.5152                 3.5066                 0.3198

                     82                     83                     84
                      A                      A                      A
 Frequencies --   3176.0722              3176.0967              3176.1570
 Red. masses --      1.0854                 1.0853                 1.0853
 Frc consts  --      6.4507                 6.4507                 6.4508
 IR Inten    --      2.1801                 1.9203                 1.8850

                     85                     86                     87
                      A                      A                      A
 Frequencies --   3182.6414              3182.6703              3182.7500
 Red. masses --      1.0875                 1.0875                 1.0876
 Frc consts  --      6.4901                 6.4904                 6.4911
 IR Inten    --      0.7947                 0.6655                 0.2418

                     88                     89                     90
                      A                      A                      A
 Frequencies --   3192.8362              3192.8669              3192.9838
 Red. masses --      1.0916                 1.0917                 1.0917
 Frc consts  --      6.5567                 6.5569                 6.5579
 IR Inten    --     10.4522                11.2484                46.7084

                     91                     92                     93
                      A                      A                      A
 Frequencies --   3203.9433              3203.9791              3204.3430
 Red. masses --      1.0942                 1.0942                 1.0943
 Frc consts  --      6.6177                 6.6180                 6.6200
 IR Inten    --     42.0584                42.2433                 4.1726

                     94                     95                     96
                      A                      A                      A
 Frequencies --   3210.1716              3210.2158              3211.0768
 Red. masses --      1.0956                 1.0955                 1.0955
 Frc consts  --      6.6519                 6.6519                 6.6555
 IR Inten    --     19.3994                19.2185                16.3491

 - Thermochemistry -
 -------------------
 Temperature   298.150 Kelvin.  Pressure   1.00000 Atm.
 Atom     1 has atomic number 15 and mass  30.97376

 Molecular mass:   262.09114 amu.
 Principal axes and moments of inertia in atomic units:
                           1         2         3
     Eigenvalues --  5162.278735163.787988681.20684
           X            0.99931  -0.03703   0.00001
           Y            0.03703   0.99931  -0.00001
           Z           -0.00001   0.00001   1.00000
 This molecule is an asymmetric top.
 Rotational symmetry number  1.
 Warning -- assumption of classical behavior for rotation
           may cause significant error
 Rotational temperatures (Kelvin)      0.01678     0.01677     0.00998
 Rotational constants (GHZ):           0.34960     0.34950     0.20789
 Zero-point vibrational energy     719919.6 (Joules/Mol)
                                  172.06491 (Kcal/Mol)
 Warning -- explicit consideration of  21 degrees of freedom as
           vibrations may cause significant error
 Vibrational temperatures:     30.52    32.17    54.27    76.45    76.64
          (Kelvin)            101.52   261.22   291.11   291.48   353.29
                              373.83   374.02   588.06   588.12   593.24
                              599.96   617.81   618.03   732.96   733.09
                              742.85   910.35   910.37   911.26   995.43
                             1014.47  1014.64  1024.70  1024.84  1026.18
                             1095.44  1097.55  1097.62  1246.19  1246.24
                             1249.92  1342.08  1342.20  1344.08  1403.89
                             1403.99  1406.56  1439.26  1439.29  1440.35
                             1460.88  1460.90  1461.43  1514.58  1514.65
                             1514.90  1593.69  1594.19  1596.28  1598.06
                             1598.21  1605.80  1717.14  1717.70  1717.79
                             1753.88  1754.41  1756.43  1906.35  1911.58
                             1911.80  1963.76  1964.23  1964.67  2130.09
                             2130.76  2130.81  2202.77  2203.38  2203.60
                             2345.42  2345.80  2345.86  2368.40  2368.44
                             2371.00  4569.66  4569.69  4569.78  4579.11
                             4579.15  4579.27  4593.78  4593.82  4593.99
                             4609.76  4609.81  4610.33  4618.72  4618.78
                             4620.02

 Zero-point correction=                           0.274203 (Hartree/Particle)
 Thermal correction to Energy=                    0.290134
 Thermal correction to Enthalpy=                  0.291078
 Thermal correction to Gibbs Free Energy=         0.227598
 Sum of electronic and zero-point Energies=          -1036.024027
 Sum of electronic and thermal Energies=             -1036.008096
 Sum of electronic and thermal Enthalpies=           -1036.007152
 Sum of electronic and thermal Free Energies=        -1036.070632

                     E (Thermal)             CV                S
                      KCal/Mol        Cal/Mol-Kelvin    Cal/Mol-Kelvin
 Total                  182.062             62.541            133.606
 Electronic               0.000              0.000              0.000
 Translational            0.889              2.981             42.590
 Rotational               0.889              2.981             33.803
 Vibrational            180.284             56.580             57.213
 Vibration     1          0.593              1.985              6.517
 Vibration     2          0.593              1.985              6.413
 Vibration     3          0.594              1.982              5.376
 Vibration     4          0.596              1.976              4.697
 Vibration     5          0.596              1.976              4.692
 Vibration     6          0.598              1.968              4.138
 Vibration     7          0.630              1.865              2.312
 Vibration     8          0.639              1.837              2.112
 Vibration     9          0.639              1.836              2.109
 Vibration    10          0.660              1.770              1.762
 Vibration    11          0.668              1.746              1.663
 Vibration    12          0.668              1.746              1.662
 Vibration    13          0.773              1.451              0.931
 Vibration    14          0.773              1.451              0.931
 Vibration    15          0.776              1.443              0.918
 Vibration    16          0.780              1.433              0.902
 Vibration    17          0.791              1.406              0.861
 Vibration    18          0.791              1.406              0.860
 Vibration    19          0.865              1.229              0.635
 Vibration    20          0.865              1.229              0.635
 Vibration    21          0.871              1.214              0.619

                           ! Non-Optimized Parameters !
 Normal termination of Gaussian 16 at Sun Dec  8 18:26:38 2019.
 Gaussian 16:  ES64L-G16RevA.03 25-Dec-2016

 ----------------------------------------------------------------------
 # TD(NStates=10, Root=1) B3LYP/6-31G* scf=xqc volume pop=NPA density=c
 urrent Geom=AllCheck Guess=Read
 ----------------------------------------------------------------------

 Structure from the checkpoint file:  "direct_arylation_ligand38_conf283.chk"
 -------------------
 Title Card Required
 -------------------
 Charge =  0 Multiplicity = 1

                         Standard orientation:
 ---------------------------------------------------------------------
 Center     Atomic      Atomic             Coordinates (Angstroms)
 Number     Number       Type             X           Y           Z
 ---------------------------------------------------------------------
      1         15           0        0.000164    0.000034   -1.206266
      2          6           0       -1.069454    1.283485   -0.402426
      3          6           0       -1.139524    2.537084   -1.033484
      4          6           0       -1.926908    3.560798   -0.506987
      5          6           0       -2.674343    3.341834    0.652139
      6          6           0       -2.625065    2.096815    1.281105
      7          6           0       -1.827446    1.075588    0.760053
      8          6           0        1.646584    0.284473   -0.402550
      9          6           0        1.846215    1.047184    0.758275
     10          6           0        3.129627    1.227318    1.278900
     11          6           0        4.231950    0.645137    0.651200
     12          6           0        4.047185   -0.113959   -0.506316
     13          6           0        2.766791   -0.283945   -1.032441
     14          6           0       -0.576870   -1.568014   -0.402589
     15          6           0       -1.630533   -2.252854   -1.031505
     16          6           0       -2.123870   -3.446481   -0.505251
     17          6           0       -1.557956   -3.986958    0.651406
     18          6           0       -0.501376   -3.324483    1.278140
     19          6           0       -0.015301   -2.123129    0.757404
     20          1           0       -0.575507    2.709052   -1.947503
     21          1           0       -1.965330    4.525013   -1.007323
     22          1           0       -3.296509    4.134873    1.058699
     23          1           0       -3.208058    1.917953    2.181153
     24          1           0       -1.798216    0.111306    1.258410
     25          1           0        0.996962    1.505931    1.255644
     26          1           0        3.266772    1.823496    2.177633
     27          1           0        5.229958    0.787432    1.057436
     28          1           0        4.901030   -0.564584   -1.005727
     29          1           0        2.633223   -0.860120   -1.945299
     30          1           0       -2.063482   -1.848419   -1.943708
     31          1           0       -2.942050   -3.959759   -1.003904
     32          1           0       -1.934002   -4.922264    1.057706
     33          1           0       -0.052968   -3.742007    2.176228
     34          1           0        0.807471   -1.617776    1.254117
 ---------------------------------------------------------------------

 SCF Done:  E(RB3LYP) =  -1036.29822993     A.U. after    2 cycles

 Excitation energies and oscillator strengths:

 Excited State   1:      Singlet-A      4.5091 eV  274.96 nm  f=0.1276  <S**2>=0.000
      69 -> 70         0.69703
 This state for optimization and/or second-order correction.
 Total Energy, E(TD-HF/TD-DFT) =  -1036.13252345
 Copying the excited state density for this state as the 1-particle RhoCI density.

 Excited State   2:      Singlet-A      4.5106 eV  274.87 nm  f=0.1282  <S**2>=0.000
      69 -> 71         0.69701

 Excited State   3:      Singlet-A      4.7563 eV  260.67 nm  f=0.0022  <S**2>=0.000
      67 -> 70         0.12126
      68 -> 71        -0.12154
      69 -> 72         0.67473

 Excited State   4:      Singlet-A      5.0572 eV  245.16 nm  f=0.0002  <S**2>=0.000
      66 -> 70        -0.16579
      67 -> 71         0.11368
      68 -> 70        -0.11354
      69 -> 74         0.62958

 Excited State   5:      Singlet-A      5.0577 eV  245.14 nm  f=0.0002  <S**2>=0.000
      66 -> 71         0.16624
      67 -> 70        -0.11434
      68 -> 71        -0.11400
      69 -> 75         0.62921

 Excited State   6:      Singlet-A      5.1503 eV  240.73 nm  f=0.0085  <S**2>=0.000
      69 -> 73         0.67914

 Excited State   7:      Singlet-A      5.4275 eV  228.44 nm  f=0.0147  <S**2>=0.000
      63 -> 72        -0.16613
      64 -> 74         0.14567
      65 -> 75        -0.14412
      67 -> 70         0.41960
      68 -> 71        -0.41510
      69 -> 72        -0.16496

 Excited State   8:      Singlet-A      5.5139 eV  224.86 nm  f=0.0005  <S**2>=0.000
      63 -> 74         0.14315
      64 -> 71         0.10409
      64 -> 72        -0.22397
      64 -> 74         0.11402
      65 -> 70         0.10635
      65 -> 72        -0.17263
      65 -> 75         0.11485
      66 -> 70         0.22633
      67 -> 70         0.10440
      67 -> 71        -0.24903
      68 -> 70         0.25104
      68 -> 71         0.10991
      68 -> 72         0.16351
      69 -> 74         0.28549

 Excited State   9:      Singlet-A      5.5146 eV  224.83 nm  f=0.0004  <S**2>=0.000
      63 -> 75         0.14346
      64 -> 70        -0.10434
      64 -> 72        -0.17286
      64 -> 75        -0.11435
      65 -> 71         0.10313
      65 -> 72         0.22407
      65 -> 74         0.11369
      66 -> 71        -0.22556
      67 -> 70         0.24856
      67 -> 71         0.10564
      67 -> 72        -0.16378
      68 -> 70        -0.10880
      68 -> 71         0.25327
      69 -> 75         0.28607

 Excited State  10:      Singlet-A      5.6182 eV  220.68 nm  f=0.0009  <S**2>=0.000
      67 -> 71         0.47124
      68 -> 70         0.47683

 The electronic state is 1-A.
 Alpha  occ. eigenvalues --  -77.08112 -10.19447 -10.19447 -10.19447 -10.19148
 Alpha  occ. eigenvalues --  -10.19146 -10.19145 -10.19118 -10.19117 -10.19116
 Alpha  occ. eigenvalues --  -10.19032 -10.19030 -10.19029 -10.19008 -10.19007
 Alpha  occ. eigenvalues --  -10.19006 -10.18963 -10.18961 -10.18960  -6.54843
 Alpha  occ. eigenvalues --   -4.71102  -4.71102  -4.70600  -0.85560  -0.84846
 Alpha  occ. eigenvalues --   -0.84845  -0.76669  -0.74366  -0.74366  -0.74329
 Alpha  occ. eigenvalues --   -0.73821  -0.73821  -0.64436  -0.60336  -0.60308
 Alpha  occ. eigenvalues --   -0.60307  -0.59207  -0.59207  -0.55448  -0.51436
 Alpha  occ. eigenvalues --   -0.51435  -0.49295  -0.45441  -0.45440  -0.44774
 Alpha  occ. eigenvalues --   -0.44345  -0.44344  -0.44067  -0.41946  -0.41869
 Alpha  occ. eigenvalues --   -0.41868  -0.40379  -0.40377  -0.36844  -0.36352
 Alpha  occ. eigenvalues --   -0.36350  -0.35898  -0.34252  -0.34251  -0.34224
 Alpha  occ. eigenvalues --   -0.31885  -0.31884  -0.26777  -0.25449  -0.25446
 Alpha  occ. eigenvalues --   -0.25243  -0.24704  -0.24703  -0.21142
 Alpha virt. eigenvalues --   -0.01881  -0.01877  -0.00831   0.00173   0.00427
 Alpha virt. eigenvalues --    0.00430   0.06882   0.06889   0.09492   0.11038
 Alpha virt. eigenvalues --    0.11039   0.13904   0.14528   0.14529   0.15164

 Mulliken charges:
               1
     1  P    0.450686
     2  C   -0.124478
     3  C   -0.165220
     4  C   -0.125017
     5  C   -0.165767
     6  C   -0.116701
     7  C   -0.176106
     8  C   -0.116470
     9  C   -0.157393
    10  C   -0.123338
    11  C   -0.147430
    12  C   -0.117169
    13  C   -0.173840
    14  C   -0.080295
    15  C   -0.153183
    16  C   -0.120873
    17  C   -0.122986
    18  C   -0.118024
    19  C   -0.152093
    20  H    0.117788
    21  H    0.115407
    22  H    0.109630
    23  H    0.118091
    24  H    0.121946
    25  H    0.159618
    26  H    0.131051
    27  H    0.124976
    28  H    0.125911
    29  H    0.126068
    30  H    0.150256
    31  H    0.143226
    32  H    0.145942
    33  H    0.146530
    34  H    0.169259
 Sum of Mulliken charges =  -0.00000

 Dipole moment (field-independent basis, Debye):
    X=              0.3006    Y=             -3.7467    Z=             -0.1964  Tot=              3.7639
 Quadrupole moment (field-independent basis, Debye-Ang):
   XX=           -116.2039   YY=           -110.8571   ZZ=           -110.6690
   XY=              6.4882   XZ=              0.8785   YZ=             -1.0286

 Summary of Natural Population Analysis:

                                       Natural Population
                Natural  -----------------------------------------------
    Atom  No    Charge         Core      Valence    Rydberg      Total
 -----------------------------------------------------------------------
      P    1    1.24231      9.99750     3.70994    0.05025    13.75769
      C    2   -0.47213      1.99886     4.44846    0.02480     6.47213
      C    3   -0.22380      1.99901     4.20864    0.01614     6.22380
      C    4   -0.24850      1.99910     4.23427    0.01513     6.24850
      C    5   -0.29148      1.99910     4.27586    0.01652     6.29148
      C    6   -0.22626      1.99909     4.21269    0.01448     6.22626
      C    7   -0.26641      1.99899     4.24941    0.01802     6.26641
      C    8   -0.44791      1.99889     4.42271    0.02631     6.44791
      C    9   -0.22217      1.99899     4.20608    0.01711     6.22217
      C   10   -0.23719      1.99909     4.22356    0.01454     6.23719
      C   11   -0.25245      1.99909     4.23787    0.01549     6.25245
      C   12   -0.23349      1.99910     4.21995    0.01445     6.23349
      C   13   -0.23275      1.99902     4.21769    0.01604     6.23275
      C   14   -0.37676      1.99890     4.35348    0.02438     6.37676
      C   15   -0.19777      1.99902     4.18370    0.01505     6.19777
      C   16   -0.23860      1.99910     4.22512    0.01438     6.23860
      C   17   -0.20068      1.99909     4.18776    0.01382     6.20068
      C   18   -0.22663      1.99909     4.21355    0.01399     6.22663
      C   19   -0.21420      1.99899     4.19894    0.01626     6.21420
      H   20    0.22651      0.00000     0.77241    0.00108     0.77349
      H   21    0.23067      0.00000     0.76844    0.00089     0.76933
      H   22    0.22635      0.00000     0.77276    0.00089     0.77365
      H   23    0.23228      0.00000     0.76685    0.00088     0.76772
      H   24    0.23136      0.00000     0.76722    0.00142     0.76864
      H   25    0.25199      0.00000     0.74649    0.00151     0.74801
      H   26    0.23842      0.00000     0.76069    0.00089     0.76158
      H   27    0.23290      0.00000     0.76620    0.00090     0.76710
      H   28    0.23490      0.00000     0.76414    0.00096     0.76510
      H   29    0.22947      0.00000     0.76952    0.00101     0.77053
      H   30    0.24320      0.00000     0.75557    0.00124     0.75680
      H   31    0.24351      0.00000     0.75562    0.00087     0.75649
      H   32    0.24202      0.00000     0.75716    0.00082     0.75798
      H   33    0.24547      0.00000     0.75367    0.00086     0.75453
      H   34    0.25783      0.00000     0.74097    0.00120     0.74217
 =======================================================================
   * Total *    0.00000     45.98001    91.64741    0.37258   138.00000

 Normal termination of Gaussian 16 at Sun Dec  8 18:42:56 2019.
