 Gaussian 16, Revision A.03,

 -----------------------------------------
 # opt=CalcFc B3LYP/6-31G* scf=xqc scf=xqc
 -----------------------------------------

 -------------------
 Title Card Required
 -------------------
 Symbolic Z-matrix:
 Charge =  0 Multiplicity = 1

 SCF Done:  E(RB3LYP) =  -1036.27086822     A.U. after   14 cycles
 SCF Done:  E(RB3LYP) =  -1036.27922412     A.U. after   14 cycles
 SCF Done:  E(RB3LYP) =  -1036.27007856     A.U. after   14 cycles
 SCF Done:  E(RB3LYP) =  -1036.28613826     A.U. after   13 cycles
 SCF Done:  E(RB3LYP) =  -1036.28396288     A.U. after   14 cycles
 SCF Done:  E(RB3LYP) =  -1036.28614225     A.U. after   13 cycles
 SCF Done:  E(RB3LYP) =  -1036.15461005     A.U. after   15 cycles
 SCF Done:  E(RB3LYP) =  -1036.28706785     A.U. after   13 cycles
 SCF Done:  E(RB3LYP) =  -1036.28935096     A.U. after   13 cycles
 SCF Done:  E(RB3LYP) =  -1036.29059676     A.U. after   14 cycles
 SCF Done:  E(RB3LYP) =  -1036.29823626     A.U. after    9 cycles
 SCF Done:  E(RB3LYP) =  -1036.29823779     A.U. after    9 cycles
 SCF Done:  E(RB3LYP) =  -1036.29823997     A.U. after    9 cycles
 SCF Done:  E(RB3LYP) =  -1036.29823148     A.U. after    9 cycles
 SCF Done:  E(RB3LYP) =  -1036.29815756     A.U. after   11 cycles
 SCF Done:  E(RB3LYP) =  -1036.29822451     A.U. after   11 cycles
 SCF Done:  E(RB3LYP) =  -1036.29822940     A.U. after   10 cycles
 SCF Done:  E(RB3LYP) =  -1036.29823153     A.U. after    9 cycles
 Optimization completed.
    -- Stationary point found.
 Normal termination of Gaussian 16 at Sun Dec  8 18:40:21 2019.

 ----------------------------------------------------------------------
 # freq B3LYP/6-31G* scf=xqc volume NMR pop=NPA density=current Geom=Al
 lCheck Guess=Read
 ----------------------------------------------------------------------

 Structure from the checkpoint file:  "direct_arylation_ligand38_conf122.chk"
 -------------------
 Title Card Required
 -------------------
 Charge =  0 Multiplicity = 1

 SCF Done:  E(RB3LYP) =  -1036.29823153     A.U. after    1 cycles

      1  P    Isotropic =   361.4172   Anisotropy =    39.6586

      2  C    Isotropic =    56.1895   Anisotropy =   179.4597

      3  C    Isotropic =    62.5258   Anisotropy =   174.1796

      4  C    Isotropic =    68.6873   Anisotropy =   163.9073

      5  C    Isotropic =    68.1333   Anisotropy =   167.3600

      6  C    Isotropic =    68.7220   Anisotropy =   164.0969

      7  C    Isotropic =    60.9381   Anisotropy =   164.0578

      8  C    Isotropic =    56.0492   Anisotropy =   179.4824

      9  C    Isotropic =    62.5999   Anisotropy =   173.9306

     10  C    Isotropic =    68.6795   Anisotropy =   163.8809

     11  C    Isotropic =    68.1784   Anisotropy =   167.3170

     12  C    Isotropic =    68.7210   Anisotropy =   164.1297

     13  C    Isotropic =    61.0392   Anisotropy =   164.1262

     14  C    Isotropic =    56.1532   Anisotropy =   179.3867

     15  C    Isotropic =    61.0378   Anisotropy =   164.1934

     16  C    Isotropic =    68.7259   Anisotropy =   164.1347

     17  C    Isotropic =    68.1827   Anisotropy =   167.3107

     18  C    Isotropic =    68.6778   Anisotropy =   163.8894

     19  C    Isotropic =    62.6206   Anisotropy =   174.0376

     20  H    Isotropic =    25.3866   Anisotropy =    12.1985

     21  H    Isotropic =    25.0462   Anisotropy =     6.0824

     22  H    Isotropic =    25.0200   Anisotropy =     3.6401

     23  H    Isotropic =    24.9286   Anisotropy =     4.5792

     24  H    Isotropic =    24.6065   Anisotropy =     9.2324

     25  H    Isotropic =    25.4008   Anisotropy =    12.2278

     26  H    Isotropic =    25.0485   Anisotropy =     6.0861

     27  H    Isotropic =    25.0216   Anisotropy =     3.6387

     28  H    Isotropic =    24.9299   Anisotropy =     4.5904

     29  H    Isotropic =    24.6163   Anisotropy =     9.2625

     30  H    Isotropic =    24.6153   Anisotropy =     9.2653

     31  H    Isotropic =    24.9250   Anisotropy =     4.5913

     32  H    Isotropic =    25.0207   Anisotropy =     3.6411

     33  H    Isotropic =    25.0490   Anisotropy =     6.0869

     34  H    Isotropic =    25.3999   Anisotropy =    12.2480

  Exact polarizability: 224.386   0.197 223.907   0.246  -0.064 165.063
 Approx polarizability: 331.351   0.465 330.429   0.577  -0.144 308.075

                      1                      2                      3
                      A                      A                      A
 Frequencies --     22.4226                23.8956                38.0986
 Red. masses --      3.7960                 3.7968                 3.6903
 Frc consts  --      0.0011                 0.0013                 0.0032
 IR Inten    --      0.2826                 0.2810                 0.0021

                      4                      5                      6
                      A                      A                      A
 Frequencies --     53.2834                53.4464                70.6026
 Red. masses --      5.2547                 5.2525                 5.1674
 Frc consts  --      0.0088                 0.0088                 0.0152
 IR Inten    --      0.0839                 0.0875                 0.3106

                      7                      8                      9
                      A                      A                      A
 Frequencies --    181.4400               202.1000               202.8779
 Red. masses --      4.5606                 4.6446                 4.6420
 Frc consts  --      0.0885                 0.1118                 0.1126
 IR Inten    --      0.3540                 1.1348                 1.1456

                     10                     11                     12
                      A                      A                      A
 Frequencies --    245.5414               259.7092               260.1308
 Red. masses --      5.7406                 4.7219                 4.7212
 Frc consts  --      0.2039                 0.1876                 0.1882
 IR Inten    --      0.4814                 0.2231                 0.2257

                     13                     14                     15
                      A                      A                      A
 Frequencies --    408.7313               408.9041               412.3371
 Red. masses --      3.0788                 3.0786                 3.5865
 Frc consts  --      0.3030                 0.3033                 0.3593
 IR Inten    --      1.9636                 1.9551                 0.1590

                     16                     17                     18
                      A                      A                      A
 Frequencies --    417.1029               429.4070               429.6253
 Red. masses --      4.6267                 7.3189                 7.2925
 Frc consts  --      0.4743                 0.7951                 0.7931
 IR Inten    --      0.5623                 7.6635                 7.7038

                     19                     20                     21
                      A                      A                      A
 Frequencies --    509.2915               509.7197               516.3172
 Red. masses --      4.2528                 4.2444                 4.5899
 Frc consts  --      0.6499                 0.6497                 0.7209
 IR Inten    --     26.1292                26.2029                11.9572

                     22                     23                     24
                      A                      A                      A
 Frequencies --    632.7258               632.7360               633.3686
 Red. masses --      6.4271                 6.4273                 6.4369
 Frc consts  --      1.5160                 1.5161                 1.5214
 IR Inten    --      0.1815                 0.1810                 0.0162

                     25                     26                     27
                      A                      A                      A
 Frequencies --    691.9128               705.1897               705.2883
 Red. masses --      6.5808                 5.6930                 5.7119
 Frc consts  --      1.8562                 1.6680                 1.6740
 IR Inten    --      0.7700                 1.1850                 1.2016

                     28                     29                     30
                      A                      A                      A
 Frequencies --    712.2299               712.3667               713.2896
 Red. masses --      2.2078                 2.2024                 2.1350
 Frc consts  --      0.6599                 0.6585                 0.6400
 IR Inten    --     26.0947                26.5445                16.6411

                     31                     32                     33
                      A                      A                      A
 Frequencies --    761.3892               762.8264               763.0030
 Red. masses --      1.6148                 1.6454                 1.6495
 Frc consts  --      0.5516                 0.5641                 0.5658
 IR Inten    --     19.2304                25.0736                24.7005

                     34                     35                     36
                      A                      A                      A
 Frequencies --    866.1707               866.2928               868.7618
 Red. masses --      1.2477                 1.2477                 1.2462
 Frc consts  --      0.5515                 0.5517                 0.5542
 IR Inten    --      0.2291                 0.2221                 0.1309

                     37                     38                     39
                      A                      A                      A
 Frequencies --    932.9111               933.0892               934.2823
 Red. masses --      1.3442                 1.3440                 1.3386
 Frc consts  --      0.6893                 0.6895                 0.6884
 IR Inten    --      1.2693                 1.2253                 0.0537

                     40                     41                     42
                      A                      A                      A
 Frequencies --    975.7719               975.9255               977.6594
 Red. masses --      1.3613                 1.3612                 1.3556
 Frc consts  --      0.7636                 0.7638                 0.7634
 IR Inten    --      0.0190                 0.0161                 0.1383

                     43                     44                     45
                      A                      A                      A
 Frequencies --   1000.3457              1000.4346              1001.1221
 Red. masses --      1.2543                 1.2542                 1.2525
 Frc consts  --      0.7395                 0.7396                 0.7396
 IR Inten    --      0.0781                 0.0798                 0.0012

                     46                     47                     48
                      A                      A                      A
 Frequencies --   1015.3509              1015.3855              1015.7594
 Red. masses --      6.3113                 6.3129                 6.3111
 Frc consts  --      3.8336                 3.8348                 3.8365
 IR Inten    --      4.3579                 4.3355                 0.0747

                     49                     50                     51
                      A                      A                      A
 Frequencies --   1052.7012              1052.7535              1052.9233
 Red. masses --      3.3093                 3.3174                 3.2535
 Frc consts  --      2.1607                 2.1662                 2.1252
 IR Inten    --      2.1165                 2.0621                 0.0415

                     52                     53                     54
                      A                      A                      A
 Frequencies --   1107.9119              1108.2171              1109.5205
 Red. masses --      1.8791                 1.8383                 1.6551
 Frc consts  --      1.3590                 1.3302                 1.2004
 IR Inten    --      4.1562                 3.4545                 2.8481

                     55                     56                     57
                      A                      A                      A
 Frequencies --   1110.8047              1110.9128              1116.2772
 Red. masses --      2.2103                 2.2436                 2.6136
 Frc consts  --      1.6068                 1.6314                 1.9188
 IR Inten    --      9.6128                10.0296                 1.2730

                     58                     59                     60
                      A                      A                      A
 Frequencies --   1193.4966              1193.9131              1193.9323
 Red. masses --      1.1034                 1.1001                 1.1000
 Frc consts  --      0.9260                 0.9239                 0.9238
 IR Inten    --      0.0010                 0.1329                 0.1252

                     61                     62                     63
                      A                      A                      A
 Frequencies --   1219.2525              1219.5526              1220.9468
 Red. masses --      1.1476                 1.1478                 1.1474
 Frc consts  --      1.0051                 1.0058                 1.0077
 IR Inten    --      6.0556                 6.0207                 0.4019

                     64                     65                     66
                      A                      A                      A
 Frequencies --   1325.0298              1328.6648              1328.9158
 Red. masses --      3.4996                 3.4935                 3.5179
 Frc consts  --      3.6201                 3.6337                 3.6604
 IR Inten    --      2.6278                 2.4369                 2.4482

                     67                     68                     69
                      A                      A                      A
 Frequencies --   1365.2204              1365.3884              1365.7448
 Red. masses --      1.6569                 1.6504                 1.6381
 Frc consts  --      1.8195                 1.8128                 1.8002
 IR Inten    --      0.1469                 0.5816                 2.6715

                     70                     71                     72
                      A                      A                      A
 Frequencies --   1480.4995              1480.9451              1481.0400
 Red. masses --      2.1106                 2.1154                 2.1160
 Frc consts  --      2.7256                 2.7335                 2.7347
 IR Inten    --     16.4677                 6.7581                 6.6242

                     73                     74                     75
                      A                      A                      A
 Frequencies --   1531.1163              1531.6016              1531.6661
 Red. masses --      2.0147                 1.9984                 1.9975
 Frc consts  --      2.7827                 2.7620                 2.7609
 IR Inten    --      2.0276                10.1844                10.0926

                     76                     77                     78
                      A                      A                      A
 Frequencies --   1630.1505              1630.4090              1630.4731
 Red. masses --      5.0993                 5.1106                 5.1131
 Frc consts  --      7.9839                 8.0041                 8.0087
 IR Inten    --      0.3964                 0.0460                 0.0499

                     79                     80                     81
                      A                      A                      A
 Frequencies --   1646.1569              1646.1923              1647.9632
 Red. masses --      5.2700                 5.2701                 5.2819
 Frc consts  --      8.4141                 8.4145                 8.4516
 IR Inten    --      3.5401                 3.4828                 0.3198

                     82                     83                     84
                      A                      A                      A
 Frequencies --   3176.0928              3176.1313              3176.2297
 Red. masses --      1.0854                 1.0853                 1.0853
 Frc consts  --      6.4507                 6.4508                 6.4510
 IR Inten    --      2.1114                 1.9643                 1.9085

                     85                     86                     87
                      A                      A                      A
 Frequencies --   3182.6337              3182.6697              3182.7852
 Red. masses --      1.0875                 1.0875                 1.0876
 Frc consts  --      6.4899                 6.4903                 6.4912
 IR Inten    --      0.7785                 0.5464                 0.3733

                     88                     89                     90
                      A                      A                      A
 Frequencies --   3192.7969              3192.8576              3192.9920
 Red. masses --      1.0916                 1.0916                 1.0917
 Frc consts  --      6.5561                 6.5567                 6.5579
 IR Inten    --     10.7849                14.0425                42.5235

                     91                     92                     93
                      A                      A                      A
 Frequencies --   3203.5701              3203.8977              3204.2509
 Red. masses --      1.0937                 1.0941                 1.0942
 Frc consts  --      6.6135                 6.6169                 6.6191
 IR Inten    --     35.3581                40.2110                 9.6792

                     94                     95                     96
                      A                      A                      A
 Frequencies --   3209.5916              3210.0558              3210.8573
 Red. masses --      1.0962                 1.0957                 1.0957
 Frc consts  --      6.6531                 6.6522                 6.6554
 IR Inten    --     23.0533                20.0148                16.1979

 - Thermochemistry -
 -------------------
 Temperature   298.150 Kelvin.  Pressure   1.00000 Atm.
 Atom     1 has atomic number 15 and mass  30.97376

 Molecular mass:   262.09114 amu.
 Principal axes and moments of inertia in atomic units:
                           1         2         3
     Eigenvalues --  5159.716295167.591248682.25736
           X            0.99963   0.02713   0.00007
           Y           -0.02713   0.99963  -0.00002
           Z           -0.00007   0.00002   1.00000
 This molecule is an asymmetric top.
 Rotational symmetry number  1.
 Warning -- assumption of classical behavior for rotation
           may cause significant error
 Rotational temperatures (Kelvin)      0.01679     0.01676     0.00998
 Rotational constants (GHZ):           0.34978     0.34924     0.20787
 Zero-point vibrational energy     719962.2 (Joules/Mol)
                                  172.07509 (Kcal/Mol)
 Warning -- explicit consideration of  21 degrees of freedom as
           vibrations may cause significant error
 Vibrational temperatures:     32.26    34.38    54.82    76.66    76.90
          (Kelvin)            101.58   261.05   290.78   291.90   353.28
                              373.66   374.27   588.07   588.32   593.26
                              600.12   617.82   618.13   732.76   733.37
                              742.87   910.35   910.37   911.28   995.51
                             1014.61  1014.75  1024.74  1024.94  1026.26
                             1095.47  1097.54  1097.79  1246.23  1246.40
                             1249.95  1342.25  1342.51  1344.22  1403.92
                             1404.14  1406.63  1439.27  1439.40  1440.39
                             1460.86  1460.91  1461.45  1514.60  1514.68
                             1514.92  1594.04  1594.48  1596.35  1598.20
                             1598.36  1606.07  1717.18  1717.77  1717.80
                             1754.23  1754.66  1756.67  1906.42  1911.65
                             1912.01  1964.25  1964.49  1965.00  2130.11
                             2130.75  2130.89  2202.93  2203.63  2203.73
                             2345.42  2345.79  2345.89  2368.45  2368.50
                             2371.05  4569.69  4569.74  4569.89  4579.10
                             4579.15  4579.32  4593.72  4593.81  4594.00
                             4609.22  4609.69  4610.20  4617.89  4618.55
                             4619.71

 Zero-point correction=                           0.274219 (Hartree/Particle)
 Thermal correction to Energy=                    0.290142
 Thermal correction to Enthalpy=                  0.291086
 Thermal correction to Gibbs Free Energy=         0.227737
 Sum of electronic and zero-point Energies=          -1036.024012
 Sum of electronic and thermal Energies=             -1036.008090
 Sum of electronic and thermal Enthalpies=           -1036.007146
 Sum of electronic and thermal Free Energies=        -1036.070494

                     E (Thermal)             CV                S
                      KCal/Mol        Cal/Mol-Kelvin    Cal/Mol-Kelvin
 Total                  182.067             62.536            133.328
 Electronic               0.000              0.000              0.000
 Translational            0.889              2.981             42.590
 Rotational               0.889              2.981             33.803
 Vibrational            180.289             56.574             56.935
 Vibration     1          0.593              1.985              6.407
 Vibration     2          0.593              1.985              6.281
 Vibration     3          0.594              1.982              5.356
 Vibration     4          0.596              1.976              4.692
 Vibration     5          0.596              1.976              4.686
 Vibration     6          0.598              1.968              4.136
 Vibration     7          0.630              1.865              2.314
 Vibration     8          0.639              1.837              2.114
 Vibration     9          0.639              1.836              2.107
 Vibration    10          0.660              1.770              1.762
 Vibration    11          0.668              1.746              1.664
 Vibration    12          0.668              1.746              1.661
 Vibration    13          0.773              1.451              0.931
 Vibration    14          0.773              1.451              0.930
 Vibration    15          0.776              1.443              0.918
 Vibration    16          0.780              1.433              0.902
 Vibration    17          0.791              1.406              0.861
 Vibration    18          0.791              1.406              0.860
 Vibration    19          0.864              1.229              0.635
 Vibration    20          0.865              1.228              0.634
 Vibration    21          0.871              1.214              0.619

                           ! Non-Optimized Parameters !
 Normal termination of Gaussian 16 at Sun Dec  8 18:56:32 2019.
 Gaussian 16:  ES64L-G16RevA.03 25-Dec-2016

 ----------------------------------------------------------------------
 # TD(NStates=10, Root=1) B3LYP/6-31G* scf=xqc volume pop=NPA density=c
 urrent Geom=AllCheck Guess=Read
 ----------------------------------------------------------------------

 Structure from the checkpoint file:  "direct_arylation_ligand38_conf123.chk"
 -------------------
 Title Card Required
 -------------------
 Charge =  0 Multiplicity = 1

                         Standard orientation:
 ---------------------------------------------------------------------
 Center     Atomic      Atomic             Coordinates (Angstroms)
 Number     Number       Type             X           Y           Z
 ---------------------------------------------------------------------
      1         15           0       -0.000072   -0.000611   -1.205548
      2          6           0       -1.518403   -0.697117   -0.401040
      3          6           0       -2.106986   -0.188381    0.766811
      4          6           0       -3.267762   -0.764690    1.287448
      5          6           0       -3.855510   -1.859992    0.652727
      6          6           0       -3.281293   -2.374124   -0.511828
      7          6           0       -2.128742   -1.791038   -1.037896
      8          6           0        0.155456    1.662974   -0.402275
      9          6           0        0.902994    1.921929    0.756674
     10          6           0        0.982429    3.215417    1.277464
     11          6           0        0.313199    4.268410    0.651823
     12          6           0       -0.431875    4.024503   -0.503876
     13          6           0       -0.501401    2.734848   -1.030221
     14          6           0        1.363617   -0.966781   -0.402861
     15          6           0        2.620613   -0.931529   -1.030241
     16          6           0        3.703051   -1.636936   -0.505088
     17          6           0        3.541801   -2.407025    0.648718
     18          6           0        2.295001   -2.462625    1.273550
     19          6           0        1.214164   -1.746661    0.754051
     20          1           0       -1.659725    0.663687    1.269805
     21          1           0       -3.712135   -0.356353    2.191744
     22          1           0       -4.759364   -2.306396    1.059006
     23          1           0       -3.736790   -3.222148   -1.016703
     24          1           0       -1.698574   -2.184660   -1.956103
     25          1           0        1.428841    1.111385    1.252548
     26          1           0        1.568196    3.399012    2.174751
     27          1           0        0.377068    5.274410    1.058233
     28          1           0       -0.950015    4.840144   -1.001656
     29          1           0       -1.067715    2.556317   -1.941565
     30          1           0        2.749082   -0.350004   -1.940430
     31          1           0        4.668647   -1.594237   -1.002411
     32          1           0        4.381301   -2.965721    1.054169
     33          1           0        2.161086   -3.064128    2.169219
     34          1           0        0.249048   -1.799236    1.248960
 ---------------------------------------------------------------------

 SCF Done:  E(RB3LYP) =  -1036.29823153     A.U. after    2 cycles

 Excitation energies and oscillator strengths:

 Excited State   1:      Singlet-A      4.5057 eV  275.17 nm  f=0.1265  <S**2>=0.000
      69 -> 70         0.69720
 This state for optimization and/or second-order correction.
 Total Energy, E(TD-HF/TD-DFT) =  -1036.13264898
 Copying the excited state density for this state as the 1-particle RhoCI density.

 Excited State   2:      Singlet-A      4.5126 eV  274.75 nm  f=0.1293  <S**2>=0.000
      69 -> 71         0.69710

 Excited State   3:      Singlet-A      4.7566 eV  260.66 nm  f=0.0022  <S**2>=0.000
      67 -> 70        -0.12103
      68 -> 71        -0.12261
      69 -> 72         0.67471

 Excited State   4:      Singlet-A      5.0558 eV  245.23 nm  f=0.0002  <S**2>=0.000
      66 -> 70         0.16700
      67 -> 70        -0.13445
      68 -> 71         0.13326
      69 -> 74         0.62984

 Excited State   5:      Singlet-A      5.0584 eV  245.11 nm  f=0.0002  <S**2>=0.000
      66 -> 71        -0.16908
      67 -> 71        -0.13619
      68 -> 70        -0.13593
      69 -> 75         0.62841

 Excited State   6:      Singlet-A      5.1505 eV  240.72 nm  f=0.0085  <S**2>=0.000
      69 -> 73         0.67872

 Excited State   7:      Singlet-A      5.4270 eV  228.46 nm  f=0.0146  <S**2>=0.000
      63 -> 72         0.16593
      64 -> 74        -0.14768
      65 -> 75        -0.14038
      67 -> 70         0.42856
      68 -> 71         0.40688
      69 -> 72         0.16493

 Excited State   8:      Singlet-A      5.5125 eV  224.91 nm  f=0.0006  <S**2>=0.000
      63 -> 74         0.14307
      64 -> 71        -0.11650
      64 -> 72        -0.22538
      65 -> 70         0.12595
      65 -> 72        -0.16909
      66 -> 70        -0.22794
      67 -> 70         0.24893
      68 -> 71        -0.28206
      68 -> 72         0.16233
      69 -> 74         0.28469

 Excited State   9:      Singlet-A      5.5157 eV  224.78 nm  f=0.0003  <S**2>=0.000
      63 -> 75         0.14461
      64 -> 70         0.11571
      64 -> 72         0.17045
      65 -> 71         0.11361
      65 -> 72        -0.22592
      66 -> 71         0.22425
      67 -> 71         0.26030
      67 -> 72         0.16452
      68 -> 70         0.27770
      69 -> 75         0.28771

 Excited State  10:      Singlet-A      5.6178 eV  220.70 nm  f=0.0009  <S**2>=0.000
      65 -> 71        -0.10611
      67 -> 71        -0.46327
      68 -> 70         0.48603

 The electronic state is 1-A.
 Alpha  occ. eigenvalues --  -77.08109 -10.19449 -10.19446 -10.19444 -10.19154
 Alpha  occ. eigenvalues --  -10.19142 -10.19142 -10.19122 -10.19116 -10.19114
 Alpha  occ. eigenvalues --  -10.19037 -10.19028 -10.19027 -10.19012 -10.19005
 Alpha  occ. eigenvalues --  -10.19004 -10.18969 -10.18959 -10.18958  -6.54841
 Alpha  occ. eigenvalues --   -4.71100  -4.71099  -4.70598  -0.85560  -0.84849
 Alpha  occ. eigenvalues --   -0.84842  -0.76669  -0.74367  -0.74364  -0.74329
 Alpha  occ. eigenvalues --   -0.73822  -0.73820  -0.64436  -0.60337  -0.60309
 Alpha  occ. eigenvalues --   -0.60303  -0.59208  -0.59207  -0.55448  -0.51436
 Alpha  occ. eigenvalues --   -0.51434  -0.49295  -0.45442  -0.45438  -0.44774
 Alpha  occ. eigenvalues --   -0.44344  -0.44344  -0.44067  -0.41947  -0.41869
 Alpha  occ. eigenvalues --   -0.41867  -0.40383  -0.40374  -0.36843  -0.36357
 Alpha  occ. eigenvalues --   -0.36346  -0.35898  -0.34254  -0.34250  -0.34224
 Alpha  occ. eigenvalues --   -0.31887  -0.31881  -0.26773  -0.25456  -0.25440
 Alpha  occ. eigenvalues --   -0.25242  -0.24705  -0.24703  -0.21141
 Alpha virt. eigenvalues --   -0.01890  -0.01872  -0.00829   0.00174   0.00420
 Alpha virt. eigenvalues --    0.00436   0.06871   0.06908   0.09491   0.11037
 Alpha virt. eigenvalues --    0.11042   0.13902   0.14527   0.14530   0.15165

 Mulliken charges:
               1
     1  P    0.450747
     2  C   -0.133958
     3  C   -0.175637
     4  C   -0.118855
     5  C   -0.170646
     6  C   -0.123230
     7  C   -0.172032
     8  C   -0.087535
     9  C   -0.160091
    10  C   -0.116119
    11  C   -0.133300
    12  C   -0.123355
    13  C   -0.152381
    14  C   -0.099609
    15  C   -0.167741
    16  C   -0.116585
    17  C   -0.132238
    18  C   -0.123031
    19  C   -0.150065
    20  H    0.123365
    21  H    0.115141
    22  H    0.105372
    23  H    0.111591
    24  H    0.111757
    25  H    0.152953
    26  H    0.139456
    27  H    0.137277
    28  H    0.137005
    29  H    0.144046
    30  H    0.138311
    31  H    0.135931
    32  H    0.137894
    33  H    0.141081
    34  H    0.174480
 Sum of Mulliken charges =  -0.00000

 Dipole moment (field-independent basis, Debye):
    X=              3.5104    Y=              1.5518    Z=             -0.2006  Tot=              3.8434
 Quadrupole moment (field-independent basis, Debye-Ang):
   XX=           -117.8653   YY=           -109.1938   ZZ=           -110.6700
   XY=             -5.6622   XZ=              1.3797   YZ=             -0.3007

 Summary of Natural Population Analysis:

                                       Natural Population
                Natural  -----------------------------------------------
    Atom  No    Charge         Core      Valence    Rydberg      Total
 -----------------------------------------------------------------------
      P    1    1.24265      9.99750     3.70962    0.05024    13.75735
      C    2   -0.48988      1.99886     4.46558    0.02544     6.48988
      C    3   -0.26420      1.99899     4.24707    0.01814     6.26420
      C    4   -0.23032      1.99909     4.21661    0.01462     6.23032
      C    5   -0.30177      1.99910     4.28587    0.01680     6.30177
      C    6   -0.24558      1.99910     4.23141    0.01507     6.24558
      C    7   -0.23467      1.99901     4.21930    0.01636     6.23467
      C    8   -0.39496      1.99889     4.37201    0.02407     6.39496
      C    9   -0.23249      1.99899     4.21673    0.01677     6.23249
      C   10   -0.22370      1.99909     4.21056    0.01405     6.22370
      C   11   -0.22269      1.99909     4.20908    0.01451     6.22269
      C   12   -0.24352      1.99910     4.22975    0.01467     6.24352
      C   13   -0.19858      1.99901     4.18434    0.01523     6.19858
      C   14   -0.41215      1.99890     4.38728    0.02598     6.41215
      C   15   -0.22087      1.99902     4.20623    0.01563     6.22087
      C   16   -0.23160      1.99910     4.21827    0.01423     6.23160
      C   17   -0.22018      1.99909     4.20658    0.01450     6.22018
      C   18   -0.23589      1.99909     4.22245    0.01434     6.23589
      C   19   -0.20648      1.99900     4.19101    0.01648     6.20648
      H   20    0.23203      0.00000     0.76646    0.00151     0.76797
      H   21    0.23096      0.00000     0.76816    0.00088     0.76904
      H   22    0.22447      0.00000     0.77464    0.00089     0.77553
      H   23    0.22866      0.00000     0.77043    0.00091     0.77134
      H   24    0.22288      0.00000     0.77614    0.00098     0.77712
      H   25    0.24882      0.00000     0.74993    0.00125     0.75118
      H   26    0.24215      0.00000     0.75698    0.00087     0.75785
      H   27    0.23832      0.00000     0.76083    0.00085     0.76168
      H   28    0.24081      0.00000     0.75832    0.00087     0.75919
      H   29    0.24038      0.00000     0.75837    0.00125     0.75962
      H   30    0.23590      0.00000     0.76301    0.00109     0.76410
      H   31    0.23960      0.00000     0.75945    0.00094     0.76040
      H   32    0.23847      0.00000     0.76066    0.00087     0.76153
      H   33    0.24305      0.00000     0.75607    0.00088     0.75695
      H   34    0.26037      0.00000     0.73826    0.00137     0.73963
 =======================================================================
   * Total *   -0.00000     45.98001    91.64747    0.37252   138.00000

 Normal termination of Gaussian 16 at Sun Dec  8 19:13:30 2019.
