 Gaussian 16, Revision A.03,

 -----------------------------------------
 # opt=CalcFc B3LYP/6-31G* scf=xqc scf=xqc
 -----------------------------------------

 -------------------
 Title Card Required
 -------------------
 Symbolic Z-matrix:
 Charge =  0 Multiplicity = 1

 SCF Done:  E(RB3LYP) =  -1036.25310848     A.U. after   14 cycles
 SCF Done:  E(RB3LYP) =  -1036.26941690     A.U. after   14 cycles
 SCF Done:  E(RB3LYP) =  -1036.28095401     A.U. after   13 cycles
 SCF Done:  E(RB3LYP) =  -1036.29031473     A.U. after   14 cycles
 SCF Done:  E(RB3LYP) =  -1036.28643955     A.U. after   14 cycles
 SCF Done:  E(RB3LYP) =  -1036.29231553     A.U. after   12 cycles
 SCF Done:  E(RB3LYP) =  -1036.29165359     A.U. after   12 cycles
 SCF Done:  E(RB3LYP) =  -1036.29352791     A.U. after   12 cycles
 SCF Done:  E(RB3LYP) =  -1036.29316897     A.U. after   14 cycles
 SCF Done:  E(RB3LYP) =  -1036.29379525     A.U. after   12 cycles
 SCF Done:  E(RB3LYP) =  -1036.29823221     A.U. after    7 cycles
 SCF Done:  E(RB3LYP) =  -1036.29822519     A.U. after   11 cycles
 SCF Done:  E(RB3LYP) =  -1036.29823759     A.U. after   10 cycles
 SCF Done:  E(RB3LYP) =  -1036.29823662     A.U. after    9 cycles
 SCF Done:  E(RB3LYP) =  -1036.29823549     A.U. after    8 cycles
 SCF Done:  E(RB3LYP) =  -1036.29822929     A.U. after    7 cycles
 SCF Done:  E(RB3LYP) =  -1036.29822922     A.U. after    7 cycles
 SCF Done:  E(RB3LYP) =  -1036.29822923     A.U. after    6 cycles
 Optimization completed.
    -- Stationary point found.
 Normal termination of Gaussian 16 at Sun Dec  8 18:51:11 2019.

 ----------------------------------------------------------------------
 # freq B3LYP/6-31G* scf=xqc volume NMR pop=NPA density=current Geom=Al
 lCheck Guess=Read
 ----------------------------------------------------------------------

 Structure from the checkpoint file:  "direct_arylation_ligand38_conf222.chk"
 -------------------
 Title Card Required
 -------------------
 Charge =  0 Multiplicity = 1

 SCF Done:  E(RB3LYP) =  -1036.29822923     A.U. after    1 cycles

      1  P    Isotropic =   361.4546   Anisotropy =    39.7264

      2  C    Isotropic =    56.1424   Anisotropy =   179.4017

      3  C    Isotropic =    60.9888   Anisotropy =   164.0920

      4  C    Isotropic =    68.7303   Anisotropy =   164.1527

      5  C    Isotropic =    68.1552   Anisotropy =   167.3654

      6  C    Isotropic =    68.6743   Anisotropy =   163.8892

      7  C    Isotropic =    62.5574   Anisotropy =   174.0543

      8  C    Isotropic =    56.0930   Anisotropy =   179.4452

      9  C    Isotropic =    62.5902   Anisotropy =   174.0248

     10  C    Isotropic =    68.6814   Anisotropy =   163.8854

     11  C    Isotropic =    68.1673   Anisotropy =   167.3138

     12  C    Isotropic =    68.7326   Anisotropy =   164.1223

     13  C    Isotropic =    61.0306   Anisotropy =   164.1198

     14  C    Isotropic =    56.1058   Anisotropy =   179.4004

     15  C    Isotropic =    61.0314   Anisotropy =   164.1303

     16  C    Isotropic =    68.7436   Anisotropy =   164.1466

     17  C    Isotropic =    68.1868   Anisotropy =   167.3370

     18  C    Isotropic =    68.6691   Anisotropy =   163.8819

     19  C    Isotropic =    62.5973   Anisotropy =   174.0182

     20  H    Isotropic =    24.6109   Anisotropy =     9.2426

     21  H    Isotropic =    24.9241   Anisotropy =     4.5897

     22  H    Isotropic =    25.0175   Anisotropy =     3.6475

     23  H    Isotropic =    25.0479   Anisotropy =     6.0851

     24  H    Isotropic =    25.4012   Anisotropy =    12.2160

     25  H    Isotropic =    25.4057   Anisotropy =    12.2292

     26  H    Isotropic =    25.0486   Anisotropy =     6.0866

     27  H    Isotropic =    25.0218   Anisotropy =     3.6405

     28  H    Isotropic =    24.9288   Anisotropy =     4.5875

     29  H    Isotropic =    24.6137   Anisotropy =     9.2521

     30  H    Isotropic =    24.6166   Anisotropy =     9.2551

     31  H    Isotropic =    24.9264   Anisotropy =     4.5897

     32  H    Isotropic =    25.0188   Anisotropy =     3.6432

     33  H    Isotropic =    25.0488   Anisotropy =     6.0876

     34  H    Isotropic =    25.4055   Anisotropy =    12.2380

  Exact polarizability: 224.257   0.058 224.028   0.073  -0.068 165.021
 Approx polarizability: 331.145   0.135 330.699   0.173  -0.157 307.989

                      1                      2                      3
                      A                      A                      A
 Frequencies --     21.6860                22.7022                37.6882
 Red. masses --      3.7947                 3.7981                 3.6889
 Frc consts  --      0.0011                 0.0012                 0.0031
 IR Inten    --      0.2819                 0.2833                 0.0013

                      4                      5                      6
                      A                      A                      A
 Frequencies --     53.2636                53.3462                70.5326
 Red. masses --      5.2502                 5.2553                 5.1681
 Frc consts  --      0.0088                 0.0088                 0.0151
 IR Inten    --      0.0852                 0.0836                 0.3097

                      7                      8                      9
                      A                      A                      A
 Frequencies --    181.4462               202.3933               202.6407
 Red. masses --      4.5597                 4.6431                 4.6416
 Frc consts  --      0.0884                 0.1121                 0.1123
 IR Inten    --      0.3527                 1.1367                 1.1374

                     10                     11                     12
                      A                      A                      A
 Frequencies --    245.5366               259.8120               259.8912
 Red. masses --      5.7380                 4.7212                 4.7217
 Frc consts  --      0.2038                 0.1878                 0.1879
 IR Inten    --      0.4837                 0.2219                 0.2269

                     13                     14                     15
                      A                      A                      A
 Frequencies --    408.7709               408.8544               412.3353
 Red. masses --      3.0778                 3.0794                 3.5988
 Frc consts  --      0.3030                 0.3033                 0.3605
 IR Inten    --      1.9446                 1.9809                 0.1618

                     16                     17                     18
                      A                      A                      A
 Frequencies --    417.0125               429.3621               429.4938
 Red. masses --      4.6062                 7.3032                 7.3153
 Frc consts  --      0.4719                 0.7933                 0.7951
 IR Inten    --      0.5604                 7.6573                 7.7264

                     19                     20                     21
                      A                      A                      A
 Frequencies --    509.3487               509.4748               516.2839
 Red. masses --      4.2466                 4.2465                 4.5873
 Frc consts  --      0.6491                 0.6494                 0.7204
 IR Inten    --     26.0367                26.1407                11.9982

                     22                     23                     24
                      A                      A                      A
 Frequencies --    632.7184               632.7361               633.3551
 Red. masses --      6.4270                 6.4271                 6.4368
 Frc consts  --      1.5159                 1.5160                 1.5213
 IR Inten    --      0.1810                 0.1804                 0.0162

                     25                     26                     27
                      A                      A                      A
 Frequencies --    691.8478               705.0876               705.1902
 Red. masses --      6.5812                 5.7163                 5.7470
 Frc consts  --      1.8560                 1.6744                 1.6839
 IR Inten    --      0.7662                 1.1883                 1.1772

                     28                     29                     30
                      A                      A                      A
 Frequencies --    712.1585               712.2898               713.1953
 Red. masses --      2.1974                 2.1992                 2.1319
 Frc consts  --      0.6566                 0.6574                 0.6389
 IR Inten    --     26.4537                26.2477                16.6123

                     31                     32                     33
                      A                      A                      A
 Frequencies --    761.3869               762.8679               762.8868
 Red. masses --      1.6162                 1.6471                 1.6505
 Frc consts  --      0.5520                 0.5648                 0.5660
 IR Inten    --     19.2103                24.9460                24.8927

                     34                     35                     36
                      A                      A                      A
 Frequencies --    866.0757               866.1981               868.6681
 Red. masses --      1.2478                 1.2477                 1.2463
 Frc consts  --      0.5515                 0.5516                 0.5541
 IR Inten    --      0.2285                 0.2209                 0.1349

                     37                     38                     39
                      A                      A                      A
 Frequencies --    932.8000               932.9498               934.1228
 Red. masses --      1.3446                 1.3440                 1.3388
 Frc consts  --      0.6893                 0.6893                 0.6883
 IR Inten    --      1.2645                 1.2722                 0.0289

                     40                     41                     42
                      A                      A                      A
 Frequencies --    975.7073               975.8343               977.5507
 Red. masses --      1.3615                 1.3611                 1.3558
 Frc consts  --      0.7637                 0.7637                 0.7633
 IR Inten    --      0.0154                 0.0170                 0.1435

                     43                     44                     45
                      A                      A                      A
 Frequencies --   1000.3145              1000.3861              1001.0552
 Red. masses --      1.2545                 1.2542                 1.2526
 Frc consts  --      0.7396                 0.7395                 0.7396
 IR Inten    --      0.0787                 0.0806                 0.0001

                     46                     47                     48
                      A                      A                      A
 Frequencies --   1015.3599              1015.3704              1015.7556
 Red. masses --      6.3112                 6.3109                 6.3099
 Frc consts  --      3.8336                 3.8335                 3.8357
 IR Inten    --      4.3616                 4.3663                 0.0447

                     49                     50                     51
                      A                      A                      A
 Frequencies --   1052.7031              1052.7392              1052.9290
 Red. masses --      3.3121                 3.3151                 3.2529
 Frc consts  --      2.1625                 2.1647                 2.1248
 IR Inten    --      2.1063                 2.0740                 0.0454

                     52                     53                     54
                      A                      A                      A
 Frequencies --   1107.9119              1107.9960              1109.4613
 Red. masses --      1.8867                 1.8701                 1.6547
 Frc consts  --      1.3645                 1.3527                 1.2001
 IR Inten    --      4.2880                 4.0013                 2.8863

                     55                     56                     57
                      A                      A                      A
 Frequencies --   1110.6764              1110.7942              1116.1079
 Red. masses --      2.1851                 2.2086                 2.6136
 Frc consts  --      1.5882                 1.6056                 1.9182
 IR Inten    --      9.2925                 9.6341                 1.2488

                     58                     59                     60
                      A                      A                      A
 Frequencies --   1193.4731              1193.8882              1193.9095
 Red. masses --      1.1033                 1.1000                 1.1000
 Frc consts  --      0.9259                 0.9238                 0.9238
 IR Inten    --      0.0009                 0.1309                 0.1283

                     61                     62                     63
                      A                      A                      A
 Frequencies --   1219.2111              1219.3724              1220.8324
 Red. masses --      1.1476                 1.1477                 1.1473
 Frc consts  --      1.0051                 1.0054                 1.0075
 IR Inten    --      6.0556                 6.0500                 0.3439

                     64                     65                     66
                      A                      A                      A
 Frequencies --   1324.9659              1328.6677              1328.7861
 Red. masses --      3.4885                 3.4795                 3.4989
 Frc consts  --      3.6082                 3.6191                 3.6400
 IR Inten    --      2.6346                 2.4418                 2.4374

                     67                     68                     69
                      A                      A                      A
 Frequencies --   1365.1439              1365.2412              1365.5830
 Red. masses --      1.6580                 1.6546                 1.6441
 Frc consts  --      1.8205                 1.8171                 1.8064
 IR Inten    --      0.1402                 0.3425                 2.9005

                     70                     71                     72
                      A                      A                      A
 Frequencies --   1480.4702              1480.9466              1480.9689
 Red. masses --      2.1106                 2.1156                 2.1156
 Frc consts  --      2.7255                 2.7337                 2.7339
 IR Inten    --     16.5924                 6.6186                 6.6313

                     73                     74                     75
                      A                      A                      A
 Frequencies --   1531.0656              1531.5422              1531.6169
 Red. masses --      2.0153                 1.9987                 1.9982
 Frc consts  --      2.7834                 2.7622                 2.7618
 IR Inten    --      2.0074                10.1718                10.1239

                     76                     77                     78
                      A                      A                      A
 Frequencies --   1630.1543              1630.4449              1630.4472
 Red. masses --      5.1005                 5.1130                 5.1132
 Frc consts  --      7.9859                 8.0083                 8.0085
 IR Inten    --      0.3975                 0.0480                 0.0425

                     79                     80                     81
                      A                      A                      A
 Frequencies --   1646.1389              1646.1689              1647.9508
 Red. masses --      5.2718                 5.2708                 5.2830
 Frc consts  --      8.4167                 8.4154                 8.4532
 IR Inten    --      3.5347                 3.4985                 0.3185

                     82                     83                     84
                      A                      A                      A
 Frequencies --   3176.0287              3176.0711              3176.1099
 Red. masses --      1.0854                 1.0853                 1.0853
 Frc consts  --      6.4507                 6.4505                 6.4506
 IR Inten    --      2.1769                 1.9459                 1.8980

                     85                     86                     87
                      A                      A                      A
 Frequencies --   3182.5853              3182.6277              3182.7237
 Red. masses --      1.0875                 1.0875                 1.0876
 Frc consts  --      6.4899                 6.4902                 6.4909
 IR Inten    --      0.7643                 0.6089                 0.3106

                     88                     89                     90
                      A                      A                      A
 Frequencies --   3192.7910              3192.8226              3192.9430
 Red. masses --      1.0916                 1.0916                 1.0917
 Frc consts  --      6.5564                 6.5567                 6.5577
 IR Inten    --     10.6868                10.2253                47.2201

                     91                     92                     93
                      A                      A                      A
 Frequencies --   3203.8128              3203.9211              3204.2941
 Red. masses --      1.0941                 1.0941                 1.0943
 Frc consts  --      6.6166                 6.6174                 6.6196
 IR Inten    --     40.7749                40.5837                 5.9069

                     94                     95                     96
                      A                      A                      A
 Frequencies --   3209.9652              3210.1165              3210.9752
 Red. masses --      1.0957                 1.0956                 1.0956
 Frc consts  --      6.6520                 6.6521                 6.6554
 IR Inten    --     20.3501                19.7649                16.3005

 - Thermochemistry -
 -------------------
 Temperature   298.150 Kelvin.  Pressure   1.00000 Atm.
 Atom     1 has atomic number 15 and mass  30.97376

 Molecular mass:   262.09114 amu.
 Principal axes and moments of inertia in atomic units:
                           1         2         3
     Eigenvalues --  5160.983615164.473618680.53736
           X            0.99986   0.01661   0.00002
           Y           -0.01661   0.99986  -0.00002
           Z           -0.00002   0.00002   1.00000
 This molecule is an asymmetric top.
 Rotational symmetry number  1.
 Warning -- assumption of classical behavior for rotation
           may cause significant error
 Rotational temperatures (Kelvin)      0.01678     0.01677     0.00998
 Rotational constants (GHZ):           0.34969     0.34945     0.20791
 Zero-point vibrational energy     719923.7 (Joules/Mol)
                                  172.06589 (Kcal/Mol)
 Warning -- explicit consideration of  21 degrees of freedom as
           vibrations may cause significant error
 Vibrational temperatures:     31.20    32.66    54.22    76.63    76.75
          (Kelvin)            101.48   261.06   291.20   291.55   353.27
                              373.81   373.93   588.13   588.25   593.26
                              599.99   617.76   617.95   732.84   733.02
                              742.82   910.34   910.37   911.26   995.41
                             1014.46  1014.61  1024.64  1024.83  1026.13
                             1095.47  1097.60  1097.62  1246.09  1246.27
                             1249.82  1342.09  1342.31  1343.99  1403.83
                             1404.01  1406.48  1439.23  1439.33  1440.30
                             1460.88  1460.89  1461.45  1514.60  1514.66
                             1514.93  1594.04  1594.16  1596.27  1598.02
                             1598.19  1605.83  1717.14  1717.74  1717.77
                             1754.17  1754.40  1756.51  1906.33  1911.66
                             1911.83  1964.14  1964.28  1964.77  2130.07
                             2130.75  2130.78  2202.86  2203.55  2203.66
                             2345.43  2345.85  2345.85  2368.43  2368.47
                             2371.03  4569.60  4569.66  4569.71  4579.03
                             4579.09  4579.23  4593.71  4593.76  4593.93
                             4609.57  4609.73  4610.26  4618.42  4618.64
                             4619.88

 Zero-point correction=                           0.274204 (Hartree/Particle)
 Thermal correction to Energy=                    0.290133
 Thermal correction to Enthalpy=                  0.291078
 Thermal correction to Gibbs Free Energy=         0.227635
 Sum of electronic and zero-point Energies=          -1036.024025
 Sum of electronic and thermal Energies=             -1036.008096
 Sum of electronic and thermal Enthalpies=           -1036.007152
 Sum of electronic and thermal Free Energies=        -1036.070595

                     E (Thermal)             CV                S
                      KCal/Mol        Cal/Mol-Kelvin    Cal/Mol-Kelvin
 Total                  182.062             62.541            133.527
 Electronic               0.000              0.000              0.000
 Translational            0.889              2.981             42.590
 Rotational               0.889              2.981             33.803
 Vibrational            180.284             56.580             57.134
 Vibration     1          0.593              1.985              6.473
 Vibration     2          0.593              1.985              6.383
 Vibration     3          0.594              1.982              5.377
 Vibration     4          0.596              1.976              4.692
 Vibration     5          0.596              1.976              4.689
 Vibration     6          0.598              1.968              4.138
 Vibration     7          0.630              1.865              2.313
 Vibration     8          0.639              1.836              2.111
 Vibration     9          0.639              1.836              2.109
 Vibration    10          0.660              1.770              1.762
 Vibration    11          0.668              1.746              1.663
 Vibration    12          0.668              1.746              1.663
 Vibration    13          0.773              1.451              0.931
 Vibration    14          0.773              1.451              0.931
 Vibration    15          0.776              1.443              0.918
 Vibration    16          0.780              1.433              0.902
 Vibration    17          0.791              1.406              0.861
 Vibration    18          0.791              1.406              0.860
 Vibration    19          0.864              1.229              0.635
 Vibration    20          0.865              1.229              0.635
 Vibration    21          0.871              1.214              0.619

                           ! Non-Optimized Parameters !
 Normal termination of Gaussian 16 at Sun Dec  8 19:07:50 2019.
 Gaussian 16:  ES64L-G16RevA.03 25-Dec-2016

 ----------------------------------------------------------------------
 # TD(NStates=10, Root=1) B3LYP/6-31G* scf=xqc volume pop=NPA density=c
 urrent Geom=AllCheck Guess=Read
 ----------------------------------------------------------------------

 Structure from the checkpoint file:  "direct_arylation_ligand38_conf223.chk"
 -------------------
 Title Card Required
 -------------------
 Charge =  0 Multiplicity = 1

                         Standard orientation:
 ---------------------------------------------------------------------
 Center     Atomic      Atomic             Coordinates (Angstroms)
 Number     Number       Type             X           Y           Z
 ---------------------------------------------------------------------
      1         15           0       -0.000418   -0.000145   -1.206690
      2          6           0       -1.649962   -0.264685   -0.402479
      3          6           0       -2.527262   -1.162356   -1.034280
      4          6           0       -3.793419   -1.416553   -0.507600
      5          6           0       -4.212099   -0.761514    0.652488
      6          6           0       -3.356113    0.143399    1.282198
      7          6           0       -2.083893    0.389004    0.760929
      8          6           0        0.595396    1.560718   -0.402662
      9          6           0        1.382639    1.609521    0.757931
     10          6           0        1.805965    2.834140    1.279215
     11          6           0        1.446052    4.028111    0.652358
     12          6           0        0.665270    3.993200   -0.504958
     13          6           0        0.252411    2.769593   -1.031691
     14          6           0        1.054018   -1.296329   -0.403047
     15          6           0        2.273536   -1.601268   -1.031172
     16          6           0        3.127433   -2.570302   -0.504961
     17          6           0        2.766803   -3.266237    0.650834
     18          6           0        1.551739   -2.983486    1.276685
     19          6           0        0.702215   -2.004770    0.756012
     20          1           0       -2.215729   -1.661628   -1.949041
     21          1           0       -4.456579   -2.117133   -1.008529
     22          1           0       -5.202147   -0.950401    1.059208
     23          1           0       -3.677431    0.660448    2.182959
     24          1           0       -1.427639    1.095821    1.259739
     25          1           0        1.669953    0.687661    1.254615
     26          1           0        2.417610    2.853705    2.177805
     27          1           0        1.777367    4.979996    1.059096
     28          1           0        0.386761    4.917980   -1.003698
     29          1           0       -0.339088    2.749727   -1.944301
     30          1           0        2.552463   -1.077326   -1.942664
     31          1           0        4.068442   -2.789479   -1.002946
     32          1           0        3.425991   -4.028914    1.057143
     33          1           0        1.262484   -3.524766    2.174073
     34          1           0       -0.240556   -1.794639    1.252076
 ---------------------------------------------------------------------

 SCF Done:  E(RB3LYP) =  -1036.29822923     A.U. after    1 cycles

 Excitation energies and oscillator strengths:

 Excited State   1:      Singlet-A      4.5092 eV  274.96 nm  f=0.1274  <S**2>=0.000
      69 -> 70         0.69710
 This state for optimization and/or second-order correction.
 Total Energy, E(TD-HF/TD-DFT) =  -1036.13252075
 Copying the excited state density for this state as the 1-particle RhoCI density.

 Excited State   2:      Singlet-A      4.5117 eV  274.81 nm  f=0.1284  <S**2>=0.000
      69 -> 71         0.69706

 Excited State   3:      Singlet-A      4.7566 eV  260.66 nm  f=0.0022  <S**2>=0.000
      67 -> 70         0.12366
      68 -> 71         0.12424
      69 -> 72         0.67470

 Excited State   4:      Singlet-A      5.0574 eV  245.16 nm  f=0.0002  <S**2>=0.000
      66 -> 70        -0.16741
      67 -> 70         0.13068
      68 -> 71        -0.13043
      69 -> 74         0.63002

 Excited State   5:      Singlet-A      5.0584 eV  245.10 nm  f=0.0002  <S**2>=0.000
      66 -> 71        -0.16809
      67 -> 71        -0.13167
      68 -> 70        -0.13149
      69 -> 75         0.62938

 Excited State   6:      Singlet-A      5.1506 eV  240.72 nm  f=0.0085  <S**2>=0.000
      69 -> 73         0.67908

 Excited State   7:      Singlet-A      5.4276 eV  228.43 nm  f=0.0147  <S**2>=0.000
      63 -> 72        -0.16607
      64 -> 74        -0.14162
      65 -> 75         0.13902
      67 -> 70         0.42472
      68 -> 71         0.41703
      69 -> 72        -0.16499

 Excited State   8:      Singlet-A      5.5138 eV  224.86 nm  f=0.0005  <S**2>=0.000
      63 -> 74         0.14372
      64 -> 71         0.10088
      64 -> 72         0.22100
      65 -> 70        -0.10334
      65 -> 72        -0.17642
      66 -> 70         0.22644
      67 -> 70        -0.26358
      68 -> 71         0.27500
      68 -> 72        -0.16274
      69 -> 74         0.28680

 Excited State   9:      Singlet-A      5.5151 eV  224.81 nm  f=0.0004  <S**2>=0.000
      63 -> 75         0.14422
      64 -> 70         0.10016
      64 -> 72        -0.17680
      65 -> 71         0.10011
      65 -> 72        -0.22110
      66 -> 71         0.22479
      67 -> 71         0.26774
      67 -> 72         0.16357
      68 -> 70         0.27383
      69 -> 75         0.28796

 Excited State  10:      Singlet-A      5.6183 eV  220.68 nm  f=0.0009  <S**2>=0.000
      67 -> 71        -0.47679
      68 -> 70         0.48652

 The electronic state is 1-A.
 Alpha  occ. eigenvalues --  -77.08113 -10.19448 -10.19447 -10.19446 -10.19149
 Alpha  occ. eigenvalues --  -10.19145 -10.19144 -10.19119 -10.19116 -10.19116
 Alpha  occ. eigenvalues --  -10.19033 -10.19030 -10.19029 -10.19009 -10.19006
 Alpha  occ. eigenvalues --  -10.19006 -10.18964 -10.18960 -10.18959  -6.54844
 Alpha  occ. eigenvalues --   -4.71103  -4.71103  -4.70602  -0.85560  -0.84847
 Alpha  occ. eigenvalues --   -0.84844  -0.76669  -0.74367  -0.74365  -0.74329
 Alpha  occ. eigenvalues --   -0.73822  -0.73820  -0.64436  -0.60336  -0.60308
 Alpha  occ. eigenvalues --   -0.60306  -0.59207  -0.59206  -0.55448  -0.51436
 Alpha  occ. eigenvalues --   -0.51434  -0.49295  -0.45441  -0.45439  -0.44773
 Alpha  occ. eigenvalues --   -0.44345  -0.44344  -0.44067  -0.41946  -0.41869
 Alpha  occ. eigenvalues --   -0.41867  -0.40379  -0.40376  -0.36844  -0.36352
 Alpha  occ. eigenvalues --   -0.36349  -0.35899  -0.34253  -0.34251  -0.34224
 Alpha  occ. eigenvalues --   -0.31885  -0.31883  -0.26779  -0.25450  -0.25444
 Alpha  occ. eigenvalues --   -0.25243  -0.24704  -0.24703  -0.21143
 Alpha virt. eigenvalues --   -0.01882  -0.01875  -0.00831   0.00172   0.00426
 Alpha virt. eigenvalues --    0.00432   0.06877   0.06889   0.09493   0.11038
 Alpha virt. eigenvalues --    0.11039   0.13904   0.14528   0.14529   0.15164

 Mulliken charges:
               1
     1  P    0.450649
     2  C   -0.134264
     3  C   -0.173213
     4  C   -0.122415
     5  C   -0.169994
     6  C   -0.119562
     7  C   -0.174303
     8  C   -0.090912
     9  C   -0.162187
    10  C   -0.115812
    11  C   -0.136555
    12  C   -0.123981
    13  C   -0.152861
    14  C   -0.096146
    15  C   -0.166105
    16  C   -0.116678
    17  C   -0.129629
    18  C   -0.122678
    19  C   -0.149125
    20  H    0.111801
    21  H    0.111968
    22  H    0.105941
    23  H    0.115668
    24  H    0.125868
    25  H    0.148879
    26  H    0.137253
    27  H    0.134479
    28  H    0.134850
    29  H    0.141675
    30  H    0.140644
    31  H    0.137726
    32  H    0.140130
    33  H    0.142759
    34  H    0.176128
 Sum of Mulliken charges =  -0.00000

 Dipole moment (field-independent basis, Debye):
    X=              3.7792    Y=              0.0246    Z=             -0.1964  Tot=              3.7844
 Quadrupole moment (field-independent basis, Debye-Ang):
   XX=           -119.6671   YY=           -107.3894   ZZ=           -110.6739
   XY=             -3.4555   XZ=              1.1119   YZ=             -0.7967

 Summary of Natural Population Analysis:

                                       Natural Population
                Natural  -----------------------------------------------
    Atom  No    Charge         Core      Valence    Rydberg      Total
 -----------------------------------------------------------------------
      P    1    1.24211      9.99750     3.71015    0.05024    13.75789
      C    2   -0.48973      1.99886     4.46526    0.02561     6.48973
      C    3   -0.23637      1.99901     4.22097    0.01639     6.23637
      C    4   -0.24413      1.99910     4.23001    0.01502     6.24413
      C    5   -0.30033      1.99910     4.28446    0.01678     6.30033
      C    6   -0.23156      1.99909     4.21783    0.01465     6.23156
      C    7   -0.26080      1.99899     4.24373    0.01808     6.26080
      C    8   -0.40175      1.99888     4.37881    0.02405     6.40175
      C    9   -0.23726      1.99899     4.22134    0.01693     6.23726
      C   10   -0.22329      1.99909     4.21013    0.01407     6.22329
      C   11   -0.22962      1.99909     4.21580    0.01473     6.22962
      C   12   -0.24486      1.99910     4.23102    0.01475     6.24486
      C   13   -0.19993      1.99901     4.18562    0.01530     6.19993
      C   14   -0.40516      1.99890     4.38041    0.02585     6.40516
      C   15   -0.21797      1.99902     4.20341    0.01554     6.21797
      C   16   -0.23162      1.99910     4.21833    0.01420     6.23162
      C   17   -0.21463      1.99909     4.20121    0.01432     6.21463
      C   18   -0.23519      1.99909     4.22181    0.01429     6.23519
      C   19   -0.20478      1.99900     4.18941    0.01637     6.20478
      H   20    0.22280      0.00000     0.77623    0.00097     0.77720
      H   21    0.22877      0.00000     0.77031    0.00092     0.77123
      H   22    0.22470      0.00000     0.77440    0.00090     0.77530
      H   23    0.23122      0.00000     0.76790    0.00088     0.76878
      H   24    0.23334      0.00000     0.76513    0.00153     0.76666
      H   25    0.24654      0.00000     0.75219    0.00127     0.75346
      H   26    0.24112      0.00000     0.75800    0.00087     0.75888
      H   27    0.23711      0.00000     0.76202    0.00086     0.76289
      H   28    0.23983      0.00000     0.75930    0.00087     0.76017
      H   29    0.23920      0.00000     0.75956    0.00124     0.76080
      H   30    0.23719      0.00000     0.76170    0.00111     0.76281
      H   31    0.24047      0.00000     0.75860    0.00094     0.75953
      H   32    0.23944      0.00000     0.75970    0.00086     0.76056
      H   33    0.24382      0.00000     0.75530    0.00087     0.75618
      H   34    0.26132      0.00000     0.73734    0.00133     0.73868
 =======================================================================
   * Total *   -0.00000     45.98001    91.64741    0.37258   138.00000

 Normal termination of Gaussian 16 at Sun Dec  8 19:22:19 2019.
