 Gaussian 16, Revision A.03,

 -----------------------------------------
 # opt=CalcFc B3LYP/6-31G* scf=xqc scf=xqc
 -----------------------------------------

 -------------------
 Title Card Required
 -------------------
 Symbolic Z-matrix:
 Charge =  0 Multiplicity = 1

 SCF Done:  E(RB3LYP) =  -1036.28310080     A.U. after   14 cycles
 SCF Done:  E(RB3LYP) =  -1036.28586276     A.U. after   14 cycles
 SCF Done:  E(RB3LYP) =  -1036.28731367     A.U. after   14 cycles
 SCF Done:  E(RB3LYP) =  -1036.29562438     A.U. after   13 cycles
 SCF Done:  E(RB3LYP) =  -1036.29655052     A.U. after   14 cycles
 SCF Done:  E(RB3LYP) =  -1036.29726285     A.U. after   14 cycles
 SCF Done:  E(RB3LYP) =  -1036.29778063     A.U. after   12 cycles
 SCF Done:  E(RB3LYP) =  -1036.29795186     A.U. after   14 cycles
 SCF Done:  E(RB3LYP) =  -1036.29807276     A.U. after   11 cycles
 SCF Done:  E(RB3LYP) =  -1036.29816930     A.U. after   12 cycles
 SCF Done:  E(RB3LYP) =  -1036.29823729     A.U. after    8 cycles
 SCF Done:  E(RB3LYP) =  -1036.29823381     A.U. after    9 cycles
 SCF Done:  E(RB3LYP) =  -1036.29822925     A.U. after    8 cycles
 SCF Done:  E(RB3LYP) =  -1036.29823786     A.U. after    8 cycles
 SCF Done:  E(RB3LYP) =  -1036.29823587     A.U. after    8 cycles
 SCF Done:  E(RB3LYP) =  -1036.29821375     A.U. after   11 cycles
 SCF Done:  E(RB3LYP) =  -1036.29823730     A.U. after   11 cycles
 SCF Done:  E(RB3LYP) =  -1036.29823809     A.U. after    8 cycles
 Optimization completed.
    -- Stationary point found.
 Normal termination of Gaussian 16 at Sun Dec  8 18:45:26 2019.

 ----------------------------------------------------------------------
 # freq B3LYP/6-31G* scf=xqc volume NMR pop=NPA density=current Geom=Al
 lCheck Guess=Read
 ----------------------------------------------------------------------

 Structure from the checkpoint file:  "direct_arylation_ligand38_conf212.chk"
 -------------------
 Title Card Required
 -------------------
 Charge =  0 Multiplicity = 1

 SCF Done:  E(RB3LYP) =  -1036.29823809     A.U. after    1 cycles

      1  P    Isotropic =   361.4898   Anisotropy =    39.6839

      2  C    Isotropic =    56.1297   Anisotropy =   179.4352

      3  C    Isotropic =    61.0096   Anisotropy =   164.1074

      4  C    Isotropic =    68.7281   Anisotropy =   164.1332

      5  C    Isotropic =    68.1696   Anisotropy =   167.3532

      6  C    Isotropic =    68.6734   Anisotropy =   163.8967

      7  C    Isotropic =    62.5634   Anisotropy =   174.0374

      8  C    Isotropic =    56.1191   Anisotropy =   179.4238

      9  C    Isotropic =    62.5917   Anisotropy =   174.0590

     10  C    Isotropic =    68.6807   Anisotropy =   163.8941

     11  C    Isotropic =    68.1700   Anisotropy =   167.3290

     12  C    Isotropic =    68.7323   Anisotropy =   164.1100

     13  C    Isotropic =    61.0212   Anisotropy =   164.1265

     14  C    Isotropic =    56.1051   Anisotropy =   179.3948

     15  C    Isotropic =    61.0005   Anisotropy =   164.1148

     16  C    Isotropic =    68.7331   Anisotropy =   164.1386

     17  C    Isotropic =    68.1786   Anisotropy =   167.3633

     18  C    Isotropic =    68.6811   Anisotropy =   163.8938

     19  C    Isotropic =    62.5739   Anisotropy =   173.9916

     20  H    Isotropic =    24.6129   Anisotropy =     9.2482

     21  H    Isotropic =    24.9267   Anisotropy =     4.5879

     22  H    Isotropic =    25.0188   Anisotropy =     3.6431

     23  H    Isotropic =    25.0467   Anisotropy =     6.0845

     24  H    Isotropic =    25.3972   Anisotropy =    12.2232

     25  H    Isotropic =    25.4038   Anisotropy =    12.2354

     26  H    Isotropic =    25.0479   Anisotropy =     6.0888

     27  H    Isotropic =    25.0205   Anisotropy =     3.6422

     28  H    Isotropic =    24.9287   Anisotropy =     4.5865

     29  H    Isotropic =    24.6153   Anisotropy =     9.2529

     30  H    Isotropic =    24.6149   Anisotropy =     9.2539

     31  H    Isotropic =    24.9254   Anisotropy =     4.5913

     32  H    Isotropic =    25.0182   Anisotropy =     3.6454

     33  H    Isotropic =    25.0487   Anisotropy =     6.0866

     34  H    Isotropic =    25.4053   Anisotropy =    12.2270

  Exact polarizability: 224.244   0.021 224.072  -0.002  -0.052 165.004
 Approx polarizability: 331.088   0.056 330.799  -0.008  -0.127 307.951

                      1                      2                      3
                      A                      A                      A
 Frequencies --     23.7882                25.9111                39.4328
 Red. masses --      3.8006                 3.8037                 3.6907
 Frc consts  --      0.0013                 0.0015                 0.0034
 IR Inten    --      0.2807                 0.2818                 0.0025

                      4                      5                      6
                      A                      A                      A
 Frequencies --     53.4113                53.6108                70.8086
 Red. masses --      5.2496                 5.2461                 5.1668
 Frc consts  --      0.0088                 0.0089                 0.0153
 IR Inten    --      0.0877                 0.0873                 0.3116

                      7                      8                      9
                      A                      A                      A
 Frequencies --    181.9075               202.6353               202.9432
 Red. masses --      4.5644                 4.6418                 4.6406
 Frc consts  --      0.0890                 0.1123                 0.1126
 IR Inten    --      0.3525                 1.1312                 1.1314

                     10                     11                     12
                      A                      A                      A
 Frequencies --    245.5891               260.0437               260.1137
 Red. masses --      5.7402                 4.7250                 4.7244
 Frc consts  --      0.2040                 0.1883                 0.1883
 IR Inten    --      0.4826                 0.2293                 0.2271

                     13                     14                     15
                      A                      A                      A
 Frequencies --    408.9298               409.0302               412.4405
 Red. masses --      3.0782                 3.0850                 3.6393
 Frc consts  --      0.3033                 0.3041                 0.3647
 IR Inten    --      1.9601                 1.9852                 0.1685

                     16                     17                     18
                      A                      A                      A
 Frequencies --    417.2202               429.5145               429.6207
 Red. masses --      4.5458                 7.2995                 7.3237
 Frc consts  --      0.4662                 0.7934                 0.7964
 IR Inten    --      0.5517                 7.6791                 7.7309

                     19                     20                     21
                      A                      A                      A
 Frequencies --    509.5765               509.6761               516.5680
 Red. masses --      4.2481                 4.2460                 4.5923
 Frc consts  --      0.6499                 0.6499                 0.7220
 IR Inten    --     26.0874                26.0438                11.9546

                     22                     23                     24
                      A                      A                      A
 Frequencies --    632.7402               632.7777               633.3886
 Red. masses --      6.4275                 6.4275                 6.4370
 Frc consts  --      1.5162                 1.5163                 1.5215
 IR Inten    --      0.1828                 0.1817                 0.0166

                     25                     26                     27
                      A                      A                      A
 Frequencies --    691.9059               705.1762               705.2668
 Red. masses --      6.5788                 5.7165                 5.7840
 Frc consts  --      1.8556                 1.6749                 1.6951
 IR Inten    --      0.7995                 1.1268                 1.1447

                     28                     29                     30
                      A                      A                      A
 Frequencies --    712.3777               712.5257               713.4727
 Red. masses --      2.2015                 2.1940                 2.1387
 Frc consts  --      0.6583                 0.6563                 0.6414
 IR Inten    --     26.3554                26.4485                16.5681

                     31                     32                     33
                      A                      A                      A
 Frequencies --    761.4489               762.8989               762.9566
 Red. masses --      1.6132                 1.6476                 1.6491
 Frc consts  --      0.5511                 0.5650                 0.5656
 IR Inten    --     19.2837                24.8750                24.9213

                     34                     35                     36
                      A                      A                      A
 Frequencies --    866.3219               866.4847               868.9487
 Red. masses --      1.2476                 1.2475                 1.2461
 Frc consts  --      0.5517                 0.5518                 0.5544
 IR Inten    --      0.2216                 0.2130                 0.1281

                     37                     38                     39
                      A                      A                      A
 Frequencies --    933.0006               933.1664               934.4834
 Red. masses --      1.3440                 1.3436                 1.3380
 Frc consts  --      0.6893                 0.6893                 0.6884
 IR Inten    --      1.2630                 1.2707                 0.0288

                     40                     41                     42
                      A                      A                      A
 Frequencies --    975.9458               976.1125               977.8627
 Red. masses --      1.3610                 1.3607                 1.3550
 Frc consts  --      0.7638                 0.7639                 0.7634
 IR Inten    --      0.0160                 0.0147                 0.1348

                     43                     44                     45
                      A                      A                      A
 Frequencies --   1000.4027              1000.4738              1001.2257
 Red. masses --      1.2541                 1.2539                 1.2522
 Frc consts  --      0.7395                 0.7395                 0.7396
 IR Inten    --      0.0792                 0.0812                 0.0001

                     46                     47                     48
                      A                      A                      A
 Frequencies --   1015.3926              1015.4056              1015.7784
 Red. masses --      6.3121                 6.3116                 6.3085
 Frc consts  --      3.8344                 3.8341                 3.8351
 IR Inten    --      4.3626                 4.3634                 0.0489

                     49                     50                     51
                      A                      A                      A
 Frequencies --   1052.7640              1052.7757              1052.9357
 Red. masses --      3.3150                 3.3158                 3.2519
 Frc consts  --      2.1647                 2.1652                 2.1242
 IR Inten    --      2.0823                 2.0795                 0.0402

                     52                     53                     54
                      A                      A                      A
 Frequencies --   1107.9720              1108.1647              1109.5118
 Red. masses --      1.8858                 1.8739                 1.6552
 Frc consts  --      1.3640                 1.3558                 1.2005
 IR Inten    --      4.2792                 4.0596                 2.9420

                     55                     56                     57
                      A                      A                      A
 Frequencies --   1110.8435              1110.9395              1116.0925
 Red. masses --      2.1884                 2.2030                 2.6140
 Frc consts  --      1.5911                 1.6020                 1.9184
 IR Inten    --      9.3717                 9.5420                 1.1716

                     58                     59                     60
                      A                      A                      A
 Frequencies --   1193.5320              1193.9668              1193.9810
 Red. masses --      1.1034                 1.1000                 1.1001
 Frc consts  --      0.9261                 0.9239                 0.9240
 IR Inten    --      0.0010                 0.1252                 0.1277

                     61                     62                     63
                      A                      A                      A
 Frequencies --   1219.4416              1219.5466              1220.8338
 Red. masses --      1.1478                 1.1478                 1.1473
 Frc consts  --      1.0056                 1.0058                 1.0075
 IR Inten    --      6.0137                 6.0926                 0.3667

                     64                     65                     66
                      A                      A                      A
 Frequencies --   1325.0928              1328.7975              1328.9231
 Red. masses --      3.4947                 3.5037                 3.5187
 Frc consts  --      3.6154                 3.6450                 3.6613
 IR Inten    --      2.6289                 2.4420                 2.4388

                     67                     68                     69
                      A                      A                      A
 Frequencies --   1365.3108              1365.4355              1365.6318
 Red. masses --      1.6545                 1.6478                 1.6416
 Frc consts  --      1.8171                 1.8101                 1.8038
 IR Inten    --      0.5159                 0.1480                 2.7407

                     70                     71                     72
                      A                      A                      A
 Frequencies --   1480.5543              1481.0262              1481.0643
 Red. masses --      2.1106                 2.1155                 2.1163
 Frc consts  --      2.7259                 2.7340                 2.7351
 IR Inten    --     16.5868                 6.6675                 6.6283

                     73                     74                     75
                      A                      A                      A
 Frequencies --   1531.0913              1531.6818              1531.6987
 Red. masses --      2.0154                 1.9977                 1.9975
 Frc consts  --      2.7836                 2.7613                 2.7611
 IR Inten    --      1.9893                10.1415                10.1723

                     76                     77                     78
                      A                      A                      A
 Frequencies --   1630.1862              1630.4722              1630.5044
 Red. masses --      5.1012                 5.1108                 5.1120
 Frc consts  --      7.9872                 8.0051                 8.0073
 IR Inten    --      0.3929                 0.0498                 0.0432

                     79                     80                     81
                      A                      A                      A
 Frequencies --   1646.2023              1646.2199              1647.9934
 Red. masses --      5.2694                 5.2693                 5.2824
 Frc consts  --      8.4136                 8.4136                 8.4526
 IR Inten    --      3.5123                 3.5220                 0.3189

                     82                     83                     84
                      A                      A                      A
 Frequencies --   3176.1311              3176.1572              3176.1712
 Red. masses --      1.0854                 1.0853                 1.0853
 Frc consts  --      6.4509                 6.4509                 6.4509
 IR Inten    --      2.2280                 1.9711                 1.8090

                     85                     86                     87
                      A                      A                      A
 Frequencies --   3182.6860              3182.7022              3182.7707
 Red. masses --      1.0875                 1.0875                 1.0876
 Frc consts  --      6.4904                 6.4904                 6.4913
 IR Inten    --      0.7946                 0.7790                 0.1305

                     88                     89                     90
                      A                      A                      A
 Frequencies --   3192.8847              3192.9016              3193.0232
 Red. masses --      1.0916                 1.0917                 1.0917
 Frc consts  --      6.5568                 6.5571                 6.5581
 IR Inten    --     10.2001                10.4973                47.7062

                     91                     92                     93
                      A                      A                      A
 Frequencies --   3203.9374              3204.0509              3204.4178
 Red. masses --      1.0941                 1.0942                 1.0943
 Frc consts  --      6.6173                 6.6184                 6.6206
 IR Inten    --     41.2695                40.5208                 6.5924

                     94                     95                     96
                      A                      A                      A
 Frequencies --   3210.1097              3210.3169              3211.1600
 Red. masses --      1.0957                 1.0955                 1.0955
 Frc consts  --      6.6522                 6.6521                 6.6554
 IR Inten    --     19.9718                18.7728                16.3027

 - Thermochemistry -
 -------------------
 Temperature   298.150 Kelvin.  Pressure   1.00000 Atm.
 Atom     1 has atomic number 15 and mass  30.97376

 Molecular mass:   262.09114 amu.
 Principal axes and moments of inertia in atomic units:
                           1         2         3
     Eigenvalues --  5160.911235164.670468681.11514
           X            0.99996   0.00885   0.00000
           Y           -0.00885   0.99996  -0.00001
           Z           -0.00000   0.00001   1.00000
 This molecule is an asymmetric top.
 Rotational symmetry number  1.
 Warning -- assumption of classical behavior for rotation
           may cause significant error
 Rotational temperatures (Kelvin)      0.01678     0.01677     0.00998
 Rotational constants (GHZ):           0.34969     0.34944     0.20789
 Zero-point vibrational energy     720040.2 (Joules/Mol)
                                  172.09374 (Kcal/Mol)
 Warning -- explicit consideration of  21 degrees of freedom as
           vibrations may cause significant error
 Vibrational temperatures:     34.23    37.28    56.74    76.85    77.13
          (Kelvin)            101.88   261.72   291.55   291.99   353.35
                              374.14   374.25   588.36   588.50   593.41
                              600.29   617.98   618.13   733.17   733.31
                              743.23   910.37   910.43   911.30   995.50
                             1014.59  1014.72  1024.95  1025.17  1026.53
                             1095.56  1097.64  1097.72  1246.44  1246.68
                             1250.22  1342.38  1342.62  1344.51  1404.17
                             1404.41  1406.93  1439.36  1439.46  1440.54
                             1460.92  1460.94  1461.48  1514.69  1514.71
                             1514.94  1594.12  1594.40  1596.34  1598.26
                             1598.39  1605.81  1717.23  1717.85  1717.87
                             1754.50  1754.66  1756.51  1906.51  1911.84
                             1912.02  1964.38  1964.56  1964.84  2130.19
                             2130.87  2130.92  2202.90  2203.75  2203.77
                             2345.47  2345.89  2345.93  2368.52  2368.54
                             2371.09  4569.74  4569.78  4569.80  4579.18
                             4579.20  4579.30  4593.85  4593.87  4594.05
                             4609.75  4609.91  4610.44  4618.63  4618.93
                             4620.14

 Zero-point correction=                           0.274249 (Hartree/Particle)
 Thermal correction to Energy=                    0.290156
 Thermal correction to Enthalpy=                  0.291100
 Thermal correction to Gibbs Free Energy=         0.227933
 Sum of electronic and zero-point Energies=          -1036.023989
 Sum of electronic and thermal Energies=             -1036.008082
 Sum of electronic and thermal Enthalpies=           -1036.007138
 Sum of electronic and thermal Free Energies=        -1036.070305

                     E (Thermal)             CV                S
                      KCal/Mol        Cal/Mol-Kelvin    Cal/Mol-Kelvin
 Total                  182.076             62.526            132.947
 Electronic               0.000              0.000              0.000
 Translational            0.889              2.981             42.590
 Rotational               0.889              2.981             33.803
 Vibrational            180.298             56.565             56.554
 Vibration     1          0.593              1.985              6.290
 Vibration     2          0.593              1.985              6.120
 Vibration     3          0.594              1.981              5.287
 Vibration     4          0.596              1.976              4.687
 Vibration     5          0.596              1.976              4.680
 Vibration     6          0.598              1.968              4.131
 Vibration     7          0.630              1.864              2.309
 Vibration     8          0.639              1.836              2.109
 Vibration     9          0.639              1.836              2.106
 Vibration    10          0.660              1.770              1.762
 Vibration    11          0.668              1.746              1.661
 Vibration    12          0.668              1.746              1.661
 Vibration    13          0.773              1.451              0.930
 Vibration    14          0.773              1.451              0.930
 Vibration    15          0.776              1.443              0.918
 Vibration    16          0.780              1.433              0.901
 Vibration    17          0.791              1.406              0.860
 Vibration    18          0.791              1.406              0.860
 Vibration    19          0.865              1.229              0.635
 Vibration    20          0.865              1.229              0.634
 Vibration    21          0.872              1.213              0.618

                           ! Non-Optimized Parameters !
 Normal termination of Gaussian 16 at Sun Dec  8 19:01:39 2019.
 Gaussian 16:  ES64L-G16RevA.03 25-Dec-2016

 ----------------------------------------------------------------------
 # TD(NStates=10, Root=1) B3LYP/6-31G* scf=xqc volume pop=NPA density=c
 urrent Geom=AllCheck Guess=Read
 ----------------------------------------------------------------------

 Structure from the checkpoint file:  "direct_arylation_ligand38_conf213.chk"
 -------------------
 Title Card Required
 -------------------
 Charge =  0 Multiplicity = 1

                         Standard orientation:
 ---------------------------------------------------------------------
 Center     Atomic      Atomic             Coordinates (Angstroms)
 Number     Number       Type             X           Y           Z
 ---------------------------------------------------------------------
      1         15           0       -0.000033    0.000801   -1.206298
      2          6           0        1.472835    0.789486   -0.402594
      3          6           0        2.714809    0.604965   -1.033519
      4          6           0        3.876347    1.169506   -0.506967
      5          6           0        3.812655    1.945877    0.652080
      6          6           0        2.583250    2.149170    1.280823
      7          6           0        1.422068    1.574120    0.759686
      8          6           0       -0.052680   -1.669281   -0.402746
      9          6           0        0.655129   -2.018753    0.757413
     10          6           0        0.573387   -3.312184    1.277957
     11          6           0       -0.219606   -4.274458    0.650884
     12          6           0       -0.926991   -3.940258   -0.505904
     13          6           0       -0.835852   -2.651827   -1.031970
     14          6           0       -1.419787    0.881099   -0.402107
     15          6           0       -1.879973    2.050269   -1.031330
     16          6           0       -2.950766    2.772582   -0.505251
     17          6           0       -3.593347    2.326684    0.651685
     18          6           0       -3.155483    1.159214    1.278875
     19          6           0       -2.075830    0.442401    0.758201
     20          1           0        2.769398    0.017822   -1.947518
     21          1           0        4.828506    1.012469   -1.007220
     22          1           0        4.714921    2.395189    1.058688
     23          1           0        2.525665    2.756511    2.180701
     24          1           0        0.471650    1.740417    1.257862
     25          1           0        1.276014   -1.279487    1.254431
     26          1           0        1.130522   -3.566753    2.176152
     27          1           0       -0.280992   -5.280729    1.057010
     28          1           0       -1.540953   -4.685654   -1.004861
     29          1           0       -1.374040   -2.404792   -1.944356
     30          1           0       -1.397235    2.393159   -1.943750
     31          1           0       -3.290057    3.676708   -1.004210
     32          1           0       -4.434466    2.882393    1.057884
     33          1           0       -3.654136    0.803750    2.177178
     34          1           0       -1.745296   -0.464692    1.255189
 ---------------------------------------------------------------------

 SCF Done:  E(RB3LYP) =  -1036.29823809     A.U. after    1 cycles

 Excitation energies and oscillator strengths:

 Excited State   1:      Singlet-A      4.5096 eV  274.93 nm  f=0.1278  <S**2>=0.000
      69 -> 70         0.69558
 This state for optimization and/or second-order correction.
 Total Energy, E(TD-HF/TD-DFT) =  -1036.13251267
 Copying the excited state density for this state as the 1-particle RhoCI density.

 Excited State   2:      Singlet-A      4.5105 eV  274.88 nm  f=0.1282  <S**2>=0.000
      69 -> 71         0.69556

 Excited State   3:      Singlet-A      4.7564 eV  260.67 nm  f=0.0022  <S**2>=0.000
      67 -> 70         0.12057
      68 -> 71         0.12085
      69 -> 72         0.67472

 Excited State   4:      Singlet-A      5.0573 eV  245.16 nm  f=0.0002  <S**2>=0.000
      66 -> 70        -0.16620
      67 -> 70         0.10795
      68 -> 71        -0.10828
      69 -> 74         0.62905

 Excited State   5:      Singlet-A      5.0580 eV  245.13 nm  f=0.0002  <S**2>=0.000
      66 -> 71        -0.16639
      67 -> 71        -0.10867
      68 -> 70        -0.10865
      69 -> 75         0.62871

 Excited State   6:      Singlet-A      5.1505 eV  240.72 nm  f=0.0085  <S**2>=0.000
      69 -> 73         0.67915

 Excited State   7:      Singlet-A      5.4276 eV  228.43 nm  f=0.0147  <S**2>=0.000
      63 -> 72        -0.16609
      64 -> 74         0.15380
      65 -> 75        -0.15289
      67 -> 70         0.39619
      67 -> 71         0.14495
      68 -> 70        -0.14623
      68 -> 71         0.39378
      69 -> 72        -0.16500

 Excited State   8:      Singlet-A      5.5141 eV  224.85 nm  f=0.0004  <S**2>=0.000
      63 -> 74         0.14200
      64 -> 71         0.11487
      64 -> 72        -0.23614
      65 -> 70        -0.11614
      65 -> 72        -0.15582
      66 -> 70         0.22587
      67 -> 70        -0.24567
      67 -> 71         0.11273
      68 -> 70         0.11192
      68 -> 71         0.25026
      68 -> 72         0.14193
      69 -> 74         0.28351

 Excited State   9:      Singlet-A      5.5146 eV  224.83 nm  f=0.0004  <S**2>=0.000
      63 -> 75         0.14218
      64 -> 70         0.11459
      64 -> 72        -0.15602
      65 -> 71         0.11440
      65 -> 72         0.23598
      66 -> 71         0.22504
      67 -> 70         0.11271
      67 -> 71         0.24766
      67 -> 72        -0.14281
      68 -> 70         0.24956
      68 -> 71        -0.11187
      69 -> 75         0.28414

 Excited State  10:      Singlet-A      5.6182 eV  220.68 nm  f=0.0009  <S**2>=0.000
      64 -> 70         0.10423
      65 -> 71        -0.10615
      67 -> 70         0.13801
      67 -> 71        -0.46079
      68 -> 70         0.46511
      68 -> 71         0.13794

 The electronic state is 1-A.
 Alpha  occ. eigenvalues --  -77.08112 -10.19447 -10.19447 -10.19446 -10.19148
 Alpha  occ. eigenvalues --  -10.19146 -10.19145 -10.19118 -10.19117 -10.19116
 Alpha  occ. eigenvalues --  -10.19032 -10.19030 -10.19029 -10.19008 -10.19007
 Alpha  occ. eigenvalues --  -10.19006 -10.18963 -10.18961 -10.18959  -6.54843
 Alpha  occ. eigenvalues --   -4.71102  -4.71102  -4.70600  -0.85560  -0.84846
 Alpha  occ. eigenvalues --   -0.84845  -0.76670  -0.74367  -0.74366  -0.74329
 Alpha  occ. eigenvalues --   -0.73822  -0.73820  -0.64437  -0.60336  -0.60308
 Alpha  occ. eigenvalues --   -0.60307  -0.59207  -0.59206  -0.55448  -0.51436
 Alpha  occ. eigenvalues --   -0.51435  -0.49295  -0.45441  -0.45440  -0.44774
 Alpha  occ. eigenvalues --   -0.44345  -0.44345  -0.44067  -0.41946  -0.41869
 Alpha  occ. eigenvalues --   -0.41868  -0.40378  -0.40377  -0.36845  -0.36351
 Alpha  occ. eigenvalues --   -0.36350  -0.35898  -0.34252  -0.34251  -0.34224
 Alpha  occ. eigenvalues --   -0.31885  -0.31883  -0.26778  -0.25448  -0.25446
 Alpha  occ. eigenvalues --   -0.25243  -0.24704  -0.24703  -0.21142
 Alpha virt. eigenvalues --   -0.01880  -0.01878  -0.00831   0.00173   0.00427
 Alpha virt. eigenvalues --    0.00431   0.06882   0.06888   0.09493   0.11038
 Alpha virt. eigenvalues --    0.11039   0.13904   0.14529   0.14529   0.15166

 Mulliken charges:
               1
     1  P    0.450553
     2  C   -0.133209
     3  C   -0.171732
     4  C   -0.123085
     5  C   -0.170207
     6  C   -0.118880
     7  C   -0.175357
     8  C   -0.100492
     9  C   -0.150413
    10  C   -0.123036
    11  C   -0.133148
    12  C   -0.116563
    13  C   -0.168145
    14  C   -0.087496
    15  C   -0.152383
    16  C   -0.123415
    17  C   -0.132816
    18  C   -0.116172
    19  C   -0.159737
    20  H    0.112292
    21  H    0.112004
    22  H    0.105795
    23  H    0.115449
    24  H    0.123713
    25  H    0.173384
    26  H    0.140453
    27  H    0.137113
    28  H    0.135330
    29  H    0.137548
    30  H    0.144283
    31  H    0.137209
    32  H    0.137638
    33  H    0.139775
    34  H    0.153746
 Sum of Mulliken charges =  -0.00000

 Dipole moment (field-independent basis, Debye):
    X=             -3.3433    Y=             -1.7211    Z=             -0.1962  Tot=              3.7654
 Quadrupole moment (field-independent basis, Debye-Ang):
   XX=           -117.5586   YY=           -109.4985   ZZ=           -110.6737
   XY=             -5.7476   XZ=             -0.6087   YZ=             -1.2079

 Summary of Natural Population Analysis:

                                       Natural Population
                Natural  -----------------------------------------------
    Atom  No    Charge         Core      Valence    Rydberg      Total
 -----------------------------------------------------------------------
      P    1    1.24226      9.99750     3.70999    0.05025    13.75774
      C    2   -0.48839      1.99886     4.46409    0.02544     6.48839
      C    3   -0.23425      1.99901     4.21887    0.01637     6.23425
      C    4   -0.24535      1.99910     4.23119    0.01506     6.24535
      C    5   -0.30079      1.99910     4.28491    0.01679     6.30079
      C    6   -0.23038      1.99909     4.21667    0.01462     6.23038
      C    7   -0.26342      1.99899     4.24633    0.01810     6.26342
      C    8   -0.41420      1.99890     4.38930    0.02600     6.41420
      C    9   -0.20747      1.99900     4.19196    0.01651     6.20747
      C   10   -0.23598      1.99909     4.22254    0.01435     6.23598
      C   11   -0.22213      1.99909     4.20847    0.01456     6.22213
      C   12   -0.23159      1.99910     4.21826    0.01424     6.23159
      C   13   -0.22162      1.99902     4.20694    0.01566     6.22162
      C   14   -0.39425      1.99889     4.37130    0.02406     6.39425
      C   15   -0.19845      1.99901     4.18422    0.01521     6.19845
      C   16   -0.24364      1.99910     4.22987    0.01467     6.24364
      C   17   -0.22167      1.99909     4.20809    0.01448     6.22167
      C   18   -0.22373      1.99909     4.21060    0.01404     6.22373
      C   19   -0.23183      1.99899     4.21607    0.01677     6.23183
      H   20    0.22319      0.00000     0.77582    0.00099     0.77681
      H   21    0.22886      0.00000     0.77023    0.00091     0.77114
      H   22    0.22465      0.00000     0.77446    0.00089     0.77535
      H   23    0.23110      0.00000     0.76802    0.00088     0.76890
      H   24    0.23219      0.00000     0.76631    0.00150     0.76781
      H   25    0.25975      0.00000     0.73887    0.00138     0.74025
      H   26    0.24276      0.00000     0.75636    0.00088     0.75724
      H   27    0.23814      0.00000     0.76099    0.00087     0.76186
      H   28    0.23932      0.00000     0.75974    0.00094     0.76068
      H   29    0.23551      0.00000     0.76340    0.00109     0.76449
      H   30    0.24048      0.00000     0.75827    0.00125     0.75952
      H   31    0.24090      0.00000     0.75824    0.00087     0.75910
      H   32    0.23847      0.00000     0.76068    0.00085     0.76153
      H   33    0.24230      0.00000     0.75683    0.00087     0.75770
      H   34    0.24925      0.00000     0.74950    0.00125     0.75075
 =======================================================================
   * Total *   -0.00000     45.98001    91.64739    0.37261   138.00000

 Normal termination of Gaussian 16 at Sun Dec  8 19:17:13 2019.
