 Gaussian 16, Revision A.03,

 -----------------------------------------
 # opt=CalcFc B3LYP/6-31G* scf=xqc scf=xqc
 -----------------------------------------

 -------------------
 Title Card Required
 -------------------
 Symbolic Z-matrix:
 Charge =  0 Multiplicity = 1

 SCF Done:  E(RB3LYP) =  -1036.27955006     A.U. after   14 cycles
 SCF Done:  E(RB3LYP) =  -1036.28540807     A.U. after   14 cycles
 SCF Done:  E(RB3LYP) =  -1036.29300152     A.U. after   15 cycles
 SCF Done:  E(RB3LYP) =  -1036.28133305     A.U. after   15 cycles
 SCF Done:  E(RB3LYP) =  -1036.29705744     A.U. after   13 cycles
 SCF Done:  E(RB3LYP) =  -1036.29711171     A.U. after   14 cycles
 SCF Done:  E(RB3LYP) =  -1036.29255383     A.U. after   13 cycles
 SCF Done:  E(RB3LYP) =  -1036.29747361     A.U. after   13 cycles
 SCF Done:  E(RB3LYP) =  -1036.29640177     A.U. after   14 cycles
 SCF Done:  E(RB3LYP) =  -1036.29790375     A.U. after   12 cycles
 SCF Done:  E(RB3LYP) =  -1036.29820277     A.U. after   11 cycles
 SCF Done:  E(RB3LYP) =  -1036.29820942     A.U. after   10 cycles
 SCF Done:  E(RB3LYP) =  -1036.29821958     A.U. after   10 cycles
 SCF Done:  E(RB3LYP) =  -1036.29821574     A.U. after   10 cycles
 SCF Done:  E(RB3LYP) =  -1036.29821395     A.U. after    8 cycles
 SCF Done:  E(RB3LYP) =  -1036.29821916     A.U. after   10 cycles
 SCF Done:  E(RB3LYP) =  -1036.29821965     A.U. after    8 cycles
 SCF Done:  E(RB3LYP) =  -1036.29821435     A.U. after   10 cycles
 Optimization completed.
    -- Stationary point found.
 Normal termination of Gaussian 16 at Sun Dec  8 18:18:04 2019.

 ----------------------------------------------------------------------
 # freq B3LYP/6-31G* scf=xqc volume NMR pop=NPA density=current Geom=Al
 lCheck Guess=Read
 ----------------------------------------------------------------------

 Structure from the checkpoint file:  "direct_arylation_ligand38_conf192.chk"
 -------------------
 Title Card Required
 -------------------
 Charge =  0 Multiplicity = 1

 SCF Done:  E(RB3LYP) =  -1036.29821435     A.U. after    1 cycles

      1  P    Isotropic =   361.4912   Anisotropy =    40.3069

      2  C    Isotropic =    56.4789   Anisotropy =   179.2660

      3  C    Isotropic =    61.0333   Anisotropy =   164.2689

      4  C    Isotropic =    68.7478   Anisotropy =   164.1133

      5  C    Isotropic =    68.1746   Anisotropy =   167.2911

      6  C    Isotropic =    68.6664   Anisotropy =   163.9471

      7  C    Isotropic =    62.6699   Anisotropy =   174.3239

      8  C    Isotropic =    55.6934   Anisotropy =   179.4511

      9  C    Isotropic =    62.9105   Anisotropy =   173.5003

     10  C    Isotropic =    68.7052   Anisotropy =   163.7831

     11  C    Isotropic =    68.3023   Anisotropy =   167.1045

     12  C    Isotropic =    68.7450   Anisotropy =   164.0986

     13  C    Isotropic =    61.2312   Anisotropy =   164.3112

     14  C    Isotropic =    56.2762   Anisotropy =   179.4604

     15  C    Isotropic =    60.6572   Anisotropy =   163.7160

     16  C    Isotropic =    68.6712   Anisotropy =   164.1407

     17  C    Isotropic =    67.9880   Anisotropy =   167.6150

     18  C    Isotropic =    68.6769   Anisotropy =   163.9209

     19  C    Isotropic =    62.2803   Anisotropy =   174.2274

     20  H    Isotropic =    24.6143   Anisotropy =     9.2540

     21  H    Isotropic =    24.9232   Anisotropy =     4.5832

     22  H    Isotropic =    25.0196   Anisotropy =     3.6427

     23  H    Isotropic =    25.0431   Anisotropy =     6.0856

     24  H    Isotropic =    25.3754   Anisotropy =    12.2522

     25  H    Isotropic =    25.4504   Anisotropy =    12.3019

     26  H    Isotropic =    25.0611   Anisotropy =     6.0946

     27  H    Isotropic =    25.0351   Anisotropy =     3.6283

     28  H    Isotropic =    24.9389   Anisotropy =     4.6158

     29  H    Isotropic =    24.6394   Anisotropy =     9.3495

     30  H    Isotropic =    24.5795   Anisotropy =     9.1599

     31  H    Isotropic =    24.9235   Anisotropy =     4.5729

     32  H    Isotropic =    25.0084   Anisotropy =     3.6538

     33  H    Isotropic =    25.0332   Anisotropy =     6.0580

     34  H    Isotropic =    25.3394   Anisotropy =    12.0155

  Exact polarizability: 225.809  -0.376 222.333  -1.342   0.109 165.249
 Approx polarizability: 334.215  -0.828 327.097  -3.155   0.277 308.468

                      1                      2                      3
                      A                      A                      A
 Frequencies --     21.1040                22.8040                37.3074
 Red. masses --      3.7837                 3.8084                 3.6989
 Frc consts  --      0.0010                 0.0012                 0.0030
 IR Inten    --      0.2858                 0.2760                 0.0019

                      4                      5                      6
                      A                      A                      A
 Frequencies --     52.8887                53.5929                70.4711
 Red. masses --      5.2389                 5.2502                 5.1656
 Frc consts  --      0.0086                 0.0089                 0.0151
 IR Inten    --      0.0742                 0.0953                 0.3054

                      7                      8                      9
                      A                      A                      A
 Frequencies --    181.3053               201.2445               203.4623
 Red. masses --      4.5622                 4.6402                 4.6370
 Frc consts  --      0.0884                 0.1107                 0.1131
 IR Inten    --      0.3571                 1.1053                 1.1564

                     10                     11                     12
                      A                      A                      A
 Frequencies --    245.4584               258.3661               261.1990
 Red. masses --      5.7431                 4.7116                 4.7293
 Frc consts  --      0.2039                 0.1853                 0.1901
 IR Inten    --      0.4782                 0.2202                 0.2316

                     13                     14                     15
                      A                      A                      A
 Frequencies --    408.5010               409.0235               412.4496
 Red. masses --      3.0960                 3.0738                 3.5419
 Frc consts  --      0.3044                 0.3030                 0.3550
 IR Inten    --      1.9855                 1.9038                 0.1797

                     16                     17                     18
                      A                      A                      A
 Frequencies --    416.9393               428.4189               430.4683
 Red. masses --      4.6657                 7.2981                 7.3258
 Frc consts  --      0.4779                 0.7892                 0.7998
 IR Inten    --      0.5712                 7.4656                 8.0589

                     19                     20                     21
                      A                      A                      A
 Frequencies --    508.5268               510.3640               516.3164
 Red. masses --      4.2604                 4.2434                 4.5773
 Frc consts  --      0.6491                 0.6512                 0.7189
 IR Inten    --     26.0093                26.2791                12.1450

                     22                     23                     24
                      A                      A                      A
 Frequencies --    632.6600               632.7769               633.3639
 Red. masses --      6.4280                 6.4267                 6.4368
 Frc consts  --      1.5159                 1.5161                 1.5213
 IR Inten    --      0.1836                 0.1772                 0.0158

                     25                     26                     27
                      A                      A                      A
 Frequencies --    691.7732               704.8780               705.3787
 Red. masses --      6.5802                 5.7803                 5.5946
 Frc consts  --      1.8553                 1.6921                 1.6401
 IR Inten    --      0.7744                 1.1167                 1.3716

                     28                     29                     30
                      A                      A                      A
 Frequencies --    712.1797               712.2848               713.2177
 Red. masses --      2.2047                 2.1957                 2.1325
 Frc consts  --      0.6588                 0.6564                 0.6391
 IR Inten    --     27.3395                25.6094                16.5455

                     31                     32                     33
                      A                      A                      A
 Frequencies --    761.1965               762.6048               763.2213
 Red. masses --      1.6162                 1.6462                 1.6567
 Frc consts  --      0.5517                 0.5641                 0.5686
 IR Inten    --     19.8833                24.2957                24.5477

                     34                     35                     36
                      A                      A                      A
 Frequencies --    865.7776               866.3238               868.6506
 Red. masses --      1.2479                 1.2477                 1.2462
 Frc consts  --      0.5511                 0.5517                 0.5540
 IR Inten    --      0.2264                 0.2379                 0.1291

                     37                     38                     39
                      A                      A                      A
 Frequencies --    932.1095               933.1974               934.4180
 Red. masses --      1.3436                 1.3446                 1.3391
 Frc consts  --      0.6878                 0.6899                 0.6889
 IR Inten    --      1.1360                 1.2240                 0.1740

                     40                     41                     42
                      A                      A                      A
 Frequencies --    975.3853               975.9680               977.6310
 Red. masses --      1.3609                 1.3615                 1.3561
 Frc consts  --      0.7628                 0.7641                 0.7636
 IR Inten    --      0.0279                 0.0169                 0.1308

                     43                     44                     45
                      A                      A                      A
 Frequencies --   1000.0378              1000.4905              1001.1428
 Red. masses --      1.2537                 1.2547                 1.2533
 Frc consts  --      0.7387                 0.7400                 0.7401
 IR Inten    --      0.0666                 0.0853                 0.0034

                     46                     47                     48
                      A                      A                      A
 Frequencies --   1015.3174              1015.3873              1015.7748
 Red. masses --      6.3120                 6.3111                 6.3027
 Frc consts  --      3.8337                 3.8337                 3.8315
 IR Inten    --      4.1655                 4.4021                 0.2246

                     49                     50                     51
                      A                      A                      A
 Frequencies --   1052.6292              1052.7754              1052.9134
 Red. masses --      3.2975                 3.3153                 3.2579
 Frc consts  --      2.1527                 2.1650                 2.1280
 IR Inten    --      1.8553                 2.1644                 0.2176

                     52                     53                     54
                      A                      A                      A
 Frequencies --   1107.2543              1107.8922              1109.4375
 Red. masses --      1.8654                 1.9457                 1.6595
 Frc consts  --      1.3475                 1.4071                 1.2035
 IR Inten    --      3.9539                 5.3000                 2.9639

                     55                     56                     57
                      A                      A                      A
 Frequencies --   1110.7585              1110.8669              1115.9230
 Red. masses --      2.1078                 2.2087                 2.6103
 Frc consts  --      1.5322                 1.6059                 1.9152
 IR Inten    --      8.0249                10.2537                 1.1343

                     58                     59                     60
                      A                      A                      A
 Frequencies --   1193.4697              1193.8703              1193.9042
 Red. masses --      1.1033                 1.1001                 1.0999
 Frc consts  --      0.9259                 0.9238                 0.9237
 IR Inten    --      0.0014                 0.1276                 0.1336

                     61                     62                     63
                      A                      A                      A
 Frequencies --   1218.6910              1219.4274              1220.7613
 Red. masses --      1.1470                 1.1478                 1.1472
 Frc consts  --      1.0037                 1.0056                 1.0073
 IR Inten    --      5.8908                 5.9476                 0.5259

                     64                     65                     66
                      A                      A                      A
 Frequencies --   1324.9657              1328.1787              1329.0699
 Red. masses --      3.4703                 3.4342                 3.4832
 Frc consts  --      3.5894                 3.5693                 3.6251
 IR Inten    --      2.6519                 2.3197                 2.6044

                     67                     68                     69
                      A                      A                      A
 Frequencies --   1364.4185              1365.2836              1365.6080
 Red. masses --      1.6767                 1.6538                 1.6483
 Frc consts  --      1.8391                 1.8162                 1.8110
 IR Inten    --      0.4622                 0.9712                 1.9495

                     70                     71                     72
                      A                      A                      A
 Frequencies --   1480.4406              1480.7173              1481.1671
 Red. masses --      2.1103                 2.1132                 2.1171
 Frc consts  --      2.7251                 2.7299                 2.7365
 IR Inten    --     15.6460                 6.9505                 7.2447

                     73                     74                     75
                      A                      A                      A
 Frequencies --   1530.9526              1531.3731              1531.7017
 Red. masses --      2.0156                 2.0026                 1.9977
 Frc consts  --      2.7834                 2.7669                 2.7613
 IR Inten    --      2.9561                 8.8488                10.4073

                     76                     77                     78
                      A                      A                      A
 Frequencies --   1630.1469              1630.3203              1630.5921
 Red. masses --      5.1000                 5.1095                 5.1214
 Frc consts  --      7.9850                 8.0016                 8.0228
 IR Inten    --      0.3647                 0.0484                 0.0991

                     79                     80                     81
                      A                      A                      A
 Frequencies --   1646.0757              1646.2484              1647.9686
 Red. masses --      5.2784                 5.2698                 5.2840
 Frc consts  --      8.4266                 8.4146                 8.4550
 IR Inten    --      3.1424                 3.8079                 0.3691

                     82                     83                     84
                      A                      A                      A
 Frequencies --   3175.7478              3176.1035              3176.5475
 Red. masses --      1.0854                 1.0854                 1.0852
 Frc consts  --      6.4497                 6.4508                 6.4518
 IR Inten    --      2.1676                 1.9961                 1.7486

                     85                     86                     87
                      A                      A                      A
 Frequencies --   3182.4875              3182.6992              3183.0418
 Red. masses --      1.0875                 1.0875                 1.0876
 Frc consts  --      6.4893                 6.4906                 6.4925
 IR Inten    --      0.5814                 0.5798                 0.5745

                     88                     89                     90
                      A                      A                      A
 Frequencies --   3192.7191              3192.9140              3193.1228
 Red. masses --      1.0917                 1.0917                 1.0917
 Frc consts  --      6.5565                 6.5572                 6.5584
 IR Inten    --     17.3051                18.8166                32.4851

                     91                     92                     93
                      A                      A                      A
 Frequencies --   3203.9919              3204.0152              3204.3983
 Red. masses --      1.0942                 1.0943                 1.0944
 Frc consts  --      6.6180                 6.6189                 6.6207
 IR Inten    --     42.8814                42.6654                 4.0184

                     94                     95                     96
                      A                      A                      A
 Frequencies --   3210.2308              3210.3985              3211.2230
 Red. masses --      1.0956                 1.0954                 1.0954
 Frc consts  --      6.6523                 6.6518                 6.6555
 IR Inten    --     18.6910                18.5836                16.4836

 - Thermochemistry -
 -------------------
 Temperature   298.150 Kelvin.  Pressure   1.00000 Atm.
 Atom     1 has atomic number 15 and mass  30.97376

 Molecular mass:   262.09114 amu.
 Principal axes and moments of inertia in atomic units:
                           1         2         3
     Eigenvalues --  5146.921445186.880178686.41277
           X            0.99997  -0.00726  -0.00034
           Y            0.00726   0.99997  -0.00002
           Z            0.00034   0.00001   1.00000
 This molecule is an asymmetric top.
 Rotational symmetry number  1.
 Warning -- assumption of classical behavior for rotation
           may cause significant error
 Rotational temperatures (Kelvin)      0.01683     0.01670     0.00997
 Rotational constants (GHZ):           0.35064     0.34794     0.20777
 Zero-point vibrational energy     719905.5 (Joules/Mol)
                                  172.06155 (Kcal/Mol)
 Warning -- explicit consideration of  21 degrees of freedom as
           vibrations may cause significant error
 Vibrational temperatures:     30.36    32.81    53.68    76.10    77.11
          (Kelvin)            101.39   260.86   289.55   292.74   353.16
                              371.73   375.81   587.74   588.49   593.42
                              599.88   616.40   619.35   731.66   734.30
                              742.86   910.26   910.42   911.27   995.31
                             1014.16  1014.88  1024.67  1024.82  1026.16
                             1095.19  1097.22  1098.11  1245.66  1246.45
                             1249.79  1341.10  1342.66  1344.42  1403.36
                             1404.20  1406.59  1438.83  1439.48  1440.42
                             1460.82  1460.92  1461.47  1514.50  1514.71
                             1514.91  1593.09  1594.01  1596.23  1598.13
                             1598.29  1605.56  1717.14  1717.71  1717.76
                             1753.42  1754.48  1756.40  1906.33  1910.95
                             1912.24  1963.09  1964.34  1964.81  2130.02
                             2130.42  2131.07  2202.70  2203.30  2203.78
                             2345.42  2345.67  2346.06  2368.34  2368.58
                             2371.06  4569.19  4569.70  4570.34  4578.89
                             4579.19  4579.69  4593.61  4593.89  4594.19
                             4609.83  4609.86  4610.41  4618.81  4619.05
                             4620.23

 Zero-point correction=                           0.274198 (Hartree/Particle)
 Thermal correction to Energy=                    0.290130
 Thermal correction to Enthalpy=                  0.291074
 Thermal correction to Gibbs Free Energy=         0.227593
 Sum of electronic and zero-point Energies=          -1036.024017
 Sum of electronic and thermal Energies=             -1036.008084
 Sum of electronic and thermal Enthalpies=           -1036.007140
 Sum of electronic and thermal Free Energies=        -1036.070621

                     E (Thermal)             CV                S
                      KCal/Mol        Cal/Mol-Kelvin    Cal/Mol-Kelvin
 Total                  182.059             62.545            133.608
 Electronic               0.000              0.000              0.000
 Translational            0.889              2.981             42.590
 Rotational               0.889              2.981             33.805
 Vibrational            180.282             56.583             57.213
 Vibration     1          0.593              1.985              6.528
 Vibration     2          0.593              1.985              6.374
 Vibration     3          0.594              1.982              5.397
 Vibration     4          0.596              1.976              4.706
 Vibration     5          0.596              1.976              4.680
 Vibration     6          0.598              1.968              4.140
 Vibration     7          0.630              1.865              2.315
 Vibration     8          0.638              1.838              2.122
 Vibration     9          0.639              1.835              2.102
 Vibration    10          0.660              1.770              1.763
 Vibration    11          0.667              1.749              1.673
 Vibration    12          0.669              1.744              1.654
 Vibration    13          0.773              1.452              0.932
 Vibration    14          0.773              1.451              0.930
 Vibration    15          0.776              1.443              0.918
 Vibration    16          0.780              1.433              0.902
 Vibration    17          0.790              1.408              0.864
 Vibration    18          0.792              1.404              0.857
 Vibration    19          0.864              1.231              0.637
 Vibration    20          0.865              1.227              0.633
 Vibration    21          0.871              1.214              0.619

                           ! Non-Optimized Parameters !
 Normal termination of Gaussian 16 at Sun Dec  8 18:35:21 2019.
 Gaussian 16:  ES64L-G16RevA.03 25-Dec-2016

 ----------------------------------------------------------------------
 # TD(NStates=10, Root=1) B3LYP/6-31G* scf=xqc volume pop=NPA density=c
 urrent Geom=AllCheck Guess=Read
 ----------------------------------------------------------------------

 Structure from the checkpoint file:  "direct_arylation_ligand38_conf193.chk"
 -------------------
 Title Card Required
 -------------------
 Charge =  0 Multiplicity = 1

                         Standard orientation:
 ---------------------------------------------------------------------
 Center     Atomic      Atomic             Coordinates (Angstroms)
 Number     Number       Type             X           Y           Z
 ---------------------------------------------------------------------
      1         15           0        0.004004   -0.002983   -1.203490
      2          6           0       -1.274041   -1.082561   -0.404770
      3          6           0       -2.527024   -1.155366   -1.036998
      4          6           0       -3.547122   -1.950739   -0.515634
      5          6           0       -3.324991   -2.704024    0.639142
      6          6           0       -2.080461   -2.652408    1.268775
      7          6           0       -1.062995   -1.846476    0.753106
      8          6           0       -0.298804    1.641372   -0.401527
      9          6           0       -1.101943    1.841675    0.731379
     10          6           0       -1.294529    3.124625    1.249102
     11          6           0       -0.684719    4.225816    0.646583
     12          6           0        0.114365    4.040462   -0.483781
     13          6           0        0.296679    2.760989   -1.007453
     14          6           0        1.576571   -0.562464   -0.396246
     15          6           0        2.306022   -1.564848   -1.057437
     16          6           0        3.504532   -2.045021   -0.529378
     17          6           0        4.003864   -1.516809    0.662785
     18          6           0        3.296196   -0.510944    1.323204
     19          6           0        2.090970   -0.038290    0.799745
     20          1           0       -2.701419   -0.587062   -1.947908
     21          1           0       -4.510897   -1.990852   -1.016684
     22          1           0       -4.115122   -3.332492    1.041647
     23          1           0       -1.898941   -3.240050    2.165258
     24          1           0       -0.099205   -1.815735    1.252272
     25          1           0       -1.583758    0.993892    1.208903
     26          1           0       -1.922208    3.261883    2.126113
     27          1           0       -0.836447    5.223317    1.050621
     28          1           0        0.586845    4.893427   -0.964158
     29          1           0        0.904638    2.627620   -1.899529
     30          1           0        1.932738   -1.967339   -1.996399
     31          1           0        4.053111   -2.823181   -1.053808
     32          1           0        4.942428   -1.882313    1.071208
     33          1           0        3.681873   -0.091943    2.249288
     34          1           0        1.550882    0.745644    1.321949
 ---------------------------------------------------------------------

 SCF Done:  E(RB3LYP) =  -1036.29821435     A.U. after    2 cycles

 Excitation energies and oscillator strengths:

 Excited State   1:      Singlet-A      4.4890 eV  276.19 nm  f=0.1198  <S**2>=0.000
      69 -> 70         0.69731
 This state for optimization and/or second-order correction.
 Total Energy, E(TD-HF/TD-DFT) =  -1036.13324571
 Copying the excited state density for this state as the 1-particle RhoCI density.

 Excited State   2:      Singlet-A      4.5267 eV  273.90 nm  f=0.1344  <S**2>=0.000
      69 -> 71         0.69668

 Excited State   3:      Singlet-A      4.7595 eV  260.50 nm  f=0.0024  <S**2>=0.000
      67 -> 70        -0.12097
      68 -> 71         0.12893
      69 -> 72         0.67450

 Excited State   4:      Singlet-A      5.0484 eV  245.59 nm  f=0.0003  <S**2>=0.000
      66 -> 70         0.15923
      69 -> 74         0.63166

 Excited State   5:      Singlet-A      5.0643 eV  244.82 nm  f=0.0002  <S**2>=0.000
      66 -> 71         0.16937
      67 -> 70         0.10006
      67 -> 71        -0.10094
      68 -> 70         0.10255
      68 -> 73         0.10585
      69 -> 75         0.61638

 Excited State   6:      Singlet-A      5.1511 eV  240.69 nm  f=0.0092  <S**2>=0.000
      69 -> 73         0.66927
      69 -> 75         0.10125

 Excited State   7:      Singlet-A      5.4231 eV  228.62 nm  f=0.0142  <S**2>=0.000
      63 -> 72         0.16008
      64 -> 74         0.15794
      65 -> 75        -0.12017
      67 -> 70         0.46428
      68 -> 71        -0.35752
      69 -> 72         0.16219

 Excited State   8:      Singlet-A      5.5053 eV  225.21 nm  f=0.0014  <S**2>=0.000
      63 -> 74         0.13698
      64 -> 72         0.19485
      64 -> 74        -0.10852
      65 -> 70        -0.14745
      65 -> 72         0.19049
      65 -> 75        -0.12283
      66 -> 70        -0.23152
      67 -> 71        -0.18097
      68 -> 70         0.25504
      68 -> 71        -0.19544
      68 -> 72         0.14862
      69 -> 74         0.26930

 Excited State   9:      Singlet-A      5.5242 eV  224.44 nm  f=0.0006  <S**2>=0.000
      63 -> 75        -0.14293
      64 -> 70        -0.10018
      64 -> 72        -0.19329
      64 -> 75        -0.11314
      65 -> 72         0.19933
      66 -> 71         0.20960
      67 -> 70         0.17264
      67 -> 71        -0.12428
      67 -> 72        -0.16201
      68 -> 70         0.18293
      68 -> 71         0.29317
      69 -> 75        -0.28565

 Excited State  10:      Singlet-A      5.6131 eV  220.88 nm  f=0.0021  <S**2>=0.000
      65 -> 71         0.12177
      66 -> 70         0.14372
      67 -> 71         0.37518
      68 -> 70         0.54112

 The electronic state is 1-A.
 Alpha  occ. eigenvalues --  -77.08110 -10.19464 -10.19448 -10.19431 -10.19190
 Alpha  occ. eigenvalues --  -10.19146 -10.19144 -10.19120 -10.19104 -10.19082
 Alpha  occ. eigenvalues --  -10.19069 -10.19035 -10.19028 -10.19008 -10.19006
 Alpha  occ. eigenvalues --  -10.18996 -10.18975 -10.18959 -10.18926  -6.54841
 Alpha  occ. eigenvalues --   -4.71100  -4.71099  -4.70598  -0.85559  -0.84866
 Alpha  occ. eigenvalues --   -0.84825  -0.76666  -0.74379  -0.74367  -0.74315
 Alpha  occ. eigenvalues --   -0.73834  -0.73811  -0.64435  -0.60358  -0.60311
 Alpha  occ. eigenvalues --   -0.60279  -0.59215  -0.59201  -0.55450  -0.51447
 Alpha  occ. eigenvalues --   -0.51424  -0.49295  -0.45451  -0.45426  -0.44780
 Alpha  occ. eigenvalues --   -0.44348  -0.44337  -0.44070  -0.41954  -0.41875
 Alpha  occ. eigenvalues --   -0.41849  -0.40397  -0.40359  -0.36838  -0.36381
 Alpha  occ. eigenvalues --   -0.36326  -0.35902  -0.34273  -0.34250  -0.34206
 Alpha  occ. eigenvalues --   -0.31893  -0.31877  -0.26766  -0.25488  -0.25411
 Alpha  occ. eigenvalues --   -0.25237  -0.24716  -0.24692  -0.21143
 Alpha virt. eigenvalues --   -0.01933  -0.01836  -0.00818   0.00172   0.00377
 Alpha virt. eigenvalues --    0.00475   0.06818   0.06980   0.09484   0.11029
 Alpha virt. eigenvalues --    0.11057   0.13896   0.14519   0.14539   0.15154

 Mulliken charges:
               1
     1  P    0.450278
     2  C   -0.115171
     3  C   -0.174797
     4  C   -0.116635
     5  C   -0.145846
     6  C   -0.124101
     7  C   -0.155384
     8  C   -0.078037
     9  C   -0.152072
    10  C   -0.117675
    11  C   -0.122362
    12  C   -0.119826
    13  C   -0.152335
    14  C   -0.125925
    15  C   -0.164798
    16  C   -0.127236
    17  C   -0.168028
    18  C   -0.115500
    19  C   -0.180130
    20  H    0.127007
    21  H    0.126888
    22  H    0.126302
    23  H    0.132186
    24  H    0.162483
    25  H    0.169786
    26  H    0.147192
    27  H    0.147013
    28  H    0.144391
    29  H    0.151786
    30  H    0.115368
    31  H    0.113120
    32  H    0.107286
    33  H    0.116425
    34  H    0.118347
 Sum of Mulliken charges =  -0.00000

 Dipole moment (field-independent basis, Debye):
    X=             -2.5799    Y=              3.2177    Z=             -0.2135  Tot=              4.1298
 Quadrupole moment (field-independent basis, Debye-Ang):
   XX=           -120.8093   YY=           -106.2335   ZZ=           -110.6874
   XY=              1.3637   XZ=             -1.6491   YZ=              0.3774

 Summary of Natural Population Analysis:

                                       Natural Population
                Natural  -----------------------------------------------
    Atom  No    Charge         Core      Valence    Rydberg      Total
 -----------------------------------------------------------------------
      P    1    1.24298      9.99750     3.70927    0.05026    13.75702
      C    2   -0.44458      1.99889     4.41939    0.02630     6.44458
      C    3   -0.23432      1.99902     4.21927    0.01603     6.23432
      C    4   -0.23233      1.99910     4.21884    0.01440     6.23233
      C    5   -0.24910      1.99909     4.23465    0.01535     6.24910
      C    6   -0.23845      1.99909     4.22481    0.01455     6.23845
      C    7   -0.21784      1.99899     4.20190    0.01694     6.21784
      C    8   -0.37408      1.99890     4.35067    0.02451     6.37408
      C    9   -0.21210      1.99899     4.19698    0.01613     6.21210
      C   10   -0.22637      1.99909     4.21329    0.01399     6.22637
      C   11   -0.19875      1.99909     4.18586    0.01380     6.19875
      C   12   -0.23704      1.99910     4.22363    0.01431     6.23704
      C   13   -0.19606      1.99902     4.18200    0.01505     6.19606
      C   14   -0.47772      1.99886     4.45420    0.02466     6.47772
      C   15   -0.22253      1.99901     4.20750    0.01601     6.22253
      C   16   -0.25260      1.99910     4.23823    0.01527     6.25260
      C   17   -0.29638      1.99910     4.28069    0.01660     6.29638
      C   18   -0.22410      1.99909     4.21058    0.01443     6.22410
      C   19   -0.27542      1.99899     4.25808    0.01835     6.27542
      H   20    0.22995      0.00000     0.76905    0.00101     0.77005
      H   21    0.23536      0.00000     0.76369    0.00096     0.76464
      H   22    0.23350      0.00000     0.76560    0.00090     0.76650
      H   23    0.23897      0.00000     0.76015    0.00088     0.76103
      H   24    0.25358      0.00000     0.74488    0.00154     0.74642
      H   25    0.25793      0.00000     0.74089    0.00118     0.74207
      H   26    0.24572      0.00000     0.75342    0.00086     0.75428
      H   27    0.24240      0.00000     0.75679    0.00082     0.75760
      H   28    0.24405      0.00000     0.75508    0.00087     0.75595
      H   29    0.24397      0.00000     0.75476    0.00127     0.75603
      H   30    0.22517      0.00000     0.77379    0.00103     0.77483
      H   31    0.22962      0.00000     0.76949    0.00089     0.77038
      H   32    0.22534      0.00000     0.77378    0.00088     0.77466
      H   33    0.23153      0.00000     0.76759    0.00088     0.76847
      H   34    0.22972      0.00000     0.76890    0.00138     0.77028
 =======================================================================
   * Total *   -0.00000     45.98001    91.64770    0.37229   138.00000

 Normal termination of Gaussian 16 at Sun Dec  8 18:53:15 2019.
