 Gaussian 16, Revision A.03,

 -----------------------------------------
 # opt=CalcFc B3LYP/6-31G* scf=xqc scf=xqc
 -----------------------------------------

 -------------------
 Title Card Required
 -------------------
 Symbolic Z-matrix:
 Charge =  0 Multiplicity = 1

 SCF Done:  E(RB3LYP) =  -1036.27508620     A.U. after   14 cycles
 SCF Done:  E(RB3LYP) =  -1036.28138873     A.U. after   14 cycles
 SCF Done:  E(RB3LYP) =  -1036.29498296     A.U. after   15 cycles
 SCF Done:  E(RB3LYP) =  -1036.29477847     A.U. after   14 cycles
 SCF Done:  E(RB3LYP) =  -1036.29719010     A.U. after   12 cycles
 SCF Done:  E(RB3LYP) =  -1036.29753198     A.U. after   12 cycles
 SCF Done:  E(RB3LYP) =  -1036.29754743     A.U. after   12 cycles
 SCF Done:  E(RB3LYP) =  -1036.29797364     A.U. after   12 cycles
 SCF Done:  E(RB3LYP) =  -1036.29806182     A.U. after   11 cycles
 SCF Done:  E(RB3LYP) =  -1036.29809152     A.U. after   11 cycles
 SCF Done:  E(RB3LYP) =  -1036.29823675     A.U. after    8 cycles
 SCF Done:  E(RB3LYP) =  -1036.29822964     A.U. after    8 cycles
 SCF Done:  E(RB3LYP) =  -1036.29823153     A.U. after    7 cycles
 SCF Done:  E(RB3LYP) =  -1036.29823685     A.U. after    7 cycles
 SCF Done:  E(RB3LYP) =  -1036.29719886     A.U. after   12 cycles
 SCF Done:  E(RB3LYP) =  -1036.29799093     A.U. after   11 cycles
 SCF Done:  E(RB3LYP) =  -1036.29643287     A.U. after   12 cycles
 SCF Done:  E(RB3LYP) =  -1036.29823425     A.U. after    8 cycles
 Optimization completed.
    -- Stationary point found.
 Normal termination of Gaussian 16 at Sun Dec  8 19:05:43 2019.

 ----------------------------------------------------------------------
 # freq B3LYP/6-31G* scf=xqc volume NMR pop=NPA density=current Geom=Al
 lCheck Guess=Read
 ----------------------------------------------------------------------

 Structure from the checkpoint file:  "direct_arylation_ligand38_conf172.chk"
 -------------------
 Title Card Required
 -------------------
 Charge =  0 Multiplicity = 1

 SCF Done:  E(RB3LYP) =  -1036.29823425     A.U. after    1 cycles

      1  P    Isotropic =   361.5517   Anisotropy =    39.7907

      2  C    Isotropic =    56.1074   Anisotropy =   179.4181

      3  C    Isotropic =    61.0225   Anisotropy =   164.1240

      4  C    Isotropic =    68.7351   Anisotropy =   164.1332

      5  C    Isotropic =    68.1625   Anisotropy =   167.3277

      6  C    Isotropic =    68.6646   Anisotropy =   163.8870

      7  C    Isotropic =    62.5713   Anisotropy =   174.0174

      8  C    Isotropic =    56.0936   Anisotropy =   179.4076

      9  C    Isotropic =    62.6027   Anisotropy =   174.0012

     10  C    Isotropic =    68.6697   Anisotropy =   163.8803

     11  C    Isotropic =    68.1759   Anisotropy =   167.3190

     12  C    Isotropic =    68.7290   Anisotropy =   164.1487

     13  C    Isotropic =    61.0247   Anisotropy =   164.1607

     14  C    Isotropic =    56.1507   Anisotropy =   179.4056

     15  C    Isotropic =    61.0233   Anisotropy =   164.1358

     16  C    Isotropic =    68.7252   Anisotropy =   164.1387

     17  C    Isotropic =    68.1474   Anisotropy =   167.3363

     18  C    Isotropic =    68.6743   Anisotropy =   163.8961

     19  C    Isotropic =    62.5604   Anisotropy =   174.0743

     20  H    Isotropic =    24.6127   Anisotropy =     9.2505

     21  H    Isotropic =    24.9269   Anisotropy =     4.5872

     22  H    Isotropic =    25.0201   Anisotropy =     3.6415

     23  H    Isotropic =    25.0487   Anisotropy =     6.0887

     24  H    Isotropic =    25.4037   Anisotropy =    12.2326

     25  H    Isotropic =    25.4087   Anisotropy =    12.2389

     26  H    Isotropic =    25.0498   Anisotropy =     6.0882

     27  H    Isotropic =    25.0200   Anisotropy =     3.6420

     28  H    Isotropic =    24.9255   Anisotropy =     4.5915

     29  H    Isotropic =    24.6154   Anisotropy =     9.2610

     30  H    Isotropic =    24.6117   Anisotropy =     9.2426

     31  H    Isotropic =    24.9258   Anisotropy =     4.5862

     32  H    Isotropic =    25.0201   Anisotropy =     3.6415

     33  H    Isotropic =    25.0475   Anisotropy =     6.0861

     34  H    Isotropic =    25.3997   Anisotropy =    12.2300

  Exact polarizability: 224.325   0.035 224.067  -0.020  -0.086 164.929
 Approx polarizability: 331.288   0.068 330.799  -0.043  -0.207 307.784

                      1                      2                      3
                      A                      A                      A
 Frequencies --     23.2487                24.7097                39.0592
 Red. masses --      3.7977                 3.7987                 3.6896
 Frc consts  --      0.0012                 0.0014                 0.0033
 IR Inten    --      0.2816                 0.2836                 0.0017

                      4                      5                      6
                      A                      A                      A
 Frequencies --     53.3972                53.4774                70.6529
 Red. masses --      5.2515                 5.2492                 5.1687
 Frc consts  --      0.0088                 0.0088                 0.0152
 IR Inten    --      0.0846                 0.0846                 0.3107

                      7                      8                      9
                      A                      A                      A
 Frequencies --    181.5949               202.3748               202.7226
 Red. masses --      4.5609                 4.6432                 4.6423
 Frc consts  --      0.0886                 0.1120                 0.1124
 IR Inten    --      0.3530                 1.1331                 1.1373

                     10                     11                     12
                      A                      A                      A
 Frequencies --    245.5285               259.6878               259.9282
 Red. masses --      5.7371                 4.7195                 4.7228
 Frc consts  --      0.2038                 0.1875                 0.1880
 IR Inten    --      0.4838                 0.2250                 0.2249

                     13                     14                     15
                      A                      A                      A
 Frequencies --    408.8241               408.9118               412.3483
 Red. masses --      3.0788                 3.0806                 3.6416
 Frc consts  --      0.3032                 0.3035                 0.3648
 IR Inten    --      1.9562                 1.9796                 0.1730

                     16                     17                     18
                      A                      A                      A
 Frequencies --    417.0600               429.4092               429.6322
 Red. masses --      4.5425                 7.2975                 7.3209
 Frc consts  --      0.4655                 0.7928                 0.7962
 IR Inten    --      0.5522                 7.6548                 7.7362

                     19                     20                     21
                      A                      A                      A
 Frequencies --    509.4108               509.5659               516.5130
 Red. masses --      4.2473                 4.2455                 4.5865
 Frc consts  --      0.6494                 0.6495                 0.7209
 IR Inten    --     26.0456                26.0351                11.9882

                     22                     23                     24
                      A                      A                      A
 Frequencies --    632.7125               632.7487               633.3595
 Red. masses --      6.4272                 6.4272                 6.4371
 Frc consts  --      1.5160                 1.5161                 1.5214
 IR Inten    --      0.1794                 0.1792                 0.0166

                     25                     26                     27
                      A                      A                      A
 Frequencies --    691.8231               705.1521               705.1822
 Red. masses --      6.5810                 5.7474                 5.7530
 Frc consts  --      1.8558                 1.6838                 1.6856
 IR Inten    --      0.7827                 1.0792                 1.1458

                     28                     29                     30
                      A                      A                      A
 Frequencies --    712.2733               712.3612               713.3582
 Red. masses --      2.1984                 2.1961                 2.1345
 Frc consts  --      0.6571                 0.6566                 0.6400
 IR Inten    --     26.4047                26.3140                16.6642

                     31                     32                     33
                      A                      A                      A
 Frequencies --    761.4511               762.9069               762.9309
 Red. masses --      1.6155                 1.6482                 1.6478
 Frc consts  --      0.5519                 0.5652                 0.5651
 IR Inten    --     19.2731                24.9486                24.9141

                     34                     35                     36
                      A                      A                      A
 Frequencies --    866.2178               866.2514               868.8327
 Red. masses --      1.2477                 1.2477                 1.2462
 Frc consts  --      0.5516                 0.5516                 0.5543
 IR Inten    --      0.2238                 0.2163                 0.1321

                     37                     38                     39
                      A                      A                      A
 Frequencies --    932.9504               933.0189               934.3026
 Red. masses --      1.3441                 1.3441                 1.3384
 Frc consts  --      0.6893                 0.6894                 0.6884
 IR Inten    --      1.2575                 1.2713                 0.0403

                     40                     41                     42
                      A                      A                      A
 Frequencies --    975.8317               975.8830               977.7186
 Red. masses --      1.3613                 1.3611                 1.3555
 Frc consts  --      0.7638                 0.7638                 0.7634
 IR Inten    --      0.0167                 0.0146                 0.1394

                     43                     44                     45
                      A                      A                      A
 Frequencies --   1000.3785              1000.4083              1001.1403
 Red. masses --      1.2543                 1.2542                 1.2524
 Frc consts  --      0.7396                 0.7395                 0.7396
 IR Inten    --      0.0801                 0.0827                 0.0006

                     46                     47                     48
                      A                      A                      A
 Frequencies --   1015.3288              1015.3709              1015.7393
 Red. masses --      6.3106                 6.3117                 6.3106
 Frc consts  --      3.8330                 3.8340                 3.8361
 IR Inten    --      4.3677                 4.3370                 0.0695

                     49                     50                     51
                      A                      A                      A
 Frequencies --   1052.6491              1052.7300              1052.9163
 Red. masses --      3.3128                 3.3166                 3.2562
 Frc consts  --      2.1628                 2.1656                 2.1269
 IR Inten    --      2.0677                 2.0596                 0.0937

                     52                     53                     54
                      A                      A                      A
 Frequencies --   1107.8087              1108.0653              1109.4460
 Red. masses --      1.8868                 1.8767                 1.6553
 Frc consts  --      1.3643                 1.3576                 1.2005
 IR Inten    --      4.3210                 4.1860                 2.8986

                     55                     56                     57
                      A                      A                      A
 Frequencies --   1110.7737              1110.8335              1115.9445
 Red. masses --      2.1889                 2.1954                 2.6125
 Frc consts  --      1.5912                 1.5961                 1.9168
 IR Inten    --      9.3516                 9.3648                 1.1771

                     58                     59                     60
                      A                      A                      A
 Frequencies --   1193.5047              1193.9151              1193.9713
 Red. masses --      1.1035                 1.1002                 1.1001
 Frc consts  --      0.9261                 0.9240                 0.9240
 IR Inten    --      0.0021                 0.1295                 0.1293

                     61                     62                     63
                      A                      A                      A
 Frequencies --   1219.2191              1219.4558              1220.8201
 Red. masses --      1.1475                 1.1477                 1.1474
 Frc consts  --      1.0050                 1.0056                 1.0075
 IR Inten    --      6.0556                 5.9517                 0.4408

                     64                     65                     66
                      A                      A                      A
 Frequencies --   1324.9611              1328.6279              1328.8776
 Red. masses --      3.4896                 3.4900                 3.5095
 Frc consts  --      3.6094                 3.6298                 3.6515
 IR Inten    --      2.6326                 2.4270                 2.4488

                     67                     68                     69
                      A                      A                      A
 Frequencies --   1365.1329              1365.2848              1365.7076
 Red. masses --      1.6555                 1.6524                 1.6437
 Frc consts  --      1.8178                 1.8147                 1.8063
 IR Inten    --      0.1783                 1.1044                 2.1043

                     70                     71                     72
                      A                      A                      A
 Frequencies --   1480.5005              1480.9499              1481.0501
 Red. masses --      2.1102                 2.1151                 2.1156
 Frc consts  --      2.7252                 2.7331                 2.7342
 IR Inten    --     16.6062                 6.6248                 6.6274

                     73                     74                     75
                      A                      A                      A
 Frequencies --   1531.1062              1531.5577              1531.7306
 Red. masses --      2.0149                 1.9985                 1.9977
 Frc consts  --      2.7830                 2.7620                 2.7616
 IR Inten    --      2.2074                10.1116                10.0188

                     76                     77                     78
                      A                      A                      A
 Frequencies --   1630.1141              1630.3734              1630.4977
 Red. masses --      5.1002                 5.1116                 5.1105
 Frc consts  --      7.9850                 8.0053                 8.0049
 IR Inten    --      0.3839                 0.0495                 0.0540

                     79                     80                     81
                      A                      A                      A
 Frequencies --   1646.1265              1646.2109              1647.9759
 Red. masses --      5.2708                 5.2690                 5.2814
 Frc consts  --      8.4151                 8.4130                 8.4508
 IR Inten    --      3.5093                 3.5372                 0.3180

                     82                     83                     84
                      A                      A                      A
 Frequencies --   3176.1050              3176.1252              3176.1515
 Red. masses --      1.0854                 1.0853                 1.0853
 Frc consts  --      6.4509                 6.4507                 6.4509
 IR Inten    --      2.2766                 1.9082                 1.8661

                     85                     86                     87
                      A                      A                      A
 Frequencies --   3182.6322              3182.6598              3182.7420
 Red. masses --      1.0875                 1.0875                 1.0876
 Frc consts  --      6.4900                 6.4902                 6.4910
 IR Inten    --      0.7836                 0.6538                 0.2363

                     88                     89                     90
                      A                      A                      A
 Frequencies --   3192.8216              3192.8440              3192.9705
 Red. masses --      1.0916                 1.0916                 1.0917
 Frc consts  --      6.5564                 6.5566                 6.5577
 IR Inten    --     10.2936                10.3895                46.7835

                     91                     92                     93
                      A                      A                      A
 Frequencies --   3203.7568              3203.8303              3204.2109
 Red. masses --      1.0939                 1.0940                 1.0941
 Frc consts  --      6.6155                 6.6161                 6.6184
 IR Inten    --     39.4387                40.2479                 5.5255

                     94                     95                     96
                      A                      A                      A
 Frequencies --   3209.8143              3209.9198              3210.7783
 Red. masses --      1.0959                 1.0958                 1.0958
 Frc consts  --      6.6525                 6.6525                 6.6558
 IR Inten    --     21.8182                21.2102                16.1038

 - Thermochemistry -
 -------------------
 Temperature   298.150 Kelvin.  Pressure   1.00000 Atm.
 Atom     1 has atomic number 15 and mass  30.97376

 Molecular mass:   262.09114 amu.
 Principal axes and moments of inertia in atomic units:
                           1         2         3
     Eigenvalues --  5160.207755164.280508681.04324
           X            0.99998   0.00647  -0.00001
           Y           -0.00647   0.99998  -0.00002
           Z            0.00001   0.00002   1.00000
 This molecule is an asymmetric top.
 Rotational symmetry number  1.
 Warning -- assumption of classical behavior for rotation
           may cause significant error
 Rotational temperatures (Kelvin)      0.01678     0.01677     0.00998
 Rotational constants (GHZ):           0.34974     0.34947     0.20789
 Zero-point vibrational energy     719971.8 (Joules/Mol)
                                  172.07740 (Kcal/Mol)
 Warning -- explicit consideration of  21 degrees of freedom as
           vibrations may cause significant error
 Vibrational temperatures:     33.45    35.55    56.20    76.83    76.94
          (Kelvin)            101.65   261.27   291.17   291.67   353.26
                              373.63   373.98   588.21   588.33   593.28
                              600.06   617.82   618.14   732.93   733.15
                              743.15   910.33   910.38   911.26   995.38
                             1014.56  1014.60  1024.80  1024.93  1026.36
                             1095.56  1097.65  1097.69  1246.29  1246.34
                             1250.06  1342.31  1342.41  1344.25  1404.00
                             1404.08  1406.72  1439.32  1439.36  1440.42
                             1460.83  1460.89  1461.42  1514.53  1514.64
                             1514.91  1593.89  1594.26  1596.25  1598.16
                             1598.24  1605.60  1717.19  1717.78  1717.86
                             1754.18  1754.52  1756.49  1906.32  1911.60
                             1911.96  1964.12  1964.34  1964.95  2130.11
                             2130.76  2130.90  2202.92  2203.57  2203.82
                             2345.37  2345.74  2345.92  2368.41  2368.53
                             2371.07  4569.71  4569.74  4569.77  4579.10
                             4579.14  4579.26  4593.76  4593.79  4593.97
                             4609.49  4609.60  4610.14  4618.21  4618.36
                             4619.59

 Zero-point correction=                           0.274223 (Hartree/Particle)
 Thermal correction to Energy=                    0.290139
 Thermal correction to Enthalpy=                  0.291083
 Thermal correction to Gibbs Free Energy=         0.227828
 Sum of electronic and zero-point Energies=          -1036.024011
 Sum of electronic and thermal Energies=             -1036.008095
 Sum of electronic and thermal Enthalpies=           -1036.007151
 Sum of electronic and thermal Free Energies=        -1036.070406

                     E (Thermal)             CV                S
                      KCal/Mol        Cal/Mol-Kelvin    Cal/Mol-Kelvin
 Total                  182.065             62.536            133.132
 Electronic               0.000              0.000              0.000
 Translational            0.889              2.981             42.590
 Rotational               0.889              2.981             33.803
 Vibrational            180.288             56.574             56.739
 Vibration     1          0.593              1.985              6.335
 Vibration     2          0.593              1.985              6.214
 Vibration     3          0.594              1.981              5.306
 Vibration     4          0.596              1.976              4.687
 Vibration     5          0.596              1.976              4.684
 Vibration     6          0.598              1.968              4.135
 Vibration     7          0.630              1.865              2.312
 Vibration     8          0.639              1.837              2.111
 Vibration     9          0.639              1.836              2.108
 Vibration    10          0.660              1.770              1.762
 Vibration    11          0.668              1.746              1.664
 Vibration    12          0.668              1.746              1.662
 Vibration    13          0.773              1.451              0.931
 Vibration    14          0.773              1.451              0.930
 Vibration    15          0.776              1.443              0.918
 Vibration    16          0.780              1.433              0.902
 Vibration    17          0.791              1.406              0.861
 Vibration    18          0.791              1.406              0.860
 Vibration    19          0.865              1.229              0.635
 Vibration    20          0.865              1.229              0.635
 Vibration    21          0.872              1.213              0.618

                           ! Non-Optimized Parameters !
 Normal termination of Gaussian 16 at Sun Dec  8 19:19:31 2019.
 Gaussian 16:  ES64L-G16RevA.03 25-Dec-2016

 ----------------------------------------------------------------------
 # TD(NStates=10, Root=1) B3LYP/6-31G* scf=xqc volume pop=NPA density=c
 urrent Geom=AllCheck Guess=Read
 ----------------------------------------------------------------------

 Structure from the checkpoint file:  "direct_arylation_ligand38_conf173.chk"
 -------------------
 Title Card Required
 -------------------
 Charge =  0 Multiplicity = 1

                         Standard orientation:
 ---------------------------------------------------------------------
 Center     Atomic      Atomic             Coordinates (Angstroms)
 Number     Number       Type             X           Y           Z
 ---------------------------------------------------------------------
      1         15           0       -0.000289    0.000557   -1.206902
      2          6           0        1.237933    1.121884   -0.402337
      3          6           0        1.481012    2.354629   -1.031516
      4          6           0        2.404074    3.257776   -0.504850
      5          6           0        3.115429    2.934812    0.652686
      6          6           0        2.894126    1.707661    1.279753
      7          6           0        1.961282    0.808370    0.758479
      8          6           0        0.352008   -1.632656   -0.403047
      9          6           0       -0.283601   -2.105232    0.755346
     10          6           0        0.029954   -3.362703    1.275988
     11          6           0        0.985715   -4.165066    0.650884
     12          6           0        1.623806   -3.707551   -0.504045
     13          6           0        1.302051   -2.456640   -1.030171
     14          6           0       -1.590989    0.511928   -0.403255
     15          6           0       -2.779836    0.106422   -1.033262
     16          6           0       -4.023738    0.452901   -0.506198
     17          6           0       -4.100192    1.228812    0.652492
     18          6           0       -2.927120    1.650430    1.280318
     19          6           0       -1.681657    1.293394    0.758755
     20          1           0        0.945346    2.605028   -1.944470
     21          1           0        2.575660    4.208085   -1.003852
     22          1           0        3.842574    3.632750    1.059408
     23          1           0        3.447876    1.447732    2.178504
     24          1           0        1.798799   -0.143244    1.255714
     25          1           0       -1.029267   -1.490949    1.251132
     26          1           0       -0.473964   -3.714438    2.172824
     27          1           0        1.227436   -5.143734    1.057180
     28          1           0        2.364045   -4.329000   -1.001417
     29          1           0        1.789141   -2.115679   -1.940998
     30          1           0       -2.728485   -0.481464   -1.946974
     31          1           0       -4.932351    0.126586   -1.005665
     32          1           0       -5.068368    1.508489    1.059567
     33          1           0       -2.979257    2.258620    2.179953
     34          1           0       -0.776401    1.627839    1.256501
 ---------------------------------------------------------------------

 SCF Done:  E(RB3LYP) =  -1036.29823425     A.U. after    1 cycles

 Excitation energies and oscillator strengths:

 Excited State   1:      Singlet-A      4.5095 eV  274.94 nm  f=0.1277  <S**2>=0.000
      69 -> 70         0.69581
 This state for optimization and/or second-order correction.
 Total Energy, E(TD-HF/TD-DFT) =  -1036.13251159
 Copying the excited state density for this state as the 1-particle RhoCI density.

 Excited State   2:      Singlet-A      4.5110 eV  274.85 nm  f=0.1284  <S**2>=0.000
      69 -> 71         0.69578

 Excited State   3:      Singlet-A      4.7556 eV  260.71 nm  f=0.0022  <S**2>=0.000
      67 -> 70         0.12279
      68 -> 71         0.12317
      69 -> 72         0.67477

 Excited State   4:      Singlet-A      5.0572 eV  245.16 nm  f=0.0002  <S**2>=0.000
      66 -> 70        -0.16167
      67 -> 70         0.12033
      68 -> 71        -0.12014
      69 -> 74         0.63099

 Excited State   5:      Singlet-A      5.0581 eV  245.12 nm  f=0.0002  <S**2>=0.000
      66 -> 71        -0.16193
      67 -> 71        -0.12126
      68 -> 70        -0.12087
      69 -> 75         0.63044

 Excited State   6:      Singlet-A      5.1500 eV  240.75 nm  f=0.0085  <S**2>=0.000
      69 -> 73         0.67909

 Excited State   7:      Singlet-A      5.4279 eV  228.42 nm  f=0.0147  <S**2>=0.000
      63 -> 72        -0.16604
      64 -> 74        -0.13270
      64 -> 75         0.10044
      65 -> 74        -0.10213
      65 -> 75        -0.13105
      67 -> 70         0.42226
      68 -> 71         0.41816
      69 -> 72        -0.16477

 Excited State   8:      Singlet-A      5.5139 eV  224.86 nm  f=0.0005  <S**2>=0.000
      63 -> 74         0.14258
      64 -> 70        -0.11225
      64 -> 72         0.19501
      64 -> 75         0.11606
      65 -> 71         0.11201
      65 -> 72         0.20529
      65 -> 74         0.11508
      66 -> 70         0.22453
      67 -> 70        -0.25453
      68 -> 71         0.25996
      68 -> 72        -0.16358
      69 -> 74         0.28506

 Excited State   9:      Singlet-A      5.5149 eV  224.82 nm  f=0.0004  <S**2>=0.000
      63 -> 75         0.14292
      64 -> 71         0.10965
      64 -> 72        -0.20555
      64 -> 74         0.11486
      65 -> 70         0.11170
      65 -> 72         0.19486
      65 -> 75        -0.11552
      66 -> 71         0.22299
      67 -> 71         0.25739
      67 -> 72         0.16381
      68 -> 70         0.25939
      69 -> 75         0.28600

 Excited State  10:      Singlet-A      5.6184 eV  220.68 nm  f=0.0009  <S**2>=0.000
      67 -> 71        -0.47613
      68 -> 70         0.48268

 The electronic state is 1-A.
 Alpha  occ. eigenvalues --  -77.08115 -10.19448 -10.19448 -10.19447 -10.19149
 Alpha  occ. eigenvalues --  -10.19146 -10.19144 -10.19120 -10.19117 -10.19116
 Alpha  occ. eigenvalues --  -10.19032 -10.19030 -10.19028 -10.19010 -10.19007
 Alpha  occ. eigenvalues --  -10.19006 -10.18963 -10.18961 -10.18960  -6.54845
 Alpha  occ. eigenvalues --   -4.71104  -4.71104  -4.70603  -0.85560  -0.84846
 Alpha  occ. eigenvalues --   -0.84844  -0.76669  -0.74367  -0.74366  -0.74328
 Alpha  occ. eigenvalues --   -0.73821  -0.73820  -0.64436  -0.60333  -0.60308
 Alpha  occ. eigenvalues --   -0.60307  -0.59207  -0.59207  -0.55449  -0.51435
 Alpha  occ. eigenvalues --   -0.51434  -0.49295  -0.45441  -0.45439  -0.44772
 Alpha  occ. eigenvalues --   -0.44345  -0.44345  -0.44067  -0.41946  -0.41869
 Alpha  occ. eigenvalues --   -0.41867  -0.40378  -0.40376  -0.36846  -0.36351
 Alpha  occ. eigenvalues --   -0.36348  -0.35898  -0.34252  -0.34251  -0.34223
 Alpha  occ. eigenvalues --   -0.31885  -0.31883  -0.26783  -0.25449  -0.25444
 Alpha  occ. eigenvalues --   -0.25244  -0.24704  -0.24702  -0.21141
 Alpha virt. eigenvalues --   -0.01879  -0.01876  -0.00833   0.00171   0.00427
 Alpha virt. eigenvalues --    0.00433   0.06878   0.06885   0.09493   0.11037
 Alpha virt. eigenvalues --    0.11038   0.13905   0.14528   0.14528   0.15164

 Mulliken charges:
               1
     1  P    0.450553
     2  C   -0.095554
     3  C   -0.153867
     4  C   -0.124579
     5  C   -0.141211
     6  C   -0.115554
     7  C   -0.164946
     8  C   -0.091639
     9  C   -0.148052
    10  C   -0.122159
    11  C   -0.126258
    12  C   -0.116958
    13  C   -0.163737
    14  C   -0.134325
    15  C   -0.174543
    16  C   -0.121523
    17  C   -0.168715
    18  C   -0.120370
    19  C   -0.172462
    20  H    0.138261
    21  H    0.131852
    22  H    0.130528
    23  H    0.134132
    24  H    0.143365
    25  H    0.178129
    26  H    0.144920
    27  H    0.143013
    28  H    0.140059
    29  H    0.143772
    30  H    0.112119
    31  H    0.112655
    32  H    0.107017
    33  H    0.116618
    34  H    0.129458
 Sum of Mulliken charges =   0.00000

 Dipole moment (field-independent basis, Debye):
    X=              2.9834    Y=             -2.3040    Z=             -0.1947  Tot=              3.7745
 Quadrupole moment (field-independent basis, Debye-Ang):
   XX=           -120.3514   YY=           -106.6889   ZZ=           -110.6902
   XY=              1.6387   XZ=              0.3763   YZ=             -1.3081

 Summary of Natural Population Analysis:

                                       Natural Population
                Natural  -----------------------------------------------
    Atom  No    Charge         Core      Valence    Rydberg      Total
 -----------------------------------------------------------------------
      P    1    1.24190      9.99750     3.71036    0.05024    13.75810
      C    2   -0.41176      1.99888     4.38882    0.02407     6.41176
      C    3   -0.20233      1.99901     4.18790    0.01541     6.20233
      C    4   -0.24619      1.99910     4.23226    0.01484     6.24619
      C    5   -0.23953      1.99909     4.22540    0.01503     6.23953
      C    6   -0.22301      1.99909     4.20980    0.01412     6.22301
      C    7   -0.24340      1.99899     4.22729    0.01713     6.24340
      C    8   -0.39606      1.99890     4.37151    0.02565     6.39606
      C    9   -0.20286      1.99900     4.18762    0.01624     6.20286
      C   10   -0.23413      1.99909     4.22081    0.01423     6.23413
      C   11   -0.20747      1.99909     4.19429    0.01409     6.20747
      C   12   -0.23193      1.99910     4.21866    0.01417     6.23193
      C   13   -0.21385      1.99902     4.19942    0.01541     6.21385
      C   14   -0.48886      1.99886     4.46419    0.02580     6.48886
      C   15   -0.23811      1.99901     4.22269    0.01640     6.23811
      C   16   -0.24246      1.99910     4.22841    0.01495     6.24246
      C   17   -0.29758      1.99910     4.28177    0.01671     6.29758
      C   18   -0.23297      1.99909     4.21922    0.01467     6.23297
      C   19   -0.25637      1.99899     4.23938    0.01800     6.25637
      H   20    0.23748      0.00000     0.76129    0.00123     0.76252
      H   21    0.23846      0.00000     0.76067    0.00087     0.76154
      H   22    0.23541      0.00000     0.76372    0.00087     0.76459
      H   23    0.23967      0.00000     0.75945    0.00088     0.76033
      H   24    0.24348      0.00000     0.75523    0.00129     0.75652
      H   25    0.26249      0.00000     0.73622    0.00129     0.73751
      H   26    0.24481      0.00000     0.75432    0.00087     0.75519
      H   27    0.24069      0.00000     0.75847    0.00085     0.75931
      H   28    0.24160      0.00000     0.75747    0.00093     0.75840
      H   29    0.23892      0.00000     0.75995    0.00113     0.76108
      H   30    0.22282      0.00000     0.77622    0.00096     0.77718
      H   31    0.22902      0.00000     0.77006    0.00093     0.77098
      H   32    0.22516      0.00000     0.77394    0.00090     0.77484
      H   33    0.23168      0.00000     0.76745    0.00088     0.76832
      H   34    0.23528      0.00000     0.76317    0.00155     0.76472
 =======================================================================
   * Total *    0.00000     45.98001    91.64741    0.37259   138.00000

 Normal termination of Gaussian 16 at Sun Dec  8 19:32:42 2019.
