 Gaussian 16, Revision A.03,

 -----------------------------------------
 # opt=CalcFc B3LYP/6-31G* scf=xqc scf=xqc
 -----------------------------------------

 -------------------
 Title Card Required
 -------------------
 Symbolic Z-matrix:
 Charge =  0 Multiplicity = 1

 SCF Done:  E(RB3LYP) =  -1036.26837615     A.U. after   14 cycles
 SCF Done:  E(RB3LYP) =  -1036.27480783     A.U. after   14 cycles
 SCF Done:  E(RB3LYP) =  -1036.26150500     A.U. after   15 cycles
 SCF Done:  E(RB3LYP) =  -1036.28550751     A.U. after   14 cycles
 SCF Done:  E(RB3LYP) =  -1036.28330437     A.U. after   15 cycles
 SCF Done:  E(RB3LYP) =  -1036.29283716     A.U. after   12 cycles
 SCF Done:  E(RB3LYP) =  -1036.29234577     A.U. after   14 cycles
 SCF Done:  E(RB3LYP) =  -1036.29377293     A.U. after   13 cycles
 SCF Done:  E(RB3LYP) =  -1036.29615609     A.U. after   14 cycles
 SCF Done:  E(RB3LYP) =  -1036.29710156     A.U. after   13 cycles
 SCF Done:  E(RB3LYP) =  -1036.29823343     A.U. after    7 cycles
 SCF Done:  E(RB3LYP) =  -1036.29823304     A.U. after    7 cycles
 SCF Done:  E(RB3LYP) =  -1036.29823250     A.U. after    7 cycles
 SCF Done:  E(RB3LYP) =  -1036.29823772     A.U. after    7 cycles
 SCF Done:  E(RB3LYP) =  -1036.29822890     A.U. after    9 cycles
 SCF Done:  E(RB3LYP) =  -1036.29823150     A.U. after    9 cycles
 SCF Done:  E(RB3LYP) =  -1036.29823080     A.U. after    9 cycles
 SCF Done:  E(RB3LYP) =  -1036.29822976     A.U. after    9 cycles
 Optimization completed.
    -- Stationary point found.
 Normal termination of Gaussian 16 at Sun Dec  8 19:46:33 2019.

 ----------------------------------------------------------------------
 # freq B3LYP/6-31G* scf=xqc volume NMR pop=NPA density=current Geom=Al
 lCheck Guess=Read
 ----------------------------------------------------------------------

 Structure from the checkpoint file:  "direct_arylation_ligand38_conf32.chk"
 -------------------
 Title Card Required
 -------------------
 Charge =  0 Multiplicity = 1

 SCF Done:  E(RB3LYP) =  -1036.29822976     A.U. after    1 cycles

      1  P    Isotropic =   361.5205   Anisotropy =    39.7165

      2  C    Isotropic =    56.1708   Anisotropy =   179.3902

      3  C    Isotropic =    62.5614   Anisotropy =   174.0959

      4  C    Isotropic =    68.6753   Anisotropy =   163.8958

      5  C    Isotropic =    68.1563   Anisotropy =   167.3568

      6  C    Isotropic =    68.7251   Anisotropy =   164.1336

      7  C    Isotropic =    60.9830   Anisotropy =   164.1311

      8  C    Isotropic =    56.1146   Anisotropy =   179.4529

      9  C    Isotropic =    62.5618   Anisotropy =   174.0734

     10  C    Isotropic =    68.6846   Anisotropy =   163.8864

     11  C    Isotropic =    68.1447   Anisotropy =   167.3400

     12  C    Isotropic =    68.7223   Anisotropy =   164.1231

     13  C    Isotropic =    60.9845   Anisotropy =   164.0840

     14  C    Isotropic =    56.0889   Anisotropy =   179.4752

     15  C    Isotropic =    62.6426   Anisotropy =   174.0453

     16  C    Isotropic =    68.6807   Anisotropy =   163.8899

     17  C    Isotropic =    68.1849   Anisotropy =   167.2578

     18  C    Isotropic =    68.7319   Anisotropy =   164.0942

     19  C    Isotropic =    61.0620   Anisotropy =   164.1890

     20  H    Isotropic =    25.3938   Anisotropy =    12.2259

     21  H    Isotropic =    25.0463   Anisotropy =     6.0862

     22  H    Isotropic =    25.0188   Anisotropy =     3.6418

     23  H    Isotropic =    24.9249   Anisotropy =     4.5884

     24  H    Isotropic =    24.6103   Anisotropy =     9.2471

     25  H    Isotropic =    25.3981   Anisotropy =    12.2168

     26  H    Isotropic =    25.0482   Anisotropy =     6.0859

     27  H    Isotropic =    25.0209   Anisotropy =     3.6410

     28  H    Isotropic =    24.9263   Anisotropy =     4.5876

     29  H    Isotropic =    24.6093   Anisotropy =     9.2491

     30  H    Isotropic =    25.4018   Anisotropy =    12.2481

     31  H    Isotropic =    25.0490   Anisotropy =     6.0870

     32  H    Isotropic =    25.0257   Anisotropy =     3.6307

     33  H    Isotropic =    24.9321   Anisotropy =     4.5842

     34  H    Isotropic =    24.6157   Anisotropy =     9.2652

  Exact polarizability: 224.321  -0.111 223.946   0.043  -0.147 165.059
 Approx polarizability: 331.226  -0.255 330.544   0.096  -0.351 308.063

                      1                      2                      3
                      A                      A                      A
 Frequencies --     21.4716                22.0708                37.7181
 Red. masses --      3.7953                 3.7934                 3.6890
 Frc consts  --      0.0010                 0.0011                 0.0031
 IR Inten    --      0.2835                 0.2808                 0.0019

                      4                      5                      6
                      A                      A                      A
 Frequencies --     53.1208                53.2515                70.5794
 Red. masses --      5.2583                 5.2531                 5.1674
 Frc consts  --      0.0087                 0.0088                 0.0152
 IR Inten    --      0.0816                 0.0862                 0.3099

                      7                      8                      9
                      A                      A                      A
 Frequencies --    181.5273               202.2440               202.6592
 Red. masses --      4.5610                 4.6426                 4.6397
 Frc consts  --      0.0886                 0.1119                 0.1123
 IR Inten    --      0.3521                 1.1355                 1.1377

                     10                     11                     12
                      A                      A                      A
 Frequencies --    245.5502               259.7245               260.0411
 Red. masses --      5.7402                 4.7193                 4.7234
 Frc consts  --      0.2039                 0.1876                 0.1882
 IR Inten    --      0.4836                 0.2219                 0.2249

                     13                     14                     15
                      A                      A                      A
 Frequencies --    408.7408               408.7455               412.3349
 Red. masses --      3.0766                 3.0795                 3.5993
 Frc consts  --      0.3028                 0.3031                 0.3606
 IR Inten    --      1.9587                 1.9637                 0.1605

                     16                     17                     18
                      A                      A                      A
 Frequencies --    417.0266               429.3356               429.5732
 Red. masses --      4.6059                 7.3138                 7.3118
 Frc consts  --      0.4719                 0.7943                 0.7950
 IR Inten    --      0.5614                 7.6782                 7.7213

                     19                     20                     21
                      A                      A                      A
 Frequencies --    509.3791               509.5813               516.2985
 Red. masses --      4.2489                 4.2454                 4.5900
 Frc consts  --      0.6495                 0.6495                 0.7209
 IR Inten    --     26.1026                26.1352                11.9689

                     22                     23                     24
                      A                      A                      A
 Frequencies --    632.7227               632.7404               633.3563
 Red. masses --      6.4270                 6.4273                 6.4368
 Frc consts  --      1.5160                 1.5161                 1.5213
 IR Inten    --      0.1813                 0.1809                 0.0159

                     25                     26                     27
                      A                      A                      A
 Frequencies --    691.8578               705.0715               705.2103
 Red. masses --      6.5803                 5.7075                 5.7084
 Frc consts  --      1.8558                 1.6717                 1.6726
 IR Inten    --      0.7768                 1.1858                 1.2045

                     28                     29                     30
                      A                      A                      A
 Frequencies --    712.2143               712.2757               713.2357
 Red. masses --      2.2012                 2.2024                 2.1347
 Frc consts  --      0.6579                 0.6583                 0.6398
 IR Inten    --     26.3195                26.3952                16.5527

                     31                     32                     33
                      A                      A                      A
 Frequencies --    761.3748               762.8250               762.9185
 Red. masses --      1.6144                 1.6480                 1.6500
 Frc consts  --      0.5514                 0.5650                 0.5658
 IR Inten    --     19.2294                24.9746                24.8266

                     34                     35                     36
                      A                      A                      A
 Frequencies --    866.1578               866.1896               868.7567
 Red. masses --      1.2477                 1.2478                 1.2462
 Frc consts  --      0.5515                 0.5516                 0.5542
 IR Inten    --      0.2274                 0.2266                 0.1336

                     37                     38                     39
                      A                      A                      A
 Frequencies --    932.8435               932.8970               934.2209
 Red. masses --      1.3444                 1.3442                 1.3386
 Frc consts  --      0.6893                 0.6893                 0.6883
 IR Inten    --      1.2636                 1.2639                 0.0281

                     40                     41                     42
                      A                      A                      A
 Frequencies --    975.7932               975.8191               977.6370
 Red. masses --      1.3614                 1.3612                 1.3556
 Frc consts  --      0.7637                 0.7637                 0.7634
 IR Inten    --      0.0154                 0.0183                 0.1401

                     43                     44                     45
                      A                      A                      A
 Frequencies --   1000.3517              1000.3624              1001.1036
 Red. masses --      1.2543                 1.2544                 1.2527
 Frc consts  --      0.7395                 0.7396                 0.7397
 IR Inten    --      0.0774                 0.0779                 0.0001

                     46                     47                     48
                      A                      A                      A
 Frequencies --   1015.3565              1015.3802              1015.7450
 Red. masses --      6.3137                 6.3108                 6.3072
 Frc consts  --      3.8351                 3.8335                 3.8340
 IR Inten    --      4.3305                 4.3691                 0.0633

                     49                     50                     51
                      A                      A                      A
 Frequencies --   1052.6752              1052.7375              1052.9053
 Red. masses --      3.3078                 3.3145                 3.2522
 Frc consts  --      2.1596                 2.1642                 2.1242
 IR Inten    --      2.1121                 2.0929                 0.0427

                     52                     53                     54
                      A                      A                      A
 Frequencies --   1107.7113              1108.0197              1109.4896
 Red. masses --      1.8948                 1.8766                 1.6543
 Frc consts  --      1.3698                 1.3574                 1.1998
 IR Inten    --      4.4393                 4.1084                 2.8958

                     55                     56                     57
                      A                      A                      A
 Frequencies --   1110.7072              1110.8155              1116.1130
 Red. masses --      2.1729                 2.2013                 2.6141
 Frc consts  --      1.5794                 1.6003                 1.9186
 IR Inten    --      9.1476                 9.5998                 1.2250

                     58                     59                     60
                      A                      A                      A
 Frequencies --   1193.4666              1193.8558              1193.9247
 Red. masses --      1.1033                 1.0999                 1.1000
 Frc consts  --      0.9259                 0.9237                 0.9239
 IR Inten    --      0.0017                 0.1336                 0.1286

                     61                     62                     63
                      A                      A                      A
 Frequencies --   1219.0468              1219.4082              1220.8229
 Red. masses --      1.1474                 1.1477                 1.1472
 Frc consts  --      1.0047                 1.0055                 1.0074
 IR Inten    --      6.0343                 6.0838                 0.3383

                     64                     65                     66
                      A                      A                      A
 Frequencies --   1324.9831              1328.6663              1328.7213
 Red. masses --      3.4911                 3.4688                 3.4981
 Frc consts  --      3.6110                 3.6080                 3.6387
 IR Inten    --      2.6353                 2.4523                 2.4301

                     67                     68                     69
                      A                      A                      A
 Frequencies --   1364.9275              1365.2415              1365.5390
 Red. masses --      1.6625                 1.6527                 1.6446
 Frc consts  --      1.8249                 1.8149                 1.8069
 IR Inten    --      0.1632                 0.3926                 2.8320

                     70                     71                     72
                      A                      A                      A
 Frequencies --   1480.4836              1480.9525              1480.9749
 Red. masses --      2.1109                 2.1158                 2.1156
 Frc consts  --      2.7261                 2.7341                 2.7339
 IR Inten    --     16.5681                 6.7323                 6.5461

                     73                     74                     75
                      A                      A                      A
 Frequencies --   1531.0130              1531.4364              1531.5889
 Red. masses --      2.0154                 1.9996                 1.9980
 Frc consts  --      2.7834                 2.7630                 2.7614
 IR Inten    --      2.0002                10.1545                10.1420

                     76                     77                     78
                      A                      A                      A
 Frequencies --   1630.1446              1630.4162              1630.4356
 Red. masses --      5.1014                 5.1148                 5.1131
 Frc consts  --      7.9871                 8.0108                 8.0083
 IR Inten    --      0.3960                 0.0474                 0.0445

                     79                     80                     81
                      A                      A                      A
 Frequencies --   1646.1224              1646.1614              1647.9354
 Red. masses --      5.2731                 5.2709                 5.2833
 Frc consts  --      8.4186                 8.4154                 8.4535
 IR Inten    --      3.5402                 3.4787                 0.3209

                     82                     83                     84
                      A                      A                      A
 Frequencies --   3175.9943              3176.0301              3176.0482
 Red. masses --      1.0854                 1.0854                 1.0854
 Frc consts  --      6.4506                 6.4506                 6.4505
 IR Inten    --      2.2219                 2.0195                 1.8394

                     85                     86                     87
                      A                      A                      A
 Frequencies --   3182.5980              3182.6084              3182.6793
 Red. masses --      1.0875                 1.0875                 1.0876
 Frc consts  --      6.4899                 6.4898                 6.4908
 IR Inten    --      0.7598                 0.7542                 0.1109

                     88                     89                     90
                      A                      A                      A
 Frequencies --   3192.8132              3192.8200              3192.9426
 Red. masses --      1.0916                 1.0916                 1.0917
 Frc consts  --      6.5565                 6.5566                 6.5576
 IR Inten    --     10.0858                10.2604                47.9285

                     91                     92                     93
                      A                      A                      A
 Frequencies --   3203.9070              3203.9618              3204.3193
 Red. masses --      1.0941                 1.0942                 1.0943
 Frc consts  --      6.6173                 6.6178                 6.6198
 IR Inten    --     41.9025                41.8745                 4.3892

                     94                     95                     96
                      A                      A                      A
 Frequencies --   3210.1163              3210.1974              3211.0388
 Red. masses --      1.0956                 1.0955                 1.0956
 Frc consts  --      6.6520                 6.6518                 6.6555
 IR Inten    --     19.7531                19.2844                16.3588

 - Thermochemistry -
 -------------------
 Temperature   298.150 Kelvin.  Pressure   1.00000 Atm.
 Atom     1 has atomic number 15 and mass  30.97376

 Molecular mass:   262.09114 amu.
 Principal axes and moments of inertia in atomic units:
                           1         2         3
     Eigenvalues --  5159.622075166.874028681.16546
           X            0.99986  -0.01691   0.00002
           Y            0.01691   0.99986  -0.00004
           Z           -0.00002   0.00004   1.00000
 This molecule is an asymmetric top.
 Rotational symmetry number  1.
 Warning -- assumption of classical behavior for rotation
           may cause significant error
 Rotational temperatures (Kelvin)      0.01679     0.01676     0.00998
 Rotational constants (GHZ):           0.34978     0.34929     0.20789
 Zero-point vibrational energy     719918.1 (Joules/Mol)
                                  172.06456 (Kcal/Mol)
 Warning -- explicit consideration of  21 degrees of freedom as
           vibrations may cause significant error
 Vibrational temperatures:     30.89    31.75    54.27    76.43    76.62
          (Kelvin)            101.55   261.18   290.98   291.58   353.29
                              373.69   374.14   588.09   588.09   593.26
                              600.01   617.72   618.06   732.88   733.17
                              742.84   910.35   910.37   911.26   995.43
                             1014.44  1014.64  1024.72  1024.81  1026.19
                             1095.45  1097.54  1097.67  1246.21  1246.25
                             1249.95  1342.15  1342.23  1344.14  1403.95
                             1403.99  1406.60  1439.28  1439.30  1440.36
                             1460.87  1460.91  1461.43  1514.56  1514.65
                             1514.90  1593.75  1594.19  1596.31  1598.06
                             1598.22  1605.84  1717.13  1717.69  1717.79
                             1753.94  1754.46  1756.49  1906.36  1911.65
                             1911.73  1963.83  1964.28  1964.71  2130.09
                             2130.76  2130.79  2202.79  2203.40  2203.61
                             2345.41  2345.81  2345.83  2368.40  2368.46
                             2371.01  4569.55  4569.60  4569.63  4579.05
                             4579.06  4579.17  4593.75  4593.76  4593.93
                             4609.71  4609.79  4610.30  4618.64  4618.76
                             4619.97

 Zero-point correction=                           0.274202 (Hartree/Particle)
 Thermal correction to Energy=                    0.290133
 Thermal correction to Enthalpy=                  0.291078
 Thermal correction to Gibbs Free Energy=         0.227596
 Sum of electronic and zero-point Energies=          -1036.024027
 Sum of electronic and thermal Energies=             -1036.008096
 Sum of electronic and thermal Enthalpies=           -1036.007152
 Sum of electronic and thermal Free Energies=        -1036.070634

                     E (Thermal)             CV                S
                      KCal/Mol        Cal/Mol-Kelvin    Cal/Mol-Kelvin
 Total                  182.061             62.541            133.608
 Electronic               0.000              0.000              0.000
 Translational            0.889              2.981             42.590
 Rotational               0.889              2.981             33.803
 Vibrational            180.284             56.579             57.215
 Vibration     1          0.593              1.985              6.493
 Vibration     2          0.593              1.985              6.439
 Vibration     3          0.594              1.982              5.375
 Vibration     4          0.596              1.976              4.698
 Vibration     5          0.596              1.976              4.693
 Vibration     6          0.598              1.968              4.137
 Vibration     7          0.630              1.865              2.313
 Vibration     8          0.639              1.837              2.113
 Vibration     9          0.639              1.836              2.109
 Vibration    10          0.660              1.770              1.762
 Vibration    11          0.668              1.746              1.664
 Vibration    12          0.668              1.746              1.661
 Vibration    13          0.773              1.451              0.931
 Vibration    14          0.773              1.451              0.931
 Vibration    15          0.776              1.443              0.918
 Vibration    16          0.780              1.433              0.902
 Vibration    17          0.791              1.406              0.861
 Vibration    18          0.791              1.406              0.860
 Vibration    19          0.865              1.229              0.635
 Vibration    20          0.865              1.229              0.635
 Vibration    21          0.871              1.214              0.619

                           ! Non-Optimized Parameters !
 Normal termination of Gaussian 16 at Sun Dec  8 20:02:00 2019.
 Gaussian 16:  ES64L-G16RevA.03 25-Dec-2016

 ----------------------------------------------------------------------
 # TD(NStates=10, Root=1) B3LYP/6-31G* scf=xqc volume pop=NPA density=c
 urrent Geom=AllCheck Guess=Read
 ----------------------------------------------------------------------

 Structure from the checkpoint file:  "direct_arylation_ligand38_conf33.chk"
 -------------------
 Title Card Required
 -------------------
 Charge =  0 Multiplicity = 1

                         Standard orientation:
 ---------------------------------------------------------------------
 Center     Atomic      Atomic             Coordinates (Angstroms)
 Number     Number       Type             X           Y           Z
 ---------------------------------------------------------------------
      1         15           0       -0.000816   -0.000511    1.206358
      2          6           0       -1.649528   -0.271403    0.402610
      3          6           0       -1.855037   -1.029566   -0.760156
      4          6           0       -3.139821   -1.199072   -1.280931
      5          6           0       -4.237777   -0.610580   -0.651452
      6          6           0       -4.047207    0.144189    0.507943
      7          6           0       -2.765482    0.303577    1.034145
      8          6           0        1.058701   -1.292001    0.401851
      9          6           0        1.816752   -1.090197   -0.761671
     10          6           0        2.606633   -2.117375   -1.282835
     11          6           0        2.648038   -3.362216   -0.652914
     12          6           0        1.900435   -3.575145    0.507232
     13          6           0        1.120718   -2.545606    1.033719
     14          6           0        0.589456    1.562886    0.403133
     15          6           0        0.030069    2.125312   -0.754367
     16          6           0        0.526692    3.322424   -1.274949
     17          6           0        1.591721    3.973383   -0.650525
     18          6           0        2.155386    3.425757    0.503884
     19          6           0        1.651592    2.236459    1.030020
     20          1           0       -1.009208   -1.493067   -1.258976
     21          1           0       -3.281462   -1.791867   -2.181202
     22          1           0       -5.236882   -0.744560   -1.057815
     23          1           0       -4.897598    0.599847    1.008676
     24          1           0       -2.627637    0.876644    1.948340
     25          1           0        1.793764   -0.125988   -1.260535
     26          1           0        3.189863   -1.943286   -2.183661
     27          1           0        3.264283   -4.159832   -1.059535
     28          1           0        1.932759   -4.539206    1.008301
     29          1           0        0.556517   -2.712860    1.948543
     30          1           0       -0.799399    1.629252   -1.249290
     31          1           0        0.079873    3.745590   -2.171190
     32          1           0        1.976119    4.905291   -1.056820
     33          1           0        2.980104    3.930115    1.000865
     34          1           0        2.083092    1.826639    1.940513
 ---------------------------------------------------------------------

 SCF Done:  E(RB3LYP) =  -1036.29822976     A.U. after    2 cycles

 Excitation energies and oscillator strengths:

 Excited State   1:      Singlet-A      4.5083 eV  275.01 nm  f=0.1272  <S**2>=0.000
      69 -> 70         0.69701
 This state for optimization and/or second-order correction.
 Total Energy, E(TD-HF/TD-DFT) =  -1036.13255125
 Copying the excited state density for this state as the 1-particle RhoCI density.

 Excited State   2:      Singlet-A      4.5120 eV  274.79 nm  f=0.1286  <S**2>=0.000
      69 -> 71         0.69695

 Excited State   3:      Singlet-A      4.7570 eV  260.64 nm  f=0.0022  <S**2>=0.000
      67 -> 70         0.12357
      68 -> 71        -0.12446
      69 -> 72         0.67467

 Excited State   4:      Singlet-A      5.0571 eV  245.17 nm  f=0.0002  <S**2>=0.000
      66 -> 70        -0.16705
      67 -> 71         0.13264
      68 -> 70        -0.13258
      69 -> 74         0.63086

 Excited State   5:      Singlet-A      5.0586 eV  245.10 nm  f=0.0002  <S**2>=0.000
      66 -> 71         0.16811
      67 -> 70        -0.13400
      68 -> 71        -0.13358
      69 -> 75         0.62977

 Excited State   6:      Singlet-A      5.1507 eV  240.71 nm  f=0.0085  <S**2>=0.000
      69 -> 73         0.67903

 Excited State   7:      Singlet-A      5.4274 eV  228.44 nm  f=0.0147  <S**2>=0.000
      63 -> 72        -0.16604
      64 -> 74         0.13943
      65 -> 75         0.13562
      67 -> 70         0.42627
      68 -> 71        -0.41536
      69 -> 72        -0.16511

 Excited State   8:      Singlet-A      5.5134 eV  224.88 nm  f=0.0005  <S**2>=0.000
      63 -> 74         0.14354
      64 -> 70         0.12283
      64 -> 72        -0.21363
      65 -> 71         0.12201
      65 -> 72         0.18484
      66 -> 70         0.22695
      67 -> 71        -0.25576
      68 -> 70         0.26483
      68 -> 72         0.16252
      69 -> 74         0.28627

 Excited State   9:      Singlet-A      5.5154 eV  224.80 nm  f=0.0004  <S**2>=0.000
      63 -> 75         0.14424
      64 -> 71         0.11688
      64 -> 72        -0.18523
      65 -> 70        -0.12115
      65 -> 72        -0.21389
      66 -> 71        -0.22459
      67 -> 70         0.25306
      67 -> 72        -0.16376
      68 -> 71         0.27075
      69 -> 75         0.28783

 Excited State  10:      Singlet-A      5.6180 eV  220.69 nm  f=0.0009  <S**2>=0.000
      67 -> 71         0.47349
      68 -> 70         0.48944

 The electronic state is 1-A.
 Alpha  occ. eigenvalues --  -77.08113 -10.19449 -10.19447 -10.19446 -10.19149
 Alpha  occ. eigenvalues --  -10.19148 -10.19141 -10.19120 -10.19118 -10.19114
 Alpha  occ. eigenvalues --  -10.19033 -10.19032 -10.19026 -10.19009 -10.19008
 Alpha  occ. eigenvalues --  -10.19004 -10.18964 -10.18964 -10.18957  -6.54844
 Alpha  occ. eigenvalues --   -4.71103  -4.71103  -4.70601  -0.85560  -0.84847
 Alpha  occ. eigenvalues --   -0.84844  -0.76669  -0.74366  -0.74365  -0.74329
 Alpha  occ. eigenvalues --   -0.73822  -0.73820  -0.64436  -0.60336  -0.60308
 Alpha  occ. eigenvalues --   -0.60305  -0.59208  -0.59206  -0.55449  -0.51436
 Alpha  occ. eigenvalues --   -0.51434  -0.49295  -0.45441  -0.45438  -0.44774
 Alpha  occ. eigenvalues --   -0.44345  -0.44344  -0.44067  -0.41946  -0.41869
 Alpha  occ. eigenvalues --   -0.41866  -0.40381  -0.40375  -0.36844  -0.36354
 Alpha  occ. eigenvalues --   -0.36348  -0.35899  -0.34252  -0.34251  -0.34224
 Alpha  occ. eigenvalues --   -0.31886  -0.31883  -0.26777  -0.25452  -0.25443
 Alpha  occ. eigenvalues --   -0.25243  -0.24705  -0.24703  -0.21144
 Alpha virt. eigenvalues --   -0.01884  -0.01875  -0.00830   0.00173   0.00424
 Alpha virt. eigenvalues --    0.00433   0.06876   0.06893   0.09492   0.11037
 Alpha virt. eigenvalues --    0.11040   0.13903   0.14528   0.14530   0.15164

 Mulliken charges:
               1
     1  P    0.450651
     2  C   -0.128437
     3  C   -0.165157
     4  C   -0.122417
     5  C   -0.160120
     6  C   -0.118869
     7  C   -0.176238
     8  C   -0.110845
     9  C   -0.172492
    10  C   -0.115488
    11  C   -0.155338
    12  C   -0.125633
    13  C   -0.158804
    14  C   -0.081853
    15  C   -0.148069
    16  C   -0.120098
    17  C   -0.120739
    18  C   -0.118567
    19  C   -0.157168
    20  H    0.143881
    21  H    0.122545
    22  H    0.114250
    23  H    0.117833
    24  H    0.116985
    25  H    0.129013
    26  H    0.124802
    27  H    0.118498
    28  H    0.122497
    29  H    0.127054
    30  H    0.177925
    31  H    0.148330
    32  H    0.147810
    33  H    0.144208
    34  H    0.150051
 Sum of Mulliken charges =  -0.00000

 Dipole moment (field-independent basis, Debye):
    X=              1.7387    Y=              3.3447    Z=              0.1975  Tot=              3.7748
 Quadrupole moment (field-independent basis, Debye-Ang):
   XX=           -119.1291   YY=           -107.9340   ZZ=           -110.6688
   XY=              4.2140   XZ=              0.2083   YZ=             -1.3576

 Summary of Natural Population Analysis:

                                       Natural Population
                Natural  -----------------------------------------------
    Atom  No    Charge         Core      Valence    Rydberg      Total
 -----------------------------------------------------------------------
      P    1    1.24223      9.99750     3.71002    0.05025    13.75777
      C    2   -0.47448      1.99887     4.44939    0.02622     6.47448
      C    3   -0.23947      1.99899     4.22286    0.01762     6.23947
      C    4   -0.23622      1.99909     4.22248    0.01465     6.23622
      C    5   -0.27935      1.99909     4.26402    0.01624     6.27935
      C    6   -0.23726      1.99910     4.22347    0.01470     6.23726
      C    7   -0.23880      1.99902     4.22348    0.01630     6.23880
      C    8   -0.44455      1.99887     4.42136    0.02433     6.44455
      C    9   -0.25949      1.99899     4.24281    0.01769     6.25949
      C   10   -0.22355      1.99909     4.21016    0.01430     6.22355
      C   11   -0.26945      1.99909     4.25445    0.01590     6.26945
      C   12   -0.24895      1.99910     4.23479    0.01506     6.24895
      C   13   -0.21225      1.99901     4.19744    0.01579     6.21225
      C   14   -0.37764      1.99891     4.35377    0.02496     6.37764
      C   15   -0.20399      1.99900     4.18892    0.01607     6.20399
      C   16   -0.23025      1.99909     4.21710    0.01406     6.23025
      C   17   -0.19577      1.99909     4.18300    0.01368     6.19577
      C   18   -0.23445      1.99910     4.22115    0.01421     6.23445
      C   19   -0.20317      1.99902     4.18903    0.01512     6.20317
      H   20    0.24323      0.00000     0.75519    0.00157     0.75677
      H   21    0.23447      0.00000     0.76465    0.00089     0.76553
      H   22    0.22827      0.00000     0.77082    0.00091     0.77173
      H   23    0.23123      0.00000     0.76782    0.00095     0.76877
      H   24    0.22494      0.00000     0.77410    0.00096     0.77506
      H   25    0.23543      0.00000     0.76321    0.00135     0.76457
      H   26    0.23536      0.00000     0.76376    0.00088     0.76464
      H   27    0.23021      0.00000     0.76890    0.00089     0.76979
      H   28    0.23410      0.00000     0.76502    0.00088     0.76590
      H   29    0.23160      0.00000     0.76724    0.00116     0.76840
      H   30    0.26252      0.00000     0.73628    0.00120     0.73748
      H   31    0.24634      0.00000     0.75280    0.00086     0.75366
      H   32    0.24278      0.00000     0.75640    0.00082     0.75722
      H   33    0.24374      0.00000     0.75536    0.00089     0.75626
      H   34    0.24262      0.00000     0.75618    0.00120     0.75738
 =======================================================================
   * Total *   -0.00000     45.98001    91.64742    0.37257   138.00000

 Normal termination of Gaussian 16 at Sun Dec  8 20:16:38 2019.
