 Gaussian 16, Revision A.03,

 -----------------------------------------
 # opt=CalcFc B3LYP/6-31G* scf=xqc scf=xqc
 -----------------------------------------

 -------------------
 Title Card Required
 -------------------
 Symbolic Z-matrix:
 Charge =  0 Multiplicity = 1

 SCF Done:  E(RB3LYP) =  -1036.28584692     A.U. after   14 cycles
 SCF Done:  E(RB3LYP) =  -1036.29533608     A.U. after   15 cycles
 SCF Done:  E(RB3LYP) =  -1036.28815302     A.U. after   13 cycles
 SCF Done:  E(RB3LYP) =  -1036.29473928     A.U. after   14 cycles
 SCF Done:  E(RB3LYP) =  -1036.29602100     A.U. after   11 cycles
 SCF Done:  E(RB3LYP) =  -1036.29624926     A.U. after   11 cycles
 SCF Done:  E(RB3LYP) =  -1036.29629331     A.U. after   11 cycles
 SCF Done:  E(RB3LYP) =  -1036.29631300     A.U. after   10 cycles
 SCF Done:  E(RB3LYP) =  -1036.29633832     A.U. after   11 cycles
 SCF Done:  E(RB3LYP) =  -1036.29636369     A.U. after   11 cycles
 SCF Done:  E(RB3LYP) =  -1036.29823117     A.U. after    9 cycles
 SCF Done:  E(RB3LYP) =  -1036.29823723     A.U. after    8 cycles
 SCF Done:  E(RB3LYP) =  -1036.29823414     A.U. after    9 cycles
 SCF Done:  E(RB3LYP) =  -1036.29823823     A.U. after    9 cycles
 SCF Done:  E(RB3LYP) =  -1036.29817619     A.U. after   11 cycles
 SCF Done:  E(RB3LYP) =  -1036.29822121     A.U. after   11 cycles
 SCF Done:  E(RB3LYP) =  -1036.29823079     A.U. after   11 cycles
 SCF Done:  E(RB3LYP) =  -1036.29823104     A.U. after    8 cycles
 Optimization completed.
    -- Stationary point found.
 Normal termination of Gaussian 16 at Sun Dec  8 19:54:22 2019.

 ----------------------------------------------------------------------
 # freq B3LYP/6-31G* scf=xqc volume NMR pop=NPA density=current Geom=Al
 lCheck Guess=Read
 ----------------------------------------------------------------------

 Structure from the checkpoint file:  "direct_arylation_ligand38_conf262.chk"
 -------------------
 Title Card Required
 -------------------
 Charge =  0 Multiplicity = 1

 SCF Done:  E(RB3LYP) =  -1036.29823104     A.U. after    1 cycles

      1  P    Isotropic =   361.5253   Anisotropy =    39.9283

      2  C    Isotropic =    56.1381   Anisotropy =   179.4243

      3  C    Isotropic =    61.0216   Anisotropy =   164.1317

      4  C    Isotropic =    68.7331   Anisotropy =   164.1251

      5  C    Isotropic =    68.1657   Anisotropy =   167.3107

      6  C    Isotropic =    68.6844   Anisotropy =   163.8882

      7  C    Isotropic =    62.6013   Anisotropy =   174.0585

      8  C    Isotropic =    56.1366   Anisotropy =   179.4261

      9  C    Isotropic =    62.5516   Anisotropy =   174.0651

     10  C    Isotropic =    68.6673   Anisotropy =   163.8833

     11  C    Isotropic =    68.1597   Anisotropy =   167.3568

     12  C    Isotropic =    68.7330   Anisotropy =   164.1476

     13  C    Isotropic =    60.9995   Anisotropy =   164.0787

     14  C    Isotropic =    56.0970   Anisotropy =   179.4256

     15  C    Isotropic =    61.0199   Anisotropy =   164.1097

     16  C    Isotropic =    68.7277   Anisotropy =   164.1566

     17  C    Isotropic =    68.1683   Anisotropy =   167.3404

     18  C    Isotropic =    68.6759   Anisotropy =   163.8750

     19  C    Isotropic =    62.5876   Anisotropy =   173.9986

     20  H    Isotropic =    24.6132   Anisotropy =     9.2537

     21  H    Isotropic =    24.9277   Anisotropy =     4.5880

     22  H    Isotropic =    25.0217   Anisotropy =     3.6412

     23  H    Isotropic =    25.0484   Anisotropy =     6.0857

     24  H    Isotropic =    25.4029   Anisotropy =    12.2285

     25  H    Isotropic =    25.3983   Anisotropy =    12.2212

     26  H    Isotropic =    25.0474   Anisotropy =     6.0870

     27  H    Isotropic =    25.0183   Anisotropy =     3.6447

     28  H    Isotropic =    24.9262   Anisotropy =     4.5876

     29  H    Isotropic =    24.6123   Anisotropy =     9.2432

     30  H    Isotropic =    24.6140   Anisotropy =     9.2523

     31  H    Isotropic =    24.9252   Anisotropy =     4.5924

     32  H    Isotropic =    25.0189   Anisotropy =     3.6456

     33  H    Isotropic =    25.0489   Anisotropy =     6.0850

     34  H    Isotropic =    25.4042   Anisotropy =    12.2204

  Exact polarizability: 224.135   0.054 224.087  -0.058  -0.002 165.091
 Approx polarizability: 330.879   0.134 330.809  -0.136  -0.010 308.137

                      1                      2                      3
                      A                      A                      A
 Frequencies --     22.5873                23.5578                38.3550
 Red. masses --      3.7974                 3.7992                 3.6890
 Frc consts  --      0.0011                 0.0012                 0.0032
 IR Inten    --      0.2820                 0.2824                 0.0014

                      4                      5                      6
                      A                      A                      A
 Frequencies --     53.3086                53.4390                70.5983
 Red. masses --      5.2519                 5.2497                 5.1678
 Frc consts  --      0.0088                 0.0088                 0.0152
 IR Inten    --      0.0854                 0.0845                 0.3093

                      7                      8                      9
                      A                      A                      A
 Frequencies --    181.4040               202.3889               202.6841
 Red. masses --      4.5610                 4.6437                 4.6425
 Frc consts  --      0.0884                 0.1121                 0.1124
 IR Inten    --      0.3532                 1.1358                 1.1405

                     10                     11                     12
                      A                      A                      A
 Frequencies --    245.5382               259.7223               259.9031
 Red. masses --      5.7387                 4.7204                 4.7205
 Frc consts  --      0.2038                 0.1876                 0.1879
 IR Inten    --      0.4825                 0.2256                 0.2244

                     13                     14                     15
                      A                      A                      A
 Frequencies --    408.7926               408.8791               412.3815
 Red. masses --      3.0798                 3.0797                 3.5911
 Frc consts  --      0.3032                 0.3034                 0.3598
 IR Inten    --      1.9720                 1.9658                 0.1589

                     16                     17                     18
                      A                      A                      A
 Frequencies --    417.0972               429.3617               429.4814
 Red. masses --      4.6194                 7.3072                 7.3063
 Frc consts  --      0.4735                 0.7937                 0.7940
 IR Inten    --      0.5633                 7.6952                 7.7046

                     19                     20                     21
                      A                      A                      A
 Frequencies --    509.3515               509.5424               516.3078
 Red. masses --      4.2481                 4.2435                 4.5891
 Frc consts  --      0.6493                 0.6491                 0.7208
 IR Inten    --     26.1223                26.1067                11.9673

                     22                     23                     24
                      A                      A                      A
 Frequencies --    632.7156               632.7386               633.3606
 Red. masses --      6.4271                 6.4272                 6.4369
 Frc consts  --      1.5159                 1.5161                 1.5214
 IR Inten    --      0.1806                 0.1799                 0.0162

                     25                     26                     27
                      A                      A                      A
 Frequencies --    691.8435               705.1085               705.1986
 Red. masses --      6.5813                 5.7463                 5.7331
 Frc consts  --      1.8560                 1.6833                 1.6798
 IR Inten    --      0.7744                 1.1783                 1.1421

                     28                     29                     30
                      A                      A                      A
 Frequencies --    712.2175               712.2987               713.2750
 Red. masses --      2.1959                 2.2002                 2.1341
 Frc consts  --      0.6563                 0.6577                 0.6397
 IR Inten    --     26.3841                26.3841                16.5866

                     31                     32                     33
                      A                      A                      A
 Frequencies --    761.4040               762.8807               762.9443
 Red. masses --      1.6154                 1.6480                 1.6484
 Frc consts  --      0.5518                 0.5651                 0.5653
 IR Inten    --     19.1794                24.9914                24.8809

                     34                     35                     36
                      A                      A                      A
 Frequencies --    866.1238               866.2470               868.7534
 Red. masses --      1.2478                 1.2477                 1.2462
 Frc consts  --      0.5515                 0.5516                 0.5542
 IR Inten    --      0.2260                 0.2242                 0.1328

                     37                     38                     39
                      A                      A                      A
 Frequencies --    932.8342               933.0495               934.2145
 Red. masses --      1.3444                 1.3441                 1.3386
 Frc consts  --      0.6893                 0.6894                 0.6883
 IR Inten    --      1.2570                 1.2768                 0.0343

                     40                     41                     42
                      A                      A                      A
 Frequencies --    975.7365               975.8715               977.6406
 Red. masses --      1.3614                 1.3612                 1.3556
 Frc consts  --      0.7637                 0.7637                 0.7634
 IR Inten    --      0.0158                 0.0169                 0.1413

                     43                     44                     45
                      A                      A                      A
 Frequencies --   1000.3278              1000.4233              1001.1023
 Red. masses --      1.2544                 1.2542                 1.2526
 Frc consts  --      0.7396                 0.7396                 0.7396
 IR Inten    --      0.0778                 0.0834                 0.0006

                     46                     47                     48
                      A                      A                      A
 Frequencies --   1015.3493              1015.3763              1015.7561
 Red. masses --      6.3104                 6.3108                 6.3094
 Frc consts  --      3.8330                 3.8334                 3.8355
 IR Inten    --      4.3633                 4.3583                 0.0557

                     49                     50                     51
                      A                      A                      A
 Frequencies --   1052.7007              1052.7275              1052.9259
 Red. masses --      3.3143                 3.3156                 3.2530
 Frc consts  --      2.1640                 2.1649                 2.1249
 IR Inten    --      2.0871                 2.0862                 0.0401

                     52                     53                     54
                      A                      A                      A
 Frequencies --   1107.8593              1108.0354              1109.4532
 Red. masses --      1.8853                 1.8718                 1.6544
 Frc consts  --      1.3633                 1.3540                 1.1998
 IR Inten    --      4.2767                 4.0567                 2.8963

                     55                     56                     57
                      A                      A                      A
 Frequencies --   1110.7181              1110.8160              1116.0158
 Red. masses --      2.1972                 2.1964                 2.6129
 Frc consts  --      1.5971                 1.5968                 1.9174
 IR Inten    --      9.5172                 9.4314                 1.2048

                     58                     59                     60
                      A                      A                      A
 Frequencies --   1193.4891              1193.9109              1193.9310
 Red. masses --      1.1034                 1.1000                 1.1001
 Frc consts  --      0.9260                 0.9239                 0.9239
 IR Inten    --      0.0012                 0.1304                 0.1284

                     61                     62                     63
                      A                      A                      A
 Frequencies --   1219.2595              1219.3631              1220.7987
 Red. masses --      1.1476                 1.1476                 1.1473
 Frc consts  --      1.0052                 1.0054                 1.0074
 IR Inten    --      6.0342                 6.0701                 0.3437

                     64                     65                     66
                      A                      A                      A
 Frequencies --   1324.9778              1328.6552              1328.8221
 Red. masses --      3.4866                 3.4853                 3.4976
 Frc consts  --      3.6064                 3.6250                 3.6388
 IR Inten    --      2.6414                 2.4320                 2.4472

                     67                     68                     69
                      A                      A                      A
 Frequencies --   1365.1848              1365.2636              1365.5781
 Red. masses --      1.6570                 1.6533                 1.6460
 Frc consts  --      1.8195                 1.8156                 1.8084
 IR Inten    --      0.2530                 0.2143                 2.9204

                     70                     71                     72
                      A                      A                      A
 Frequencies --   1480.4982              1480.9378              1481.0147
 Red. masses --      2.1105                 2.1151                 2.1157
 Frc consts  --      2.7255                 2.7331                 2.7342
 IR Inten    --     16.6480                 6.6152                 6.5866

                     73                     74                     75
                      A                      A                      A
 Frequencies --   1531.0943              1531.5891              1531.6277
 Red. masses --      2.0153                 1.9985                 1.9982
 Frc consts  --      2.7836                 2.7620                 2.7618
 IR Inten    --      2.0304                10.1410                10.1294

                     76                     77                     78
                      A                      A                      A
 Frequencies --   1630.1596              1630.4270              1630.4655
 Red. masses --      5.1007                 5.1119                 5.1126
 Frc consts  --      7.9862                 8.0064                 8.0078
 IR Inten    --      0.3969                 0.0475                 0.0445

                     79                     80                     81
                      A                      A                      A
 Frequencies --   1646.1541              1646.1772              1647.9671
 Red. masses --      5.2710                 5.2707                 5.2825
 Frc consts  --      8.4157                 8.4154                 8.4525
 IR Inten    --      3.4975                 3.5237                 0.3201

                     82                     83                     84
                      A                      A                      A
 Frequencies --   3176.0993              3176.1149              3176.1372
 Red. masses --      1.0854                 1.0853                 1.0853
 Frc consts  --      6.4507                 6.4507                 6.4509
 IR Inten    --      2.2780                 1.8666                 1.8672

                     85                     86                     87
                      A                      A                      A
 Frequencies --   3182.6311              3182.6586              3182.7401
 Red. masses --      1.0875                 1.0875                 1.0876
 Frc consts  --      6.4901                 6.4903                 6.4910
 IR Inten    --      0.7983                 0.6712                 0.2273

                     88                     89                     90
                      A                      A                      A
 Frequencies --   3192.8272              3192.8500              3192.9754
 Red. masses --      1.0916                 1.0916                 1.0917
 Frc consts  --      6.5566                 6.5567                 6.5578
 IR Inten    --     10.2525                10.6872                47.1133

                     91                     92                     93
                      A                      A                      A
 Frequencies --   3203.8668              3203.9185              3204.3059
 Red. masses --      1.0941                 1.0941                 1.0942
 Frc consts  --      6.6169                 6.6171                 6.6195
 IR Inten    --     41.3057                40.9091                 4.8430

                     94                     95                     96
                      A                      A                      A
 Frequencies --   3210.0246              3210.0694              3210.9684
 Red. masses --      1.0957                 1.0957                 1.0956
 Frc consts  --      6.6522                 6.6522                 6.6556
 IR Inten    --     20.2938                20.1261                16.2831

 - Thermochemistry -
 -------------------
 Temperature   298.150 Kelvin.  Pressure   1.00000 Atm.
 Atom     1 has atomic number 15 and mass  30.97376

 Molecular mass:   262.09114 amu.
 Principal axes and moments of inertia in atomic units:
                           1         2         3
     Eigenvalues --  5162.459075164.029278680.55335
           X            0.99923   0.03929  -0.00001
           Y           -0.03929   0.99923  -0.00000
           Z            0.00001   0.00000   1.00000
 This molecule is an asymmetric top.
 Rotational symmetry number  1.
 Warning -- assumption of classical behavior for rotation
           may cause significant error
 Rotational temperatures (Kelvin)      0.01678     0.01677     0.00998
 Rotational constants (GHZ):           0.34959     0.34948     0.20791
 Zero-point vibrational energy     719950.1 (Joules/Mol)
                                  172.07221 (Kcal/Mol)
 Warning -- explicit consideration of  21 degrees of freedom as
           vibrations may cause significant error
 Vibrational temperatures:     32.50    33.89    55.18    76.70    76.89
          (Kelvin)            101.58   261.00   291.19   291.62   353.27
                              373.68   373.94   588.16   588.29   593.32
                              600.11   617.76   617.93   732.84   733.12
                              742.85   910.34   910.37   911.26   995.41
                             1014.49  1014.62  1024.72  1024.84  1026.24
                             1095.49  1097.62  1097.71  1246.16  1246.34
                             1249.94  1342.14  1342.45  1344.13  1403.87
                             1404.06  1406.61  1439.25  1439.39  1440.36
                             1460.86  1460.90  1461.45  1514.60  1514.64
                             1514.93  1593.96  1594.22  1596.26  1598.08
                             1598.22  1605.70  1717.16  1717.77  1717.80
                             1754.24  1754.39  1756.46  1906.35  1911.64
                             1911.88  1964.20  1964.31  1964.76  2130.11
                             2130.74  2130.85  2202.90  2203.62  2203.67
                             2345.44  2345.82  2345.88  2368.45  2368.48
                             2371.06  4569.70  4569.72  4569.75  4579.10
                             4579.14  4579.25  4593.77  4593.80  4593.98
                             4609.65  4609.72  4610.28  4618.51  4618.57
                             4619.87

 Zero-point correction=                           0.274215 (Hartree/Particle)
 Thermal correction to Energy=                    0.290138
 Thermal correction to Enthalpy=                  0.291082
 Thermal correction to Gibbs Free Energy=         0.227732
 Sum of electronic and zero-point Energies=          -1036.024017
 Sum of electronic and thermal Energies=             -1036.008094
 Sum of electronic and thermal Enthalpies=           -1036.007149
 Sum of electronic and thermal Free Energies=        -1036.070499

                     E (Thermal)             CV                S
                      KCal/Mol        Cal/Mol-Kelvin    Cal/Mol-Kelvin
 Total                  182.064             62.539            133.330
 Electronic               0.000              0.000              0.000
 Translational            0.889              2.981             42.590
 Rotational               0.889              2.981             33.803
 Vibrational            180.287             56.577             56.937
 Vibration     1          0.593              1.985              6.393
 Vibration     2          0.593              1.985              6.309
 Vibration     3          0.594              1.982              5.342
 Vibration     4          0.596              1.976              4.691
 Vibration     5          0.596              1.976              4.686
 Vibration     6          0.598              1.968              4.137
 Vibration     7          0.630              1.865              2.314
 Vibration     8          0.639              1.837              2.111
 Vibration     9          0.639              1.836              2.109
 Vibration    10          0.660              1.770              1.762
 Vibration    11          0.668              1.746              1.664
 Vibration    12          0.668              1.746              1.662
 Vibration    13          0.773              1.451              0.931
 Vibration    14          0.773              1.451              0.931
 Vibration    15          0.776              1.443              0.918
 Vibration    16          0.780              1.433              0.902
 Vibration    17          0.791              1.406              0.861
 Vibration    18          0.791              1.406              0.860
 Vibration    19          0.864              1.229              0.635
 Vibration    20          0.865              1.229              0.635
 Vibration    21          0.871              1.214              0.619

                           ! Non-Optimized Parameters !
 Normal termination of Gaussian 16 at Sun Dec  8 20:08:58 2019.
 Gaussian 16:  ES64L-G16RevA.03 25-Dec-2016

 ----------------------------------------------------------------------
 # TD(NStates=10, Root=1) B3LYP/6-31G* scf=xqc volume pop=NPA density=c
 urrent Geom=AllCheck Guess=Read
 ----------------------------------------------------------------------

 Structure from the checkpoint file:  "direct_arylation_ligand38_conf263.chk"
 -------------------
 Title Card Required
 -------------------
 Charge =  0 Multiplicity = 1

                         Standard orientation:
 ---------------------------------------------------------------------
 Center     Atomic      Atomic             Coordinates (Angstroms)
 Number     Number       Type             X           Y           Z
 ---------------------------------------------------------------------
      1         15           0       -0.000209    0.000106   -1.206423
      2          6           0       -1.576516    0.553852   -0.402559
      3          6           0       -2.775535    0.178597   -1.032065
      4          6           0       -4.009975    0.558771   -0.506040
      5          6           0       -4.066227    1.338704    0.651015
      6          6           0       -2.882570    1.730467    1.278341
      7          6           0       -1.646832    1.339779    0.757808
      8          6           0        1.267679    1.088139   -0.402479
      9          6           0        1.979756    0.757732    0.760696
     10          6           0        2.935866    1.632314    1.281829
     11          6           0        3.192174    2.851296    0.652162
     12          6           0        2.492505    3.190766   -0.507773
     13          6           0        1.545966    2.312098   -1.034232
     14          6           0        0.308399   -1.642048   -0.402734
     15          6           0        1.232627   -2.492969   -1.032323
     16          6           0        1.521085   -3.751818   -0.505770
     17          6           0        0.874536   -4.189977    0.651901
     18          6           0       -0.056336   -3.360579    1.279341
     19          6           0       -0.336321   -2.095407    0.758270
     20          1           0       -2.739479   -0.412116   -1.944690
     21          1           0       -4.926742    0.255627   -1.005214
     22          1           0       -5.026792    1.644760    1.057135
     23          1           0       -2.918888    2.341725    2.176672
     24          1           0       -0.733139    1.651649    1.254745
     25          1           0        1.790386   -0.187987    1.259583
     26          1           0        3.480321    1.359525    2.182448
     27          1           0        3.937366    3.530000    1.058788
     28          1           0        2.691330    4.134727   -1.008701
     29          1           0        1.019126    2.574892   -1.948827
     30          1           0        1.725677   -2.166603   -1.945283
     31          1           0        2.241880   -4.394324   -1.004931
     32          1           0        1.090234   -5.174580    1.058504
     33          1           0       -0.566875   -3.697183    2.178234
     34          1           0       -1.062958   -1.459996    1.255547
 ---------------------------------------------------------------------

 SCF Done:  E(RB3LYP) =  -1036.29823104     A.U. after    1 cycles

 Excitation energies and oscillator strengths:

 Excited State   1:      Singlet-A      4.5092 eV  274.96 nm  f=0.1275  <S**2>=0.000
      69 -> 70         0.69693
 This state for optimization and/or second-order correction.
 Total Energy, E(TD-HF/TD-DFT) =  -1036.13251991
 Copying the excited state density for this state as the 1-particle RhoCI density.

 Excited State   2:      Singlet-A      4.5113 eV  274.83 nm  f=0.1282  <S**2>=0.000
      69 -> 71         0.69690

 Excited State   3:      Singlet-A      4.7572 eV  260.63 nm  f=0.0022  <S**2>=0.000
      67 -> 70        -0.12233
      68 -> 71        -0.12265
      69 -> 72         0.67466

 Excited State   4:      Singlet-A      5.0576 eV  245.15 nm  f=0.0002  <S**2>=0.000
      66 -> 70        -0.16620
      67 -> 70        -0.13343
      68 -> 71         0.13314
      69 -> 74         0.62953

 Excited State   5:      Singlet-A      5.0582 eV  245.11 nm  f=0.0002  <S**2>=0.000
      66 -> 71        -0.16673
      67 -> 71         0.13390
      68 -> 70         0.13387
      69 -> 75         0.62910

 Excited State   6:      Singlet-A      5.1508 eV  240.71 nm  f=0.0085  <S**2>=0.000
      69 -> 73         0.67914

 Excited State   7:      Singlet-A      5.4273 eV  228.44 nm  f=0.0147  <S**2>=0.000
      63 -> 72         0.16615
      64 -> 74        -0.14671
      65 -> 75        -0.14474
      67 -> 70         0.42198
      68 -> 71         0.41604
      69 -> 72         0.16520

 Excited State   8:      Singlet-A      5.5139 eV  224.86 nm  f=0.0005  <S**2>=0.000
      63 -> 74         0.14374
      64 -> 71         0.12119
      64 -> 72        -0.22991
      65 -> 70         0.12389
      65 -> 72         0.16428
      66 -> 70         0.22650
      67 -> 70         0.25512
      68 -> 71        -0.26438
      68 -> 72        -0.16349
      69 -> 74         0.28661

 Excited State   9:      Singlet-A      5.5148 eV  224.82 nm  f=0.0004  <S**2>=0.000
      63 -> 75         0.14412
      64 -> 70         0.12100
      64 -> 72        -0.16466
      65 -> 71        -0.12011
      65 -> 72        -0.23001
      66 -> 71         0.22548
      67 -> 71        -0.25815
      67 -> 72         0.16377
      68 -> 70        -0.26326
      69 -> 75         0.28736

 Excited State  10:      Singlet-A      5.6181 eV  220.69 nm  f=0.0009  <S**2>=0.000
      67 -> 71        -0.47360
      68 -> 70         0.48043

 The electronic state is 1-A.
 Alpha  occ. eigenvalues --  -77.08112 -10.19448 -10.19446 -10.19446 -10.19149
 Alpha  occ. eigenvalues --  -10.19145 -10.19145 -10.19119 -10.19116 -10.19116
 Alpha  occ. eigenvalues --  -10.19032 -10.19030 -10.19030 -10.19009 -10.19007
 Alpha  occ. eigenvalues --  -10.19006 -10.18964 -10.18960 -10.18960  -6.54843
 Alpha  occ. eigenvalues --   -4.71102  -4.71102  -4.70601  -0.85560  -0.84846
 Alpha  occ. eigenvalues --   -0.84845  -0.76669  -0.74366  -0.74365  -0.74329
 Alpha  occ. eigenvalues --   -0.73821  -0.73821  -0.64436  -0.60337  -0.60307
 Alpha  occ. eigenvalues --   -0.60306  -0.59207  -0.59206  -0.55448  -0.51435
 Alpha  occ. eigenvalues --   -0.51435  -0.49295  -0.45440  -0.45439  -0.44774
 Alpha  occ. eigenvalues --   -0.44344  -0.44344  -0.44068  -0.41946  -0.41869
 Alpha  occ. eigenvalues --   -0.41868  -0.40379  -0.40377  -0.36843  -0.36352
 Alpha  occ. eigenvalues --   -0.36350  -0.35899  -0.34252  -0.34251  -0.34224
 Alpha  occ. eigenvalues --   -0.31885  -0.31883  -0.26775  -0.25449  -0.25445
 Alpha  occ. eigenvalues --   -0.25242  -0.24704  -0.24703  -0.21144
 Alpha virt. eigenvalues --   -0.01883  -0.01877  -0.00829   0.00173   0.00426
 Alpha virt. eigenvalues --    0.00430   0.06880   0.06890   0.09492   0.11039
 Alpha virt. eigenvalues --    0.11040   0.13903   0.14528   0.14530   0.15164

 Mulliken charges:
               1
     1  P    0.450731
     2  C   -0.101640
     3  C   -0.168698
     4  C   -0.116542
     5  C   -0.134119
     6  C   -0.123138
     7  C   -0.150841
     8  C   -0.132902
     9  C   -0.175678
    10  C   -0.118662
    11  C   -0.170208
    12  C   -0.123305
    13  C   -0.171292
    14  C   -0.086598
    15  C   -0.152273
    16  C   -0.123230
    17  C   -0.131846
    18  C   -0.116257
    19  C   -0.159130
    20  H    0.136706
    21  H    0.134678
    22  H    0.136282
    23  H    0.139821
    24  H    0.172603
    25  H    0.123158
    26  H    0.115422
    27  H    0.105793
    28  H    0.112031
    29  H    0.112440
    30  H    0.144933
    31  H    0.137830
    32  H    0.138470
    33  H    0.140437
    34  H    0.155023
 Sum of Mulliken charges =  -0.00000

 Dipole moment (field-independent basis, Debye):
    X=             -2.7004    Y=             -2.6248    Z=             -0.1972  Tot=              3.7710
 Quadrupole moment (field-independent basis, Debye-Ang):
   XX=           -114.7396   YY=           -112.3326   ZZ=           -110.6579
   XY=             -6.9293   XZ=             -1.3403   YZ=             -0.1966

 Summary of Natural Population Analysis:

                                       Natural Population
                Natural  -----------------------------------------------
    Atom  No    Charge         Core      Valence    Rydberg      Total
 -----------------------------------------------------------------------
      P    1    1.24232      9.99750     3.70994    0.05025    13.75768
      C    2   -0.41666      1.99890     4.39172    0.02604     6.41666
      C    3   -0.22260      1.99902     4.20790    0.01569     6.22260
      C    4   -0.23162      1.99910     4.21827    0.01425     6.23162
      C    5   -0.22420      1.99909     4.21047    0.01463     6.22420
      C    6   -0.23619      1.99909     4.22273    0.01437     6.23619
      C    7   -0.20826      1.99899     4.19271    0.01655     6.20826
      C    8   -0.48784      1.99886     4.46359    0.02539     6.48784
      C    9   -0.26424      1.99899     4.24715    0.01811     6.26424
      C   10   -0.22999      1.99909     4.21629    0.01461     6.22999
      C   11   -0.30080      1.99910     4.28492    0.01678     6.30080
      C   12   -0.24574      1.99910     4.23157    0.01508     6.24574
      C   13   -0.23359      1.99901     4.21822    0.01635     6.23359
      C   14   -0.39216      1.99889     4.36920    0.02408     6.39216
      C   15   -0.19812      1.99901     4.18392    0.01519     6.19812
      C   16   -0.24326      1.99910     4.22952    0.01464     6.24326
      C   17   -0.21958      1.99909     4.20607    0.01442     6.21958
      C   18   -0.22389      1.99909     4.21076    0.01403     6.22389
      C   19   -0.23042      1.99899     4.21471    0.01672     6.23042
      H   20    0.23505      0.00000     0.76387    0.00108     0.76495
      H   21    0.23901      0.00000     0.76005    0.00095     0.76099
      H   22    0.23778      0.00000     0.76135    0.00087     0.76222
      H   23    0.24247      0.00000     0.75665    0.00088     0.75753
      H   24    0.25931      0.00000     0.73930    0.00139     0.74069
      H   25    0.23190      0.00000     0.76660    0.00150     0.76810
      H   26    0.23108      0.00000     0.76804    0.00088     0.76892
      H   27    0.22465      0.00000     0.77445    0.00089     0.77535
      H   28    0.22889      0.00000     0.77020    0.00091     0.77111
      H   29    0.22331      0.00000     0.77570    0.00099     0.77669
      H   30    0.24079      0.00000     0.75796    0.00125     0.75921
      H   31    0.24118      0.00000     0.75796    0.00087     0.75882
      H   32    0.23883      0.00000     0.76032    0.00085     0.76117
      H   33    0.24261      0.00000     0.75652    0.00087     0.75739
      H   34    0.24997      0.00000     0.74879    0.00124     0.75003
 =======================================================================
   * Total *    0.00000     45.98001    91.64741    0.37259   138.00000

 Normal termination of Gaussian 16 at Sun Dec  8 20:22:44 2019.
