 Gaussian 16, Revision A.03,

 -----------------------------------------
 # opt=CalcFc B3LYP/6-31G* scf=xqc scf=xqc
 -----------------------------------------

 -------------------
 Title Card Required
 -------------------
 Symbolic Z-matrix:
 Charge =  0 Multiplicity = 1

 SCF Done:  E(RB3LYP) =  -1036.27634843     A.U. after   14 cycles
 SCF Done:  E(RB3LYP) =  -1036.28264646     A.U. after   14 cycles
 SCF Done:  E(RB3LYP) =  -1036.29371007     A.U. after   15 cycles
 SCF Done:  E(RB3LYP) =  -1036.28512227     A.U. after   14 cycles
 SCF Done:  E(RB3LYP) =  -1036.29700629     A.U. after   12 cycles
 SCF Done:  E(RB3LYP) =  -1036.29717642     A.U. after   14 cycles
 SCF Done:  E(RB3LYP) =  -1036.29742552     A.U. after   14 cycles
 SCF Done:  E(RB3LYP) =  -1036.29775674     A.U. after   12 cycles
 SCF Done:  E(RB3LYP) =  -1036.29779867     A.U. after   11 cycles
 SCF Done:  E(RB3LYP) =  -1036.29784178     A.U. after   11 cycles
 SCF Done:  E(RB3LYP) =  -1036.29823084     A.U. after    9 cycles
 SCF Done:  E(RB3LYP) =  -1036.29822995     A.U. after   10 cycles
 SCF Done:  E(RB3LYP) =  -1036.29822960     A.U. after   10 cycles
 SCF Done:  E(RB3LYP) =  -1036.29823145     A.U. after    8 cycles
 SCF Done:  E(RB3LYP) =  -1036.29718444     A.U. after   12 cycles
 SCF Done:  E(RB3LYP) =  -1036.29800528     A.U. after   11 cycles
 SCF Done:  E(RB3LYP) =  -1036.29728037     A.U. after   12 cycles
 SCF Done:  E(RB3LYP) =  -1036.29823550     A.U. after    8 cycles
 Optimization completed.
    -- Stationary point found.
 Normal termination of Gaussian 16 at Sun Dec  8 18:25:31 2019.

 ----------------------------------------------------------------------
 # freq B3LYP/6-31G* scf=xqc volume NMR pop=NPA density=current Geom=Al
 lCheck Guess=Read
 ----------------------------------------------------------------------

 Structure from the checkpoint file:  "direct_arylation_ligand38_conf302.chk"
 -------------------
 Title Card Required
 -------------------
 Charge =  0 Multiplicity = 1

 SCF Done:  E(RB3LYP) =  -1036.29823550     A.U. after    1 cycles

      1  P    Isotropic =   361.4456   Anisotropy =    39.6643

      2  C    Isotropic =    56.1088   Anisotropy =   179.4188

      3  C    Isotropic =    61.0081   Anisotropy =   164.1099

      4  C    Isotropic =    68.7287   Anisotropy =   164.1195

      5  C    Isotropic =    68.1671   Anisotropy =   167.3442

      6  C    Isotropic =    68.6833   Anisotropy =   163.8981

      7  C    Isotropic =    62.5769   Anisotropy =   174.0336

      8  C    Isotropic =    56.1106   Anisotropy =   179.4267

      9  C    Isotropic =    62.5943   Anisotropy =   174.0464

     10  C    Isotropic =    68.6820   Anisotropy =   163.8937

     11  C    Isotropic =    68.1709   Anisotropy =   167.3264

     12  C    Isotropic =    68.7299   Anisotropy =   164.1085

     13  C    Isotropic =    61.0267   Anisotropy =   164.1311

     14  C    Isotropic =    56.1207   Anisotropy =   179.4139

     15  C    Isotropic =    61.0037   Anisotropy =   164.1195

     16  C    Isotropic =    68.7256   Anisotropy =   164.1326

     17  C    Isotropic =    68.1712   Anisotropy =   167.3514

     18  C    Isotropic =    68.6763   Anisotropy =   163.8904

     19  C    Isotropic =    62.5697   Anisotropy =   174.0539

     20  H    Isotropic =    24.6133   Anisotropy =     9.2504

     21  H    Isotropic =    24.9266   Anisotropy =     4.5886

     22  H    Isotropic =    25.0195   Anisotropy =     3.6430

     23  H    Isotropic =    25.0485   Anisotropy =     6.0853

     24  H    Isotropic =    25.4024   Anisotropy =    12.2244

     25  H    Isotropic =    25.4026   Anisotropy =    12.2366

     26  H    Isotropic =    25.0478   Anisotropy =     6.0882

     27  H    Isotropic =    25.0206   Anisotropy =     3.6406

     28  H    Isotropic =    24.9293   Anisotropy =     4.5858

     29  H    Isotropic =    24.6151   Anisotropy =     9.2529

     30  H    Isotropic =    24.6126   Anisotropy =     9.2529

     31  H    Isotropic =    24.9256   Anisotropy =     4.5899

     32  H    Isotropic =    25.0189   Anisotropy =     3.6429

     33  H    Isotropic =    25.0478   Anisotropy =     6.0864

     34  H    Isotropic =    25.4000   Anisotropy =    12.2311

  Exact polarizability: 224.181  -0.000 224.101  -0.022  -0.026 165.026
 Approx polarizability: 331.005  -0.003 330.830  -0.051  -0.063 307.998

                      1                      2                      3
                      A                      A                      A
 Frequencies --     23.7493                24.6446                39.0776
 Red. masses --      3.7988                 3.7996                 3.6896
 Frc consts  --      0.0013                 0.0014                 0.0033
 IR Inten    --      0.2819                 0.2832                 0.0019

                      4                      5                      6
                      A                      A                      A
 Frequencies --     53.2684                53.4175                70.6002
 Red. masses --      5.2503                 5.2494                 5.1677
 Frc consts  --      0.0088                 0.0088                 0.0152
 IR Inten    --      0.0855                 0.0856                 0.3107

                      7                      8                      9
                      A                      A                      A
 Frequencies --    181.7090               202.4786               202.7562
 Red. masses --      4.5624                 4.6417                 4.6418
 Frc consts  --      0.0888                 0.1121                 0.1124
 IR Inten    --      0.3514                 1.1317                 1.1331

                     10                     11                     12
                      A                      A                      A
 Frequencies --    245.5365               259.8148               259.8661
 Red. masses --      5.7381                 4.7212                 4.7233
 Frc consts  --      0.2038                 0.1878                 0.1879
 IR Inten    --      0.4827                 0.2268                 0.2248

                     13                     14                     15
                      A                      A                      A
 Frequencies --    408.8399               408.9312               412.3725
 Red. masses --      3.0780                 3.0813                 3.6157
 Frc consts  --      0.3031                 0.3036                 0.3623
 IR Inten    --      1.9529                 1.9808                 0.1641

                     16                     17                     18
                      A                      A                      A
 Frequencies --    417.1878               429.5289               429.5496
 Red. masses --      4.5827                 7.3102                 7.3203
 Frc consts  --      0.4699                 0.7946                 0.7958
 IR Inten    --      0.5585                 7.6988                 7.7261

                     19                     20                     21
                      A                      A                      A
 Frequencies --    509.4980               509.6020               516.5701
 Red. masses --      4.2462                 4.2448                 4.5892
 Frc consts  --      0.6494                 0.6495                 0.7215
 IR Inten    --     26.0838                26.0596                11.9715

                     22                     23                     24
                      A                      A                      A
 Frequencies --    632.7058               632.7366               633.3519
 Red. masses --      6.4275                 6.4271                 6.4371
 Frc consts  --      1.5160                 1.5160                 1.5213
 IR Inten    --      0.1797                 0.1800                 0.0164

                     25                     26                     27
                      A                      A                      A
 Frequencies --    691.8586               705.1593               705.1860
 Red. masses --      6.5798                 5.7173                 5.7683
 Frc consts  --      1.8556                 1.6750                 1.6901
 IR Inten    --      0.7978                 1.1110                 1.0984

                     28                     29                     30
                      A                      A                      A
 Frequencies --    712.3191               712.3988               713.4134
 Red. masses --      2.2011                 2.1935                 2.1358
 Frc consts  --      0.6580                 0.6559                 0.6405
 IR Inten    --     26.4020                26.3717                16.6723

                     31                     32                     33
                      A                      A                      A
 Frequencies --    761.4640               762.8905               762.9625
 Red. masses --      1.6150                 1.6485                 1.6490
 Frc consts  --      0.5517                 0.5653                 0.5656
 IR Inten    --     19.2196                24.9349                24.9013

                     34                     35                     36
                      A                      A                      A
 Frequencies --    866.2247               866.3442               868.8803
 Red. masses --      1.2477                 1.2476                 1.2462
 Frc consts  --      0.5516                 0.5517                 0.5543
 IR Inten    --      0.2205                 0.2206                 0.1297

                     37                     38                     39
                      A                      A                      A
 Frequencies --    932.9545               933.0546               934.3868
 Red. masses --      1.3442                 1.3440                 1.3383
 Frc consts  --      0.6893                 0.6894                 0.6884
 IR Inten    --      1.2610                 1.2650                 0.0363

                     40                     41                     42
                      A                      A                      A
 Frequencies --    975.8430               975.9674               977.7831
 Red. masses --      1.3613                 1.3610                 1.3553
 Frc consts  --      0.7637                 0.7638                 0.7634
 IR Inten    --      0.0149                 0.0165                 0.1370

                     43                     44                     45
                      A                      A                      A
 Frequencies --   1000.3743              1000.4177              1001.1782
 Red. masses --      1.2542                 1.2541                 1.2523
 Frc consts  --      0.7395                 0.7395                 0.7396
 IR Inten    --      0.0812                 0.0792                 0.0009

                     46                     47                     48
                      A                      A                      A
 Frequencies --   1015.3587              1015.3639              1015.7468
 Red. masses --      6.3122                 6.3111                 6.3103
 Frc consts  --      3.8341                 3.8335                 3.8359
 IR Inten    --      4.3657                 4.3628                 0.0440

                     49                     50                     51
                      A                      A                      A
 Frequencies --   1052.7236              1052.7436              1052.9253
 Red. masses --      3.3140                 3.3183                 3.2534
 Frc consts  --      2.1639                 2.1668                 2.1251
 IR Inten    --      2.0955                 2.0643                 0.0436

                     52                     53                     54
                      A                      A                      A
 Frequencies --   1107.8707              1108.1561              1109.4429
 Red. masses --      1.8865                 1.8670                 1.6548
 Frc consts  --      1.3642                 1.3508                 1.2000
 IR Inten    --      4.3249                 3.9442                 2.9258

                     55                     56                     57
                      A                      A                      A
 Frequencies --   1110.7920              1110.8256              1115.9838
 Red. masses --      2.1941                 2.2070                 2.6138
 Frc consts  --      1.5950                 1.6045                 1.9179
 IR Inten    --      9.4345                 9.5293                 1.1719

                     58                     59                     60
                      A                      A                      A
 Frequencies --   1193.5247              1193.9240              1194.0183
 Red. masses --      1.1034                 1.1000                 1.1002
 Frc consts  --      0.9260                 0.9238                 0.9242
 IR Inten    --      0.0028                 0.1301                 0.1252

                     61                     62                     63
                      A                      A                      A
 Frequencies --   1219.2731              1219.5828              1220.8247
 Red. masses --      1.1476                 1.1479                 1.1473
 Frc consts  --      1.0052                 1.0059                 1.0075
 IR Inten    --      6.0394                 6.0450                 0.3854

                     64                     65                     66
                      A                      A                      A
 Frequencies --   1325.0519              1328.7901              1328.8655
 Red. masses --      3.4966                 3.4974                 3.5212
 Frc consts  --      3.6171                 3.6384                 3.6635
 IR Inten    --      2.6303                 2.4423                 2.4469

                     67                     68                     69
                      A                      A                      A
 Frequencies --   1365.1827              1365.4330              1365.7415
 Red. masses --      1.6558                 1.6478                 1.6415
 Frc consts  --      1.8182                 1.8100                 1.8039
 IR Inten    --      0.3172                 1.0580                 2.0271

                     70                     71                     72
                      A                      A                      A
 Frequencies --   1480.5281              1480.9990              1481.0259
 Red. masses --      2.1103                 2.1154                 2.1152
 Frc consts  --      2.7253                 2.7337                 2.7336
 IR Inten    --     16.6783                 6.6041                 6.6020

                     73                     74                     75
                      A                      A                      A
 Frequencies --   1531.1005              1531.6029              1531.7238
 Red. masses --      2.0150                 1.9984                 1.9965
 Frc consts  --      2.7832                 2.7621                 2.7599
 IR Inten    --      2.0445                10.1699                10.1321

                     76                     77                     78
                      A                      A                      A
 Frequencies --   1630.1782              1630.4513              1630.4894
 Red. masses --      5.1006                 5.1127                 5.1104
 Frc consts  --      7.9862                 8.0078                 8.0046
 IR Inten    --      0.3973                 0.0453                 0.0447

                     79                     80                     81
                      A                      A                      A
 Frequencies --   1646.1831              1646.2093              1647.9895
 Red. masses --      5.2708                 5.2676                 5.2812
 Frc consts  --      8.4156                 8.4107                 8.4507
 IR Inten    --      3.5164                 3.5237                 0.3188

                     82                     83                     84
                      A                      A                      A
 Frequencies --   3176.1025              3176.1381              3176.1948
 Red. masses --      1.0854                 1.0853                 1.0853
 Frc consts  --      6.4508                 6.4508                 6.4511
 IR Inten    --      2.1156                 1.9327                 1.9293

                     85                     86                     87
                      A                      A                      A
 Frequencies --   3182.6688              3182.7018              3182.7754
 Red. masses --      1.0875                 1.0875                 1.0876
 Frc consts  --      6.4902                 6.4904                 6.4912
 IR Inten    --      0.7658                 0.7303                 0.1930

                     88                     89                     90
                      A                      A                      A
 Frequencies --   3192.8455              3192.8789              3193.0035
 Red. masses --      1.0916                 1.0916                 1.0917
 Frc consts  --      6.5567                 6.5568                 6.5578
 IR Inten    --     10.2700                11.9131                45.7175

                     91                     92                     93
                      A                      A                      A
 Frequencies --   3203.8791              3203.8907              3204.2804
 Red. masses --      1.0941                 1.0941                 1.0942
 Frc consts  --      6.6170                 6.6167                 6.6192
 IR Inten    --     41.3145                40.9140                 4.5648

                     94                     95                     96
                      A                      A                      A
 Frequencies --   3210.0182              3210.0458              3210.9255
 Red. masses --      1.0958                 1.0957                 1.0957
 Frc consts  --      6.6525                 6.6522                 6.6558
 IR Inten    --     20.6857                20.2704                16.2323

 - Thermochemistry -
 -------------------
 Temperature   298.150 Kelvin.  Pressure   1.00000 Atm.
 Atom     1 has atomic number 15 and mass  30.97376

 Molecular mass:   262.09114 amu.
 Principal axes and moments of inertia in atomic units:
                           1         2         3
     Eigenvalues --  5162.442095163.086158680.54164
           X            0.99998  -0.00594  -0.00001
           Y            0.00594   0.99998  -0.00001
           Z            0.00001   0.00001   1.00000
 This molecule is an asymmetric top.
 Rotational symmetry number  1.
 Warning -- assumption of classical behavior for rotation
           may cause significant error
 Rotational temperatures (Kelvin)      0.01678     0.01678     0.00998
 Rotational constants (GHZ):           0.34959     0.34955     0.20791
 Zero-point vibrational energy     719995.4 (Joules/Mol)
                                  172.08303 (Kcal/Mol)
 Warning -- explicit consideration of  21 degrees of freedom as
           vibrations may cause significant error
 Vibrational temperatures:     34.17    35.46    56.22    76.64    76.86
          (Kelvin)            101.58   261.44   291.32   291.72   353.27
                              373.82   373.89   588.23   588.36   593.31
                              600.24   618.00   618.03   733.05   733.20
                              743.23   910.32   910.37   911.25   995.43
                             1014.57  1014.61  1024.87  1024.98  1026.44
                             1095.58  1097.63  1097.73  1246.30  1246.48
                             1250.12  1342.31  1342.46  1344.37  1404.02
                             1404.20  1406.81  1439.32  1439.38  1440.47
                             1460.87  1460.88  1461.43  1514.63  1514.66
                             1514.92  1593.98  1594.39  1596.24  1598.18
                             1598.23  1605.65  1717.22  1717.79  1717.93
                             1754.26  1754.71  1756.49  1906.45  1911.83
                             1911.94  1964.19  1964.55  1965.00  2130.15
                             2130.83  2130.87  2202.91  2203.63  2203.81
                             2345.46  2345.86  2345.91  2368.49  2368.53
                             2371.09  4569.70  4569.75  4569.84  4579.15
                             4579.20  4579.30  4593.79  4593.84  4594.02
                             4609.67  4609.68  4610.24  4618.50  4618.54
                             4619.81

 Zero-point correction=                           0.274232 (Hartree/Particle)
 Thermal correction to Energy=                    0.290146
 Thermal correction to Enthalpy=                  0.291091
 Thermal correction to Gibbs Free Energy=         0.227852
 Sum of electronic and zero-point Energies=          -1036.024004
 Sum of electronic and thermal Energies=             -1036.008089
 Sum of electronic and thermal Enthalpies=           -1036.007145
 Sum of electronic and thermal Free Energies=        -1036.070384

                     E (Thermal)             CV                S
                      KCal/Mol        Cal/Mol-Kelvin    Cal/Mol-Kelvin
 Total                  182.070             62.533            133.098
 Electronic               0.000              0.000              0.000
 Translational            0.889              2.981             42.590
 Rotational               0.889              2.981             33.803
 Vibrational            180.292             56.571             56.705
 Vibration     1          0.593              1.985              6.293
 Vibration     2          0.593              1.985              6.220
 Vibration     3          0.594              1.981              5.305
 Vibration     4          0.596              1.976              4.692
 Vibration     5          0.596              1.976              4.687
 Vibration     6          0.598              1.968              4.137
 Vibration     7          0.630              1.865              2.311
 Vibration     8          0.639              1.836              2.110
 Vibration     9          0.639              1.836              2.108
 Vibration    10          0.660              1.770              1.762
 Vibration    11          0.668              1.746              1.663
 Vibration    12          0.668              1.746              1.663
 Vibration    13          0.773              1.451              0.931
 Vibration    14          0.773              1.451              0.930
 Vibration    15          0.776              1.443              0.918
 Vibration    16          0.780              1.433              0.902
 Vibration    17          0.791              1.406              0.860
 Vibration    18          0.791              1.406              0.860
 Vibration    19          0.865              1.229              0.635
 Vibration    20          0.865              1.229              0.635
 Vibration    21          0.872              1.213              0.618

                           ! Non-Optimized Parameters !
 Normal termination of Gaussian 16 at Sun Dec  8 18:39:45 2019.
 Gaussian 16:  ES64L-G16RevA.03 25-Dec-2016

 ----------------------------------------------------------------------
 # TD(NStates=10, Root=1) B3LYP/6-31G* scf=xqc volume pop=NPA density=c
 urrent Geom=AllCheck Guess=Read
 ----------------------------------------------------------------------

 Structure from the checkpoint file:  "direct_arylation_ligand38_conf303.chk"
 -------------------
 Title Card Required
 -------------------
 Charge =  0 Multiplicity = 1

                         Standard orientation:
 ---------------------------------------------------------------------
 Center     Atomic      Atomic             Coordinates (Angstroms)
 Number     Number       Type             X           Y           Z
 ---------------------------------------------------------------------
      1         15           0        0.000088    0.000055   -1.206682
      2          6           0        1.462778    0.807310   -0.402564
      3          6           0        1.982359    1.950828   -1.032687
      4          6           0        3.087653    2.618767   -0.506119
      5          6           0        3.705450    2.142462    0.652179
      6          6           0        3.208443    0.999361    1.280173
      7          6           0        2.094504    0.337392    0.759033
      8          6           0       -0.032221   -1.670424   -0.402826
      9          6           0       -0.757092   -1.983243    0.757243
     10          6           0       -0.740887   -3.278978    1.278251
     11          6           0        0.002582   -4.280315    0.651651
     12          6           0        0.726079   -3.982747   -0.505176
     13          6           0        0.700336   -2.691523   -1.031650
     14          6           0       -1.430493    0.863101   -0.402742
     15          6           0       -2.680604    0.741175   -1.032860
     16          6           0       -3.811722    1.364490   -0.506401
     17          6           0       -3.708157    2.137861    0.651782
     18          6           0       -2.469714    2.279086    1.279771
     19          6           0       -1.339458    1.645293    0.758744
     20          1           0        1.518643    2.316557   -1.946105
     21          1           0        3.472815    3.503945   -1.005755
     22          1           0        4.573042    2.655516    1.058810
     23          1           0        3.687417    0.620297    2.179535
     24          1           0        1.718000   -0.551276    1.256662
     25          1           0       -1.340024   -1.213332    1.253734
     26          1           0       -1.310312   -3.504768    2.176435
     27          1           0        0.013039   -5.288235    1.058195
     28          1           0        1.301674   -4.758406   -1.003742
     29          1           0        1.250608   -2.472287   -1.943931
     30          1           0       -2.765509    0.156524   -1.946151
     31          1           0       -4.770885    1.255360   -1.006020
     32          1           0       -4.586280    2.632749    1.058329
     33          1           0       -2.380931    2.883559    2.179041
     34          1           0       -0.381633    1.763594    1.256380
 ---------------------------------------------------------------------

 SCF Done:  E(RB3LYP) =  -1036.29823550     A.U. after    1 cycles

 Excitation energies and oscillator strengths:

 Excited State   1:      Singlet-A      4.5100 eV  274.91 nm  f=0.1277  <S**2>=0.000
      69 -> 70         0.69717
 This state for optimization and/or second-order correction.
 Total Energy, E(TD-HF/TD-DFT) =  -1036.13249634
 Copying the excited state density for this state as the 1-particle RhoCI density.

 Excited State   2:      Singlet-A      4.5110 eV  274.85 nm  f=0.1281  <S**2>=0.000
      69 -> 71         0.69715

 Excited State   3:      Singlet-A      4.7567 eV  260.65 nm  f=0.0022  <S**2>=0.000
      67 -> 70        -0.12378
      68 -> 71         0.12399
      69 -> 72         0.67469

 Excited State   4:      Singlet-A      5.0578 eV  245.14 nm  f=0.0002  <S**2>=0.000
      66 -> 70         0.16679
      67 -> 71         0.13091
      68 -> 70        -0.13095
      69 -> 74         0.62956

 Excited State   5:      Singlet-A      5.0582 eV  245.12 nm  f=0.0002  <S**2>=0.000
      66 -> 71         0.16703
      67 -> 70         0.13134
      68 -> 71         0.13126
      69 -> 75         0.62930

 Excited State   6:      Singlet-A      5.1506 eV  240.72 nm  f=0.0085  <S**2>=0.000
      69 -> 73         0.67913

 Excited State   7:      Singlet-A      5.4276 eV  228.43 nm  f=0.0147  <S**2>=0.000
      63 -> 72         0.16608
      64 -> 74        -0.14855
      65 -> 75        -0.14764
      67 -> 70         0.41259
      68 -> 71        -0.40956
      69 -> 72         0.16505

 Excited State   8:      Singlet-A      5.5142 eV  224.84 nm  f=0.0004  <S**2>=0.000
      63 -> 74         0.14270
      64 -> 70        -0.12140
      64 -> 72        -0.22815
      65 -> 71         0.12089
      65 -> 72        -0.16725
      66 -> 70        -0.22583
      67 -> 71        -0.27022
      68 -> 70         0.27266
      68 -> 72        -0.15337
      69 -> 74         0.28515

 Excited State   9:      Singlet-A      5.5147 eV  224.83 nm  f=0.0004  <S**2>=0.000
      63 -> 75         0.14290
      64 -> 71         0.11939
      64 -> 72         0.16743
      65 -> 70         0.12083
      65 -> 72        -0.22816
      66 -> 71        -0.22531
      67 -> 70        -0.26971
      67 -> 72        -0.15388
      68 -> 71        -0.27423
      69 -> 75         0.28556

 Excited State  10:      Singlet-A      5.6182 eV  220.68 nm  f=0.0009  <S**2>=0.000
      65 -> 71        -0.10148
      67 -> 71         0.47558
      68 -> 70         0.47922

 The electronic state is 1-A.
 Alpha  occ. eigenvalues --  -77.08113 -10.19447 -10.19447 -10.19446 -10.19147
 Alpha  occ. eigenvalues --  -10.19147 -10.19145 -10.19117 -10.19117 -10.19116
 Alpha  occ. eigenvalues --  -10.19031 -10.19031 -10.19029 -10.19007 -10.19007
 Alpha  occ. eigenvalues --  -10.19006 -10.18962 -10.18962 -10.18960  -6.54844
 Alpha  occ. eigenvalues --   -4.71103  -4.71103  -4.70602  -0.85560  -0.84846
 Alpha  occ. eigenvalues --   -0.84845  -0.76669  -0.74366  -0.74366  -0.74329
 Alpha  occ. eigenvalues --   -0.73821  -0.73821  -0.64436  -0.60335  -0.60307
 Alpha  occ. eigenvalues --   -0.60307  -0.59207  -0.59207  -0.55448  -0.51435
 Alpha  occ. eigenvalues --   -0.51435  -0.49295  -0.45440  -0.45440  -0.44773
 Alpha  occ. eigenvalues --   -0.44345  -0.44344  -0.44067  -0.41946  -0.41868
 Alpha  occ. eigenvalues --   -0.41868  -0.40378  -0.40377  -0.36844  -0.36351
 Alpha  occ. eigenvalues --   -0.36350  -0.35899  -0.34252  -0.34251  -0.34224
 Alpha  occ. eigenvalues --   -0.31884  -0.31883  -0.26779  -0.25448  -0.25446
 Alpha  occ. eigenvalues --   -0.25243  -0.24704  -0.24703  -0.21144
 Alpha virt. eigenvalues --   -0.01880  -0.01877  -0.00831   0.00172   0.00428
 Alpha virt. eigenvalues --    0.00430   0.06881   0.06885   0.09493   0.11038
 Alpha virt. eigenvalues --    0.11039   0.13904   0.14528   0.14529   0.15164

 Mulliken charges:
               1
     1  P    0.450607
     2  C   -0.112941
     3  C   -0.159676
     4  C   -0.125520
     5  C   -0.156977
     6  C   -0.115638
     7  C   -0.173027
     8  C   -0.081228
     9  C   -0.148287
    10  C   -0.119909
    11  C   -0.120663
    12  C   -0.118879
    13  C   -0.156644
    14  C   -0.127110
    15  C   -0.175912
    16  C   -0.118662
    17  C   -0.158509
    18  C   -0.122536
    19  C   -0.164227
    20  H    0.125714
    21  H    0.121434
    22  H    0.117118
    23  H    0.123740
    24  H    0.127725
    25  H    0.177070
    26  H    0.148303
    27  H    0.147834
    28  H    0.144281
    29  H    0.150305
    30  H    0.118094
    31  H    0.118826
    32  H    0.115597
    33  H    0.123632
    34  H    0.146062
 Sum of Mulliken charges =  -0.00000

 Dipole moment (field-independent basis, Debye):
    X=              0.0915    Y=             -3.7491    Z=             -0.1958  Tot=              3.7553
 Quadrupole moment (field-independent basis, Debye-Ang):
   XX=           -120.5262   YY=           -106.5335   ZZ=           -110.6701
   XY=              0.2814   XZ=             -0.7628   YZ=             -1.1107

 Summary of Natural Population Analysis:

                                       Natural Population
                Natural  -----------------------------------------------
    Atom  No    Charge         Core      Valence    Rydberg      Total
 -----------------------------------------------------------------------
      P    1    1.24210      9.99750     3.71016    0.05024    13.75790
      C    2   -0.44873      1.99887     4.42547    0.02439     6.44873
      C    3   -0.21395      1.99901     4.19908    0.01586     6.21395
      C    4   -0.24883      1.99910     4.23466    0.01507     6.24883
      C    5   -0.27294      1.99909     4.25784    0.01601     6.27294
      C    6   -0.22394      1.99909     4.21053    0.01433     6.22394
      C    7   -0.26049      1.99899     4.24377    0.01773     6.26049
      C    8   -0.37663      1.99891     4.35286    0.02486     6.37663
      C    9   -0.20496      1.99900     4.18988    0.01608     6.20496
      C   10   -0.22984      1.99909     4.21670    0.01405     6.22984
      C   11   -0.19567      1.99909     4.18290    0.01367     6.19567
      C   12   -0.23496      1.99910     4.22164    0.01423     6.23496
      C   13   -0.20237      1.99902     4.18825    0.01511     6.20237
      C   14   -0.47127      1.99888     4.44613    0.02626     6.47127
      C   15   -0.23801      1.99902     4.22273    0.01627     6.23801
      C   16   -0.23680      1.99910     4.22304    0.01467     6.23680
      C   17   -0.27595      1.99909     4.26071    0.01615     6.27595
      C   18   -0.23631      1.99909     4.22258    0.01464     6.23631
      C   19   -0.23732      1.99899     4.22076    0.01757     6.23732
      H   20    0.23088      0.00000     0.76797    0.00115     0.76912
      H   21    0.23359      0.00000     0.76553    0.00088     0.76641
      H   22    0.22961      0.00000     0.76950    0.00089     0.77039
      H   23    0.23487      0.00000     0.76425    0.00088     0.76513
      H   24    0.23469      0.00000     0.76395    0.00136     0.76531
      H   25    0.26207      0.00000     0.73673    0.00120     0.73793
      H   26    0.24633      0.00000     0.75281    0.00086     0.75367
      H   27    0.24280      0.00000     0.75638    0.00082     0.75720
      H   28    0.24381      0.00000     0.75530    0.00089     0.75619
      H   29    0.24283      0.00000     0.75597    0.00120     0.75717
      H   30    0.22547      0.00000     0.77356    0.00097     0.77453
      H   31    0.23167      0.00000     0.76737    0.00095     0.76833
      H   32    0.22885      0.00000     0.77024    0.00091     0.77115
      H   33    0.23497      0.00000     0.76414    0.00089     0.76503
      H   34    0.24444      0.00000     0.75399    0.00157     0.75556
 =======================================================================
   * Total *    0.00000     45.98001    91.64740    0.37260   138.00000

 Normal termination of Gaussian 16 at Sun Dec  8 18:53:32 2019.
