 Gaussian 16, Revision A.03,

 -----------------------------------------
 # opt=CalcFc B3LYP/6-31G* scf=xqc scf=xqc
 -----------------------------------------

 -------------------
 Title Card Required
 -------------------
 Symbolic Z-matrix:
 Charge =  0 Multiplicity = 1

 SCF Done:  E(RB3LYP) =  -1036.29269302     A.U. after   14 cycles
 SCF Done:  E(RB3LYP) =  -1036.29739441     A.U. after   14 cycles
 SCF Done:  E(RB3LYP) =  -1036.29740293     A.U. after   14 cycles
 SCF Done:  E(RB3LYP) =  -1036.29819221     A.U. after   14 cycles
 SCF Done:  E(RB3LYP) =  -1036.29822366     A.U. after   11 cycles
 SCF Done:  E(RB3LYP) =  -1036.29823030     A.U. after   10 cycles
 SCF Done:  E(RB3LYP) =  -1036.29823376     A.U. after    9 cycles
 SCF Done:  E(RB3LYP) =  -1036.29823130     A.U. after    9 cycles
 SCF Done:  E(RB3LYP) =  -1036.29823510     A.U. after    8 cycles
 SCF Done:  E(RB3LYP) =  -1036.29822965     A.U. after    7 cycles
 SCF Done:  E(RB3LYP) =  -1036.29822990     A.U. after    8 cycles
 SCF Done:  E(RB3LYP) =  -1036.29822922     A.U. after    7 cycles
 SCF Done:  E(RB3LYP) =  -1036.29823163     A.U. after    8 cycles
 SCF Done:  E(RB3LYP) =  -1036.29821780     A.U. after   10 cycles
 SCF Done:  E(RB3LYP) =  -1036.29823499     A.U. after   10 cycles
 SCF Done:  E(RB3LYP) =  -1036.29823374     A.U. after    8 cycles
 SCF Done:  E(RB3LYP) =  -1036.29823108     A.U. after    7 cycles
 SCF Done:  E(RB3LYP) =  -1036.29822942     A.U. after    6 cycles
 Optimization completed.
    -- Stationary point found.
 Normal termination of Gaussian 16 at Sun Dec  8 19:01:13 2019.

 ----------------------------------------------------------------------
 # freq B3LYP/6-31G* scf=xqc volume NMR pop=NPA density=current Geom=Al
 lCheck Guess=Read
 ----------------------------------------------------------------------

 Structure from the checkpoint file:  "direct_arylation_ligand38_conf232.chk"
 -------------------
 Title Card Required
 -------------------
 Charge =  0 Multiplicity = 1

 SCF Done:  E(RB3LYP) =  -1036.29822942     A.U. after    1 cycles

      1  P    Isotropic =   361.4612   Anisotropy =    39.8181

      2  C    Isotropic =    56.1070   Anisotropy =   179.4038

      3  C    Isotropic =    61.0263   Anisotropy =   164.1319

      4  C    Isotropic =    68.7333   Anisotropy =   164.1484

      5  C    Isotropic =    68.1763   Anisotropy =   167.3330

      6  C    Isotropic =    68.6745   Anisotropy =   163.8803

      7  C    Isotropic =    62.5996   Anisotropy =   173.9933

      8  C    Isotropic =    56.1027   Anisotropy =   179.4210

      9  C    Isotropic =    62.5640   Anisotropy =   174.0159

     10  C    Isotropic =    68.6714   Anisotropy =   163.8783

     11  C    Isotropic =    68.1720   Anisotropy =   167.3640

     12  C    Isotropic =    68.7358   Anisotropy =   164.1511

     13  C    Isotropic =    60.9969   Anisotropy =   164.0802

     14  C    Isotropic =    56.1487   Anisotropy =   179.4209

     15  C    Isotropic =    61.0097   Anisotropy =   164.1129

     16  C    Isotropic =    68.7335   Anisotropy =   164.1230

     17  C    Isotropic =    68.1592   Anisotropy =   167.3271

     18  C    Isotropic =    68.6795   Anisotropy =   163.8929

     19  C    Isotropic =    62.5778   Anisotropy =   174.0742

     20  H    Isotropic =    24.6153   Anisotropy =     9.2568

     21  H    Isotropic =    24.9256   Anisotropy =     4.5928

     22  H    Isotropic =    25.0193   Anisotropy =     3.6457

     23  H    Isotropic =    25.0494   Anisotropy =     6.0862

     24  H    Isotropic =    25.4067   Anisotropy =    12.2282

     25  H    Isotropic =    25.4007   Anisotropy =    12.2163

     26  H    Isotropic =    25.0480   Anisotropy =     6.0851

     27  H    Isotropic =    25.0179   Anisotropy =     3.6449

     28  H    Isotropic =    24.9261   Anisotropy =     4.5893

     29  H    Isotropic =    24.6139   Anisotropy =     9.2466

     30  H    Isotropic =    24.6121   Anisotropy =     9.2471

     31  H    Isotropic =    24.9276   Anisotropy =     4.5860

     32  H    Isotropic =    25.0208   Anisotropy =     3.6420

     33  H    Isotropic =    25.0473   Anisotropy =     6.0850

     34  H    Isotropic =    25.3992   Anisotropy =    12.2220

  Exact polarizability: 224.229  -0.029 224.044  -0.035   0.065 165.054
 Approx polarizability: 331.078  -0.064 330.700  -0.081   0.156 308.057

                      1                      2                      3
                      A                      A                      A
 Frequencies --     21.8209                22.9053                37.7537
 Red. masses --      3.7942                 3.8000                 3.6888
 Frc consts  --      0.0011                 0.0012                 0.0031
 IR Inten    --      0.2832                 0.2824                 0.0013

                      4                      5                      6
                      A                      A                      A
 Frequencies --     53.2749                53.3182                70.5368
 Red. masses --      5.2510                 5.2536                 5.1678
 Frc consts  --      0.0088                 0.0088                 0.0151
 IR Inten    --      0.0866                 0.0826                 0.3094

                      7                      8                      9
                      A                      A                      A
 Frequencies --    181.4176               202.4432               202.6066
 Red. masses --      4.5600                 4.6406                 4.6441
 Frc consts  --      0.0884                 0.1121                 0.1123
 IR Inten    --      0.3534                 1.1355                 1.1405

                     10                     11                     12
                      A                      A                      A
 Frequencies --    245.5214               259.7091               259.9820
 Red. masses --      5.7391                 4.7209                 4.7220
 Frc consts  --      0.2038                 0.1876                 0.1880
 IR Inten    --      0.4828                 0.2264                 0.2225

                     13                     14                     15
                      A                      A                      A
 Frequencies --    408.7787               408.8742               412.3440
 Red. masses --      3.0780                 3.0798                 3.5952
 Frc consts  --      0.3030                 0.3034                 0.3602
 IR Inten    --      1.9605                 1.9693                 0.1608

                     16                     17                     18
                      A                      A                      A
 Frequencies --    417.0338               429.3678               429.4829
 Red. masses --      4.6117                 7.3141                 7.3025
 Frc consts  --      0.4726                 0.7945                 0.7936
 IR Inten    --      0.5611                 7.6995                 7.6958

                     19                     20                     21
                      A                      A                      A
 Frequencies --    509.3717               509.5022               516.2621
 Red. masses --      4.2476                 4.2456                 4.5883
 Frc consts  --      0.6493                 0.6494                 0.7205
 IR Inten    --     26.1236                26.1065                11.9788

                     22                     23                     24
                      A                      A                      A
 Frequencies --    632.7152               632.7367               633.3560
 Red. masses --      6.4271                 6.4270                 6.4368
 Frc consts  --      1.5159                 1.5160                 1.5213
 IR Inten    --      0.1811                 0.1804                 0.0161

                     25                     26                     27
                      A                      A                      A
 Frequencies --    691.8453               705.0993               705.1893
 Red. masses --      6.5811                 5.7107                 5.7464
 Frc consts  --      1.8560                 1.6728                 1.6837
 IR Inten    --      0.7647                 1.2246                 1.1584

                     28                     29                     30
                      A                      A                      A
 Frequencies --    712.1781               712.3070               713.2103
 Red. masses --      2.1978                 2.1996                 2.1324
 Frc consts  --      0.6568                 0.6576                 0.6391
 IR Inten    --     26.3510                26.3718                16.6054

                     31                     32                     33
                      A                      A                      A
 Frequencies --    761.3856               762.8496               762.9222
 Red. masses --      1.6160                 1.6497                 1.6478
 Frc consts  --      0.5520                 0.5656                 0.5651
 IR Inten    --     19.1904                24.9360                24.8860

                     34                     35                     36
                      A                      A                      A
 Frequencies --    866.0602               866.2498               868.6840
 Red. masses --      1.2478                 1.2477                 1.2463
 Frc consts  --      0.5514                 0.5516                 0.5541
 IR Inten    --      0.2281                 0.2210                 0.1339

                     37                     38                     39
                      A                      A                      A
 Frequencies --    932.7626               933.0365               934.1511
 Red. masses --      1.3445                 1.3440                 1.3387
 Frc consts  --      0.6892                 0.6894                 0.6883
 IR Inten    --      1.2597                 1.2692                 0.0339

                     40                     41                     42
                      A                      A                      A
 Frequencies --    975.6902               975.8813               977.5743
 Red. masses --      1.3615                 1.3611                 1.3557
 Frc consts  --      0.7636                 0.7637                 0.7634
 IR Inten    --      0.0161                 0.0165                 0.1423

                     43                     44                     45
                      A                      A                      A
 Frequencies --   1000.2986              1000.4137              1001.0666
 Red. masses --      1.2544                 1.2542                 1.2526
 Frc consts  --      0.7395                 0.7396                 0.7396
 IR Inten    --      0.0781                 0.0819                 0.0004

                     46                     47                     48
                      A                      A                      A
 Frequencies --   1015.3554              1015.3707              1015.7554
 Red. masses --      6.3114                 6.3103                 6.3095
 Frc consts  --      3.8336                 3.8331                 3.8355
 IR Inten    --      4.3616                 4.3653                 0.0496

                     49                     50                     51
                      A                      A                      A
 Frequencies --   1052.7003              1052.7441              1052.9285
 Red. masses --      3.3113                 3.3149                 3.2536
 Frc consts  --      2.1620                 2.1645                 2.1252
 IR Inten    --      2.0957                 2.0594                 0.0663

                     52                     53                     54
                      A                      A                      A
 Frequencies --   1107.8899              1108.0164              1109.4588
 Red. masses --      1.8845                 1.8729                 1.6544
 Frc consts  --      1.3629                 1.3548                 1.1998
 IR Inten    --      4.2455                 4.0535                 2.8874

                     55                     56                     57
                      A                      A                      A
 Frequencies --   1110.6869              1110.7978              1116.0978
 Red. masses --      2.1881                 2.2055                 2.6137
 Frc consts  --      1.5904                 1.6033                 1.9183
 IR Inten    --      9.4050                 9.5481                 1.2394

                     58                     59                     60
                      A                      A                      A
 Frequencies --   1193.4739              1193.8886              1193.9143
 Red. masses --      1.1033                 1.1000                 1.1000
 Frc consts  --      0.9259                 0.9238                 0.9238
 IR Inten    --      0.0010                 0.1301                 0.1285

                     61                     62                     63
                      A                      A                      A
 Frequencies --   1219.1957              1219.3968              1220.8290
 Red. masses --      1.1476                 1.1477                 1.1473
 Frc consts  --      1.0050                 1.0055                 1.0075
 IR Inten    --      6.0561                 6.0312                 0.3560

                     64                     65                     66
                      A                      A                      A
 Frequencies --   1324.9570              1328.6415              1328.7813
 Red. masses --      3.4880                 3.4799                 3.4992
 Frc consts  --      3.6077                 3.6194                 3.6402
 IR Inten    --      2.6379                 2.4321                 2.4494

                     67                     68                     69
                      A                      A                      A
 Frequencies --   1365.1152              1365.2621              1365.5888
 Red. masses --      1.6584                 1.6544                 1.6441
 Frc consts  --      1.8208                 1.8169                 1.8064
 IR Inten    --      0.1424                 0.4578                 2.7843

                     70                     71                     72
                      A                      A                      A
 Frequencies --   1480.4736              1480.9294              1480.9747
 Red. masses --      2.1106                 2.1152                 2.1159
 Frc consts  --      2.7256                 2.7332                 2.7342
 IR Inten    --     16.6623                 6.5684                 6.6067

                     73                     74                     75
                      A                      A                      A
 Frequencies --   1531.0619              1531.5270              1531.6361
 Red. masses --      2.0153                 1.9988                 1.9981
 Frc consts  --      2.7833                 2.7623                 2.7617
 IR Inten    --      2.0305                10.1174                10.1405

                     76                     77                     78
                      A                      A                      A
 Frequencies --   1630.1523              1630.4251              1630.4542
 Red. masses --      5.1004                 5.1117                 5.1136
 Frc consts  --      7.9857                 8.0061                 8.0092
 IR Inten    --      0.3998                 0.0437                 0.0452

                     79                     80                     81
                      A                      A                      A
 Frequencies --   1646.1290              1646.1777              1647.9502
 Red. masses --      5.2720                 5.2705                 5.2830
 Frc consts  --      8.4169                 8.4150                 8.4531
 IR Inten    --      3.4949                 3.5261                 0.3203

                     82                     83                     84
                      A                      A                      A
 Frequencies --   3176.0274              3176.0738              3176.1219
 Red. masses --      1.0854                 1.0854                 1.0853
 Frc consts  --      6.4505                 6.4507                 6.4507
 IR Inten    --      2.1053                 2.0097                 1.9013

                     85                     86                     87
                      A                      A                      A
 Frequencies --   3182.5771              3182.6237              3182.7287
 Red. masses --      1.0875                 1.0875                 1.0876
 Frc consts  --      6.4898                 6.4902                 6.4909
 IR Inten    --      0.7573                 0.5895                 0.3362

                     88                     89                     90
                      A                      A                      A
 Frequencies --   3192.7765              3192.8246              3192.9425
 Red. masses --      1.0916                 1.0916                 1.0917
 Frc consts  --      6.5564                 6.5566                 6.5577
 IR Inten    --     11.4238                10.0728                46.4825

                     91                     92                     93
                      A                      A                      A
 Frequencies --   3203.8028              3203.8834              3204.2625
 Red. masses --      1.0941                 1.0941                 1.0942
 Frc consts  --      6.6165                 6.6169                 6.6192
 IR Inten    --     40.8643                40.6392                 5.3790

                     94                     95                     96
                      A                      A                      A
 Frequencies --   3209.9486              3210.0426              3210.9166
 Red. masses --      1.0957                 1.0957                 1.0957
 Frc consts  --      6.6520                 6.6521                 6.6555
 IR Inten    --     20.4973                20.1968                16.2730

 - Thermochemistry -
 -------------------
 Temperature   298.150 Kelvin.  Pressure   1.00000 Atm.
 Atom     1 has atomic number 15 and mass  30.97376

 Molecular mass:   262.09114 amu.
 Principal axes and moments of inertia in atomic units:
                           1         2         3
     Eigenvalues --  5162.291105164.381528681.46290
           X            0.99995  -0.01031  -0.00001
           Y            0.01031   0.99995   0.00002
           Z            0.00001  -0.00002   1.00000
 This molecule is an asymmetric top.
 Rotational symmetry number  1.
 Warning -- assumption of classical behavior for rotation
           may cause significant error
 Rotational temperatures (Kelvin)      0.01678     0.01677     0.00998
 Rotational constants (GHZ):           0.34960     0.34946     0.20788
 Zero-point vibrational energy     719926.2 (Joules/Mol)
                                  172.06649 (Kcal/Mol)
 Warning -- explicit consideration of  21 degrees of freedom as
           vibrations may cause significant error
 Vibrational temperatures:     31.40    32.96    54.32    76.65    76.71
          (Kelvin)            101.49   261.02   291.27   291.51   353.25
                              373.66   374.06   588.14   588.28   593.27
                              600.02   617.76   617.93   732.87   733.06
                              742.79   910.34   910.37   911.26   995.41
                             1014.48  1014.61  1024.67  1024.85  1026.15
                             1095.46  1097.57  1097.67  1246.07  1246.34
                             1249.84  1342.04  1342.43  1344.04  1403.80
                             1404.08  1406.51  1439.21  1439.37  1440.31
                             1460.87  1460.89  1461.45  1514.60  1514.66
                             1514.93  1594.01  1594.19  1596.26  1598.03
                             1598.19  1605.82  1717.14  1717.74  1717.78
                             1754.15  1754.44  1756.50  1906.32  1911.62
                             1911.82  1964.10  1964.31  1964.78  2130.07
                             2130.73  2130.79  2202.86  2203.53  2203.68
                             2345.43  2345.82  2345.86  2368.41  2368.48
                             2371.03  4569.60  4569.66  4569.73  4579.02
                             4579.09  4579.24  4593.69  4593.76  4593.93
                             4609.56  4609.67  4610.22  4618.40  4618.54
                             4619.79

 Zero-point correction=                           0.274205 (Hartree/Particle)
 Thermal correction to Energy=                    0.290134
 Thermal correction to Enthalpy=                  0.291078
 Thermal correction to Gibbs Free Energy=         0.227650
 Sum of electronic and zero-point Energies=          -1036.024024
 Sum of electronic and thermal Energies=             -1036.008096
 Sum of electronic and thermal Enthalpies=           -1036.007152
 Sum of electronic and thermal Free Energies=        -1036.070579

                     E (Thermal)             CV                S
                      KCal/Mol        Cal/Mol-Kelvin    Cal/Mol-Kelvin
 Total                  182.062             62.541            133.494
 Electronic               0.000              0.000              0.000
 Translational            0.889              2.981             42.590
 Rotational               0.889              2.981             33.803
 Vibrational            180.284             56.579             57.101
 Vibration     1          0.593              1.985              6.461
 Vibration     2          0.593              1.985              6.365
 Vibration     3          0.594              1.982              5.374
 Vibration     4          0.596              1.976              4.692
 Vibration     5          0.596              1.976              4.690
 Vibration     6          0.598              1.968              4.138
 Vibration     7          0.630              1.865              2.314
 Vibration     8          0.639              1.836              2.111
 Vibration     9          0.639              1.836              2.109
 Vibration    10          0.660              1.770              1.763
 Vibration    11          0.668              1.746              1.664
 Vibration    12          0.668              1.746              1.662
 Vibration    13          0.773              1.451              0.931
 Vibration    14          0.773              1.451              0.931
 Vibration    15          0.776              1.443              0.918
 Vibration    16          0.780              1.433              0.902
 Vibration    17          0.791              1.406              0.861
 Vibration    18          0.791              1.406              0.860
 Vibration    19          0.865              1.229              0.635
 Vibration    20          0.865              1.229              0.635
 Vibration    21          0.871              1.214              0.619

                           ! Non-Optimized Parameters !
 Normal termination of Gaussian 16 at Sun Dec  8 19:16:43 2019.
 Gaussian 16:  ES64L-G16RevA.03 25-Dec-2016

 ----------------------------------------------------------------------
 # TD(NStates=10, Root=1) B3LYP/6-31G* scf=xqc volume pop=NPA density=c
 urrent Geom=AllCheck Guess=Read
 ----------------------------------------------------------------------

 Structure from the checkpoint file:  "direct_arylation_ligand38_conf233.chk"
 -------------------
 Title Card Required
 -------------------
 Charge =  0 Multiplicity = 1

                         Standard orientation:
 ---------------------------------------------------------------------
 Center     Atomic      Atomic             Coordinates (Angstroms)
 Number     Number       Type             X           Y           Z
 ---------------------------------------------------------------------
      1         15           0       -0.000016   -0.000219   -1.206175
      2          6           0        0.266070    1.649353   -0.402631
      3          6           0        1.169823    2.522823   -1.031125
      4          6           0        1.425344    3.788973   -0.505158
      5          6           0        0.765617    4.211675    0.650835
      6          6           0       -0.145247    3.359581    1.277163
      7          6           0       -0.392209    2.087268    0.756677
      8          6           0        1.295350   -1.055270   -0.402035
      9          6           0        1.999808   -0.706088    0.760272
     10          6           0        2.978287   -1.555752    1.281114
     11          6           0        3.264864   -2.768320    0.652109
     12          6           0        2.572926   -3.126321   -0.506877
     13          6           0        1.604017   -2.272286   -1.033145
     14          6           0       -1.561687   -0.594377   -0.402480
     15          6           0       -2.769830   -0.252700   -1.033624
     16          6           0       -3.994069   -0.664458   -0.507471
     17          6           0       -4.030293   -1.442906    0.651363
     18          6           0       -2.837050   -1.801559    1.280348
     19          6           0       -1.611836   -1.379255    0.759666
     20          1           0        1.672926    2.208282   -1.942758
     21          1           0        2.130694    4.449032   -1.003482
     22          1           0        0.955589    5.201755    1.056967
     23          1           0       -0.665907    3.683948    2.174748
     24          1           0       -1.103605    1.434146    1.253079
     25          1           0        1.786875    0.234914    1.258538
     26          1           0        3.516511   -1.268549    2.180995
     27          1           0        4.027434   -3.427580    1.058500
     28          1           0        2.795142   -4.065323   -1.007299
     29          1           0        1.083275   -2.549022   -1.947127
     30          1           0       -2.748856    0.336847   -1.947471
     31          1           0       -4.918270   -0.386997   -1.007862
     32          1           0       -4.982639   -1.773453    1.057651
     33          1           0       -2.857688   -2.411430    2.180119
     34          1           0       -0.690551   -1.665562    1.258014
 ---------------------------------------------------------------------

 SCF Done:  E(RB3LYP) =  -1036.29822942     A.U. after    2 cycles

 Excitation energies and oscillator strengths:

 Excited State   1:      Singlet-A      4.5093 eV  274.95 nm  f=0.1275  <S**2>=0.000
      69 -> 70         0.69703
 This state for optimization and/or second-order correction.
 Total Energy, E(TD-HF/TD-DFT) =  -1036.13251450
 Copying the excited state density for this state as the 1-particle RhoCI density.

 Excited State   2:      Singlet-A      4.5110 eV  274.85 nm  f=0.1283  <S**2>=0.000
      69 -> 71         0.69700

 Excited State   3:      Singlet-A      4.7570 eV  260.63 nm  f=0.0022  <S**2>=0.000
      67 -> 70        -0.12399
      68 -> 71         0.12446
      69 -> 72         0.67466

 Excited State   4:      Singlet-A      5.0574 eV  245.15 nm  f=0.0002  <S**2>=0.000
      66 -> 70         0.16830
      67 -> 71        -0.13468
      68 -> 70         0.13461
      69 -> 74         0.62950

 Excited State   5:      Singlet-A      5.0582 eV  245.12 nm  f=0.0002  <S**2>=0.000
      66 -> 71        -0.16879
      67 -> 70         0.13535
      68 -> 71         0.13527
      69 -> 75         0.62899

 Excited State   6:      Singlet-A      5.1508 eV  240.71 nm  f=0.0085  <S**2>=0.000
      69 -> 73         0.67912

 Excited State   7:      Singlet-A      5.4274 eV  228.44 nm  f=0.0147  <S**2>=0.000
      63 -> 72         0.16609
      64 -> 74         0.14620
      65 -> 75         0.14435
      67 -> 70         0.42375
      68 -> 71        -0.41810
      69 -> 72         0.16517

 Excited State   8:      Singlet-A      5.5139 eV  224.86 nm  f=0.0005  <S**2>=0.000
      63 -> 74         0.14310
      64 -> 70        -0.12071
      64 -> 72         0.22460
      65 -> 71        -0.12028
      65 -> 72        -0.17159
      66 -> 70        -0.22621
      67 -> 71         0.26841
      68 -> 70        -0.27278
      68 -> 72        -0.16087
      69 -> 74         0.28553

 Excited State   9:      Singlet-A      5.5148 eV  224.82 nm  f=0.0004  <S**2>=0.000
      63 -> 75         0.14353
      64 -> 71        -0.11747
      64 -> 72         0.17185
      65 -> 70         0.11996
      65 -> 72         0.22465
      66 -> 71         0.22505
      67 -> 70        -0.26711
      67 -> 72         0.16175
      68 -> 71        -0.27586
      69 -> 75         0.28637

 Excited State  10:      Singlet-A      5.6181 eV  220.69 nm  f=0.0009  <S**2>=0.000
      65 -> 71        -0.10301
      67 -> 71         0.47890
      68 -> 70         0.48539

 The electronic state is 1-A.
 Alpha  occ. eigenvalues --  -77.08112 -10.19447 -10.19447 -10.19446 -10.19147
 Alpha  occ. eigenvalues --  -10.19147 -10.19144 -10.19118 -10.19117 -10.19115
 Alpha  occ. eigenvalues --  -10.19032 -10.19031 -10.19029 -10.19008 -10.19008
 Alpha  occ. eigenvalues --  -10.19005 -10.18963 -10.18962 -10.18960  -6.54843
 Alpha  occ. eigenvalues --   -4.71102  -4.71102  -4.70601  -0.85560  -0.84846
 Alpha  occ. eigenvalues --   -0.84845  -0.76669  -0.74366  -0.74365  -0.74329
 Alpha  occ. eigenvalues --   -0.73821  -0.73821  -0.64436  -0.60336  -0.60307
 Alpha  occ. eigenvalues --   -0.60306  -0.59207  -0.59207  -0.55448  -0.51435
 Alpha  occ. eigenvalues --   -0.51435  -0.49295  -0.45440  -0.45439  -0.44774
 Alpha  occ. eigenvalues --   -0.44344  -0.44344  -0.44067  -0.41946  -0.41868
 Alpha  occ. eigenvalues --   -0.41867  -0.40379  -0.40376  -0.36844  -0.36352
 Alpha  occ. eigenvalues --   -0.36350  -0.35898  -0.34252  -0.34251  -0.34224
 Alpha  occ. eigenvalues --   -0.31885  -0.31883  -0.26776  -0.25449  -0.25445
 Alpha  occ. eigenvalues --   -0.25242  -0.24704  -0.24703  -0.21144
 Alpha virt. eigenvalues --   -0.01882  -0.01878  -0.00830   0.00173   0.00426
 Alpha virt. eigenvalues --    0.00431   0.06880   0.06890   0.09492   0.11038
 Alpha virt. eigenvalues --    0.11040   0.13903   0.14528   0.14529   0.15165

 Mulliken charges:
               1
     1  P    0.450739
     2  C   -0.081088
     3  C   -0.156496
     4  C   -0.118923
     5  C   -0.120627
     6  C   -0.119842
     7  C   -0.148391
     8  C   -0.113186
     9  C   -0.173247
    10  C   -0.115614
    11  C   -0.157256
    12  C   -0.125545
    13  C   -0.159805
    14  C   -0.126901
    15  C   -0.175964
    16  C   -0.118594
    17  C   -0.158289
    18  C   -0.122591
    19  C   -0.164021
    20  H    0.150393
    21  H    0.144322
    22  H    0.147872
    23  H    0.148325
    24  H    0.176964
    25  H    0.127466
    26  H    0.123568
    27  H    0.116892
    28  H    0.121245
    29  H    0.125473
    30  H    0.118233
    31  H    0.118973
    32  H    0.115784
    33  H    0.123783
    34  H    0.146349
 Sum of Mulliken charges =  -0.00000

 Dipole moment (field-independent basis, Debye):
    X=              0.7174    Y=              3.6870    Z=             -0.1971  Tot=              3.7613
 Quadrupole moment (field-independent basis, Debye-Ang):
   XX=           -120.1582   YY=           -106.9070   ZZ=           -110.6656
   XY=              2.2694   XZ=             -0.5722   YZ=              1.2297

 Summary of Natural Population Analysis:

                                       Natural Population
                Natural  -----------------------------------------------
    Atom  No    Charge         Core      Valence    Rydberg      Total
 -----------------------------------------------------------------------
      P    1    1.24228      9.99750     3.70998    0.05025    13.75772
      C    2   -0.37649      1.99891     4.35274    0.02485     6.37649
      C    3   -0.20213      1.99902     4.18801    0.01510     6.20213
      C    4   -0.23504      1.99910     4.22172    0.01423     6.23504
      C    5   -0.19560      1.99909     4.18283    0.01367     6.19560
      C    6   -0.22973      1.99909     4.21660    0.01405     6.22973
      C    7   -0.20509      1.99900     4.19001    0.01608     6.20509
      C    8   -0.44937      1.99887     4.42611    0.02439     6.44937
      C    9   -0.26089      1.99899     4.24416    0.01775     6.26089
      C   10   -0.22393      1.99909     4.21051    0.01433     6.22393
      C   11   -0.27350      1.99909     4.25838    0.01602     6.27350
      C   12   -0.24892      1.99910     4.23474    0.01508     6.24892
      C   13   -0.21413      1.99901     4.19925    0.01586     6.21413
      C   14   -0.47083      1.99888     4.44570    0.02626     6.47083
      C   15   -0.23805      1.99902     4.22276    0.01627     6.23805
      C   16   -0.23665      1.99910     4.22290    0.01466     6.23665
      C   17   -0.27548      1.99909     4.26025    0.01614     6.27548
      C   18   -0.23640      1.99909     4.22267    0.01464     6.23640
      C   19   -0.23689      1.99899     4.22034    0.01756     6.23689
      H   20    0.24287      0.00000     0.75592    0.00120     0.75713
      H   21    0.24383      0.00000     0.75528    0.00089     0.75617
      H   22    0.24282      0.00000     0.75637    0.00082     0.75718
      H   23    0.24633      0.00000     0.75281    0.00086     0.75367
      H   24    0.26202      0.00000     0.73678    0.00120     0.73798
      H   25    0.23455      0.00000     0.76408    0.00136     0.76545
      H   26    0.23479      0.00000     0.76433    0.00088     0.76521
      H   27    0.22951      0.00000     0.76960    0.00089     0.77049
      H   28    0.23350      0.00000     0.76562    0.00088     0.76650
      H   29    0.23075      0.00000     0.76810    0.00115     0.76925
      H   30    0.22554      0.00000     0.77350    0.00097     0.77446
      H   31    0.23174      0.00000     0.76731    0.00095     0.76826
      H   32    0.22893      0.00000     0.77016    0.00091     0.77107
      H   33    0.23504      0.00000     0.76407    0.00089     0.76496
      H   34    0.24461      0.00000     0.75383    0.00157     0.75539
 =======================================================================
   * Total *   -0.00000     45.98001    91.64741    0.37258   138.00000

 Normal termination of Gaussian 16 at Sun Dec  8 19:30:41 2019.
