 Gaussian 16, Revision A.03,

 -----------------------------------------
 # opt=CalcFc B3LYP/6-31G* scf=xqc scf=xqc
 -----------------------------------------

 -------------------
 Title Card Required
 -------------------
 Symbolic Z-matrix:
 Charge =  0 Multiplicity = 1

 SCF Done:  E(RB3LYP) =  -1036.27142284     A.U. after   14 cycles
 SCF Done:  E(RB3LYP) =  -1036.28026121     A.U. after   14 cycles
 SCF Done:  E(RB3LYP) =  -1036.26742639     A.U. after   15 cycles
 SCF Done:  E(RB3LYP) =  -1036.28488422     A.U. after   13 cycles
 SCF Done:  E(RB3LYP) =  -1036.28314985     A.U. after   15 cycles
 SCF Done:  E(RB3LYP) =  -1036.28853706     A.U. after   12 cycles
 SCF Done:  E(RB3LYP) =  -1036.29112281     A.U. after   14 cycles
 SCF Done:  E(RB3LYP) =  -1036.29288586     A.U. after   14 cycles
 SCF Done:  E(RB3LYP) =  -1036.29244756     A.U. after   13 cycles
 SCF Done:  E(RB3LYP) =  -1036.29360888     A.U. after   13 cycles
 SCF Done:  E(RB3LYP) =  -1036.29823176     A.U. after   10 cycles
 SCF Done:  E(RB3LYP) =  -1036.29812449     A.U. after   12 cycles
 SCF Done:  E(RB3LYP) =  -1036.29823451     A.U. after   12 cycles
 SCF Done:  E(RB3LYP) =  -1036.29823235     A.U. after    9 cycles
 SCF Done:  E(RB3LYP) =  -1036.29820922     A.U. after   11 cycles
 SCF Done:  E(RB3LYP) =  -1036.29823237     A.U. after   11 cycles
 SCF Done:  E(RB3LYP) =  -1036.29823160     A.U. after   10 cycles
 SCF Done:  E(RB3LYP) =  -1036.29823537     A.U. after    9 cycles
 Optimization completed.
    -- Stationary point found.
 Normal termination of Gaussian 16 at Sun Dec  8 18:55:07 2019.

 ----------------------------------------------------------------------
 # freq B3LYP/6-31G* scf=xqc volume NMR pop=NPA density=current Geom=Al
 lCheck Guess=Read
 ----------------------------------------------------------------------

 Structure from the checkpoint file:  "direct_arylation_ligand38_conf52.chk"
 -------------------
 Title Card Required
 -------------------
 Charge =  0 Multiplicity = 1

 SCF Done:  E(RB3LYP) =  -1036.29823537     A.U. after    1 cycles

      1  P    Isotropic =   361.4494   Anisotropy =    39.7270

      2  C    Isotropic =    56.0984   Anisotropy =   179.3942

      3  C    Isotropic =    61.0023   Anisotropy =   164.0974

      4  C    Isotropic =    68.7366   Anisotropy =   164.1515

      5  C    Isotropic =    68.1865   Anisotropy =   167.3745

      6  C    Isotropic =    68.6763   Anisotropy =   163.8882

      7  C    Isotropic =    62.5752   Anisotropy =   173.9912

      8  C    Isotropic =    56.1194   Anisotropy =   179.4351

      9  C    Isotropic =    62.5727   Anisotropy =   174.0422

     10  C    Isotropic =    68.6782   Anisotropy =   163.8912

     11  C    Isotropic =    68.1709   Anisotropy =   167.3381

     12  C    Isotropic =    68.7302   Anisotropy =   164.1238

     13  C    Isotropic =    61.0123   Anisotropy =   164.1060

     14  C    Isotropic =    56.1290   Anisotropy =   179.4031

     15  C    Isotropic =    61.0050   Anisotropy =   164.1085

     16  C    Isotropic =    68.7305   Anisotropy =   164.1250

     17  C    Isotropic =    68.1636   Anisotropy =   167.3454

     18  C    Isotropic =    68.6781   Anisotropy =   163.8940

     19  C    Isotropic =    62.5852   Anisotropy =   174.0406

     20  H    Isotropic =    24.6161   Anisotropy =     9.2519

     21  H    Isotropic =    24.9251   Anisotropy =     4.5919

     22  H    Isotropic =    25.0172   Anisotropy =     3.6459

     23  H    Isotropic =    25.0479   Anisotropy =     6.0855

     24  H    Isotropic =    25.4031   Anisotropy =    12.2226

     25  H    Isotropic =    25.4007   Anisotropy =    12.2255

     26  H    Isotropic =    25.0474   Anisotropy =     6.0863

     27  H    Isotropic =    25.0202   Anisotropy =     3.6425

     28  H    Isotropic =    24.9282   Anisotropy =     4.5874

     29  H    Isotropic =    24.6136   Anisotropy =     9.2496

     30  H    Isotropic =    24.6134   Anisotropy =     9.2500

     31  H    Isotropic =    24.9270   Anisotropy =     4.5884

     32  H    Isotropic =    25.0194   Anisotropy =     3.6452

     33  H    Isotropic =    25.0475   Anisotropy =     6.0862

     34  H    Isotropic =    25.4018   Anisotropy =    12.2204

  Exact polarizability: 224.159  -0.018 224.106  -0.006  -0.021 165.060
 Approx polarizability: 330.924  -0.042 330.838  -0.014  -0.052 308.071

                      1                      2                      3
                      A                      A                      A
 Frequencies --     22.3431                23.9810                38.4870
 Red. masses --      3.7938                 3.7969                 3.6896
 Frc consts  --      0.0011                 0.0013                 0.0032
 IR Inten    --      0.2823                 0.2824                 0.0024

                      4                      5                      6
                      A                      A                      A
 Frequencies --     53.2780                53.3854                70.7066
 Red. masses --      5.2550                 5.2593                 5.1665
 Frc consts  --      0.0088                 0.0088                 0.0152
 IR Inten    --      0.0844                 0.0841                 0.3101

                      7                      8                      9
                      A                      A                      A
 Frequencies --    181.7848               202.3633               202.8684
 Red. masses --      4.5629                 4.6403                 4.6391
 Frc consts  --      0.0888                 0.1120                 0.1125
 IR Inten    --      0.3528                 1.1311                 1.1345

                     10                     11                     12
                      A                      A                      A
 Frequencies --    245.5762               259.9321               259.9914
 Red. masses --      5.7411                 4.7238                 4.7213
 Frc consts  --      0.2040                 0.1880                 0.1880
 IR Inten    --      0.4829                 0.2278                 0.2227

                     13                     14                     15
                      A                      A                      A
 Frequencies --    408.8140               408.9408               412.4442
 Red. masses --      3.0778                 3.0805                 3.6161
 Frc consts  --      0.3031                 0.3035                 0.3624
 IR Inten    --      1.9637                 1.9642                 0.1648

                     16                     17                     18
                      A                      A                      A
 Frequencies --    417.0943               429.4806               429.5764
 Red. masses --      4.5792                 7.3246                 7.3075
 Frc consts  --      0.4694                 0.7960                 0.7945
 IR Inten    --      0.5550                 7.7289                 7.7033

                     19                     20                     21
                      A                      A                      A
 Frequencies --    509.5407               509.6554               516.4264
 Red. masses --      4.2486                 4.2442                 4.5921
 Frc consts  --      0.6499                 0.6495                 0.7216
 IR Inten    --     26.1380                26.0588                11.9553

                     22                     23                     24
                      A                      A                      A
 Frequencies --    632.7395               632.7618               633.3787
 Red. masses --      6.4272                 6.4275                 6.4369
 Frc consts  --      1.5161                 1.5163                 1.5214
 IR Inten    --      0.1819                 0.1811                 0.0158

                     25                     26                     27
                      A                      A                      A
 Frequencies --    691.8938               705.1622               705.2374
 Red. masses --      6.5788                 5.7233                 5.7442
 Frc consts  --      1.8556                 1.6768                 1.6833
 IR Inten    --      0.7966                 1.1727                 1.1076

                     28                     29                     30
                      A                      A                      A
 Frequencies --    712.2664               712.4023               713.3476
 Red. masses --      2.1977                 2.1951                 2.1365
 Frc consts  --      0.6569                 0.6564                 0.6406
 IR Inten    --     26.4008                26.4599                16.5859

                     31                     32                     33
                      A                      A                      A
 Frequencies --    761.3992               762.8518               762.9259
 Red. masses --      1.6142                 1.6499                 1.6504
 Frc consts  --      0.5514                 0.5657                 0.5660
 IR Inten    --     19.2339                24.8931                24.8403

                     34                     35                     36
                      A                      A                      A
 Frequencies --    866.1810               866.3201               868.8054
 Red. masses --      1.2477                 1.2476                 1.2462
 Frc consts  --      0.5516                 0.5517                 0.5542
 IR Inten    --      0.2265                 0.2204                 0.1318

                     37                     38                     39
                      A                      A                      A
 Frequencies --    932.8311               932.9937               934.3353
 Red. masses --      1.3443                 1.3439                 1.3383
 Frc consts  --      0.6892                 0.6893                 0.6884
 IR Inten    --      1.2576                 1.2632                 0.0315

                     40                     41                     42
                      A                      A                      A
 Frequencies --    975.8110               975.9554               977.7092
 Red. masses --      1.3613                 1.3610                 1.3553
 Frc consts  --      0.7637                 0.7638                 0.7633
 IR Inten    --      0.0172                 0.0152                 0.1372

                     43                     44                     45
                      A                      A                      A
 Frequencies --   1000.3302              1000.4212              1001.1513
 Red. masses --      1.2543                 1.2542                 1.2525
 Frc consts  --      0.7395                 0.7396                 0.7397
 IR Inten    --      0.0777                 0.0787                 0.0006

                     46                     47                     48
                      A                      A                      A
 Frequencies --   1015.3691              1015.3888              1015.7565
 Red. masses --      6.3124                 6.3115                 6.3058
 Frc consts  --      3.8344                 3.8340                 3.8333
 IR Inten    --      4.3544                 4.3525                 0.0515

                     49                     50                     51
                      A                      A                      A
 Frequencies --   1052.7185              1052.7607              1052.9172
 Red. masses --      3.3094                 3.3148                 3.2517
 Frc consts  --      2.1608                 2.1645                 2.1239
 IR Inten    --      2.1099                 2.0895                 0.0392

                     52                     53                     54
                      A                      A                      A
 Frequencies --   1107.6354              1108.0997              1109.5016
 Red. masses --      1.8943                 1.8685                 1.6546
 Frc consts  --      1.3693                 1.3518                 1.2001
 IR Inten    --      4.4731                 3.9538                 2.8794

                     55                     56                     57
                      A                      A                      A
 Frequencies --   1110.8406              1110.9307              1116.1927
 Red. masses --      2.1861                 2.2005                 2.6134
 Frc consts  --      1.5893                 1.6001                 1.9184
 IR Inten    --      9.4001                 9.5193                 1.2043

                     58                     59                     60
                      A                      A                      A
 Frequencies --   1193.5023              1193.9032              1193.9661
 Red. masses --      1.1033                 1.1000                 1.1001
 Frc consts  --      0.9260                 0.9238                 0.9240
 IR Inten    --      0.0028                 0.1312                 0.1275

                     61                     62                     63
                      A                      A                      A
 Frequencies --   1219.1061              1219.4913              1220.8577
 Red. masses --      1.1475                 1.1478                 1.1473
 Frc consts  --      1.0048                 1.0057                 1.0075
 IR Inten    --      5.9532                 6.0919                 0.4197

                     64                     65                     66
                      A                      A                      A
 Frequencies --   1325.0686              1328.6834              1328.8803
 Red. masses --      3.4965                 3.4776                 3.5145
 Frc consts  --      3.6171                 3.6172                 3.6566
 IR Inten    --      2.6280                 2.4320                 2.4430

                     67                     68                     69
                      A                      A                      A
 Frequencies --   1364.9194              1365.3619              1365.6520
 Red. masses --      1.6625                 1.6487                 1.6408
 Frc consts  --      1.8248                 1.8108                 1.8029
 IR Inten    --      0.4904                 0.1918                 2.7164

                     70                     71                     72
                      A                      A                      A
 Frequencies --   1480.5334              1480.9712              1481.0515
 Red. masses --      2.1110                 2.1157                 2.1160
 Frc consts  --      2.7263                 2.7340                 2.7347
 IR Inten    --     16.5845                 6.6377                 6.6331

                     73                     74                     75
                      A                      A                      A
 Frequencies --   1531.0306              1531.5125              1531.6345
 Red. masses --      2.0156                 1.9994                 1.9977
 Frc consts  --      2.7836                 2.7630                 2.7611
 IR Inten    --      2.0548                10.0761                10.1470

                     76                     77                     78
                      A                      A                      A
 Frequencies --   1630.1599              1630.4205              1630.4714
 Red. masses --      5.1021                 5.1144                 5.1121
 Frc consts  --      7.9884                 8.0103                 8.0070
 IR Inten    --      0.3929                 0.0495                 0.0439

                     79                     80                     81
                      A                      A                      A
 Frequencies --   1646.1513              1646.1792              1647.9526
 Red. masses --      5.2727                 5.2696                 5.2831
 Frc consts  --      8.4182                 8.4137                 8.4533
 IR Inten    --      3.5085                 3.5091                 0.3205

                     82                     83                     84
                      A                      A                      A
 Frequencies --   3176.0512              3176.0864              3176.1729
 Red. masses --      1.0853                 1.0854                 1.0853
 Frc consts  --      6.4505                 6.4508                 6.4509
 IR Inten    --      2.0844                 1.9904                 1.9478

                     85                     86                     87
                      A                      A                      A
 Frequencies --   3182.6147              3182.6518              3182.7377
 Red. masses --      1.0875                 1.0875                 1.0876
 Frc consts  --      6.4900                 6.4903                 6.4910
 IR Inten    --      0.7620                 0.6587                 0.2704

                     88                     89                     90
                      A                      A                      A
 Frequencies --   3192.7914              3192.8718              3192.9867
 Red. masses --      1.0916                 1.0917                 1.0917
 Frc consts  --      6.5565                 6.5569                 6.5578
 IR Inten    --     12.4863                11.8372                43.8207

                     91                     92                     93
                      A                      A                      A
 Frequencies --   3203.8338              3203.9934              3204.3325
 Red. masses --      1.0941                 1.0942                 1.0943
 Frc consts  --      6.6167                 6.6178                 6.6198
 IR Inten    --     39.9891                41.7148                 5.9570

                     94                     95                     96
                      A                      A                      A
 Frequencies --   3210.0068              3210.1875              3211.0111
 Red. masses --      1.0957                 1.0956                 1.0956
 Frc consts  --      6.6520                 6.6521                 6.6555
 IR Inten    --     20.2067                19.4933                16.3095

 - Thermochemistry -
 -------------------
 Temperature   298.150 Kelvin.  Pressure   1.00000 Atm.
 Atom     1 has atomic number 15 and mass  30.97376

 Molecular mass:   262.09114 amu.
 Principal axes and moments of inertia in atomic units:
                           1         2         3
     Eigenvalues --  5162.650495164.000768681.34166
           X            0.99991  -0.01341  -0.00000
           Y            0.01341   0.99991  -0.00001
           Z            0.00000   0.00001   1.00000
 This molecule is an asymmetric top.
 Rotational symmetry number  1.
 Warning -- assumption of classical behavior for rotation
           may cause significant error
 Rotational temperatures (Kelvin)      0.01678     0.01677     0.00998
 Rotational constants (GHZ):           0.34958     0.34949     0.20789
 Zero-point vibrational energy     719971.2 (Joules/Mol)
                                  172.07724 (Kcal/Mol)
 Warning -- explicit consideration of  21 degrees of freedom as
           vibrations may cause significant error
 Vibrational temperatures:     32.15    34.50    55.37    76.66    76.81
          (Kelvin)            101.73   261.55   291.16   291.88   353.33
                              373.98   374.07   588.19   588.37   593.42
                              600.11   617.93   618.06   733.12   733.28
                              743.02   910.37   910.40   911.29   995.48
                             1014.57  1014.68  1024.79  1024.99  1026.35
                             1095.48  1097.57  1097.68  1246.24  1246.44
                             1250.02  1342.14  1342.37  1344.30  1403.97
                             1404.18  1406.71  1439.25  1439.38  1440.43
                             1460.89  1460.92  1461.45  1514.63  1514.69
                             1514.91  1593.64  1594.31  1596.33  1598.25
                             1598.38  1605.95  1717.18  1717.76  1717.85
                             1754.02  1754.58  1756.54  1906.48  1911.68
                             1911.96  1963.81  1964.45  1964.87  2130.16
                             2130.79  2130.90  2202.81  2203.50  2203.68
                             2345.44  2345.81  2345.88  2368.44  2368.48
                             2371.04  4569.63  4569.68  4569.80  4579.07
                             4579.13  4579.25  4593.71  4593.83  4594.00
                             4609.60  4609.83  4610.32  4618.48  4618.74
                             4619.93

 Zero-point correction=                           0.274223 (Hartree/Particle)
 Thermal correction to Energy=                    0.290143
 Thermal correction to Enthalpy=                  0.291087
 Thermal correction to Gibbs Free Energy=         0.227752
 Sum of electronic and zero-point Energies=          -1036.024013
 Sum of electronic and thermal Energies=             -1036.008093
 Sum of electronic and thermal Enthalpies=           -1036.007149
 Sum of electronic and thermal Free Energies=        -1036.070483

                     E (Thermal)             CV                S
                      KCal/Mol        Cal/Mol-Kelvin    Cal/Mol-Kelvin
 Total                  182.067             62.534            133.299
 Electronic               0.000              0.000              0.000
 Translational            0.889              2.981             42.590
 Rotational               0.889              2.981             33.803
 Vibrational            180.290             56.572             56.906
 Vibration     1          0.593              1.985              6.414
 Vibration     2          0.593              1.985              6.274
 Vibration     3          0.594              1.982              5.335
 Vibration     4          0.596              1.976              4.692
 Vibration     5          0.596              1.976              4.688
 Vibration     6          0.598              1.968              4.134
 Vibration     7          0.630              1.865              2.310
 Vibration     8          0.639              1.837              2.112
 Vibration     9          0.639              1.836              2.107
 Vibration    10          0.660              1.770              1.762
 Vibration    11          0.668              1.746              1.662
 Vibration    12          0.668              1.746              1.662
 Vibration    13          0.773              1.451              0.931
 Vibration    14          0.773              1.451              0.930
 Vibration    15          0.776              1.443              0.918
 Vibration    16          0.780              1.433              0.902
 Vibration    17          0.791              1.406              0.860
 Vibration    18          0.791              1.406              0.860
 Vibration    19          0.865              1.229              0.635
 Vibration    20          0.865              1.229              0.634
 Vibration    21          0.871              1.214              0.618

                           ! Non-Optimized Parameters !
 Normal termination of Gaussian 16 at Sun Dec  8 19:10:37 2019.
 Gaussian 16:  ES64L-G16RevA.03 25-Dec-2016

 ----------------------------------------------------------------------
 # TD(NStates=10, Root=1) B3LYP/6-31G* scf=xqc volume pop=NPA density=c
 urrent Geom=AllCheck Guess=Read
 ----------------------------------------------------------------------

 Structure from the checkpoint file:  "direct_arylation_ligand38_conf53.chk"
 -------------------
 Title Card Required
 -------------------
 Charge =  0 Multiplicity = 1

                         Standard orientation:
 ---------------------------------------------------------------------
 Center     Atomic      Atomic             Coordinates (Angstroms)
 Number     Number       Type             X           Y           Z
 ---------------------------------------------------------------------
      1         15           0        0.000185   -0.000037   -1.206160
      2          6           0       -0.939056   -1.381911   -0.402484
      3          6           0       -2.126252   -1.792541   -1.032282
      4          6           0       -2.893595   -2.831543   -0.506195
      5          6           0       -2.475956   -3.491999    0.651210
      6          6           0       -1.291309   -3.103775    1.278861
      7          6           0       -0.529179   -2.055545    0.758273
      8          6           0       -0.727247    1.504115   -0.402447
      9          6           0       -1.514348    1.485738    0.759133
     10          6           0       -2.041313    2.669650    1.279964
     11          6           0       -1.786672    3.889701    0.651695
     12          6           0       -1.007130    3.921381   -0.506540
     13          6           0       -0.490720    2.737543   -1.032831
     14          6           0        1.666455   -0.122283   -0.402241
     15          6           0        2.616322   -0.943676   -1.032925
     16          6           0        3.899865   -1.088382   -0.506913
     17          6           0        4.262368   -0.397616    0.651376
     18          6           0        3.333152    0.432775    1.279930
     19          6           0        2.044261    0.568407    0.759357
     20          1           0       -2.447935   -1.296020   -1.945029
     21          1           0       -3.811001   -3.132429   -1.005553
     22          1           0       -3.067030   -4.308655    1.057408
     23          1           0       -0.957770   -3.616701    2.177535
     24          1           0        0.390779   -1.763531    1.255749
     25          1           0       -1.720246    0.542935    1.256948
     26          1           0       -2.651316    2.637107    2.179295
     27          1           0       -2.198570    4.809743    1.058090
     28          1           0       -0.810179    4.866324   -1.006357
     29          1           0        0.099123    2.767999   -1.946219
     30          1           0        2.347650   -1.469583   -1.946356
     31          1           0        4.619672   -1.731289   -1.006986
     32          1           0        5.265179   -0.500917    1.057564
     33          1           0        3.610111    0.977223    2.179278
     34          1           0        1.330886    1.218128    1.257388
 ---------------------------------------------------------------------

 SCF Done:  E(RB3LYP) =  -1036.29823537     A.U. after    2 cycles

 Excitation energies and oscillator strengths:

 Excited State   1:      Singlet-A      4.5098 eV  274.92 nm  f=0.1278  <S**2>=0.000
      69 -> 70         0.69693
 This state for optimization and/or second-order correction.
 Total Energy, E(TD-HF/TD-DFT) =  -1036.13250368
 Copying the excited state density for this state as the 1-particle RhoCI density.

 Excited State   2:      Singlet-A      4.5105 eV  274.88 nm  f=0.1280  <S**2>=0.000
      69 -> 71         0.69692

 Excited State   3:      Singlet-A      4.7570 eV  260.63 nm  f=0.0022  <S**2>=0.000
      67 -> 70         0.12358
      68 -> 71         0.12373
      69 -> 72         0.67466

 Excited State   4:      Singlet-A      5.0576 eV  245.14 nm  f=0.0002  <S**2>=0.000
      66 -> 70         0.17078
      67 -> 71        -0.11859
      68 -> 70        -0.11863
      69 -> 74         0.62995

 Excited State   5:      Singlet-A      5.0579 eV  245.13 nm  f=0.0002  <S**2>=0.000
      66 -> 71         0.17092
      67 -> 70        -0.11881
      68 -> 71         0.11877
      69 -> 75         0.62978

 Excited State   6:      Singlet-A      5.1508 eV  240.71 nm  f=0.0085  <S**2>=0.000
      69 -> 73         0.67915

 Excited State   7:      Singlet-A      5.4274 eV  228.44 nm  f=0.0147  <S**2>=0.000
      63 -> 72        -0.16612
      64 -> 74        -0.13080
      64 -> 75         0.10248
      65 -> 74        -0.10295
      65 -> 75        -0.13010
      67 -> 70         0.42167
      68 -> 71         0.41961
      69 -> 72        -0.16518

 Excited State   8:      Singlet-A      5.5142 eV  224.85 nm  f=0.0004  <S**2>=0.000
      63 -> 74         0.14499
      64 -> 70         0.12540
      64 -> 72         0.21523
      64 -> 75        -0.11165
      65 -> 71        -0.12502
      65 -> 72         0.18328
      65 -> 74        -0.11151
      66 -> 70        -0.22630
      67 -> 70         0.14078
      67 -> 71         0.23170
      68 -> 70         0.23362
      68 -> 71        -0.14158
      68 -> 72        -0.16293
      69 -> 74         0.28875

 Excited State   9:      Singlet-A      5.5145 eV  224.83 nm  f=0.0004  <S**2>=0.000
      63 -> 75         0.14510
      64 -> 71        -0.12420
      64 -> 72        -0.18338
      64 -> 74        -0.11110
      65 -> 70        -0.12508
      65 -> 72         0.21529
      65 -> 75         0.11175
      66 -> 71        -0.22574
      67 -> 70         0.23138
      67 -> 71        -0.14118
      67 -> 72         0.16309
      68 -> 70        -0.14177
      68 -> 71        -0.23448
      69 -> 75         0.28903

 Excited State  10:      Singlet-A      5.6181 eV  220.69 nm  f=0.0009  <S**2>=0.000
      67 -> 71        -0.47927
      68 -> 70         0.48200

 The electronic state is 1-A.
 Alpha  occ. eigenvalues --  -77.08112 -10.19447 -10.19447 -10.19447 -10.19147
 Alpha  occ. eigenvalues --  -10.19146 -10.19145 -10.19117 -10.19117 -10.19116
 Alpha  occ. eigenvalues --  -10.19031 -10.19031 -10.19030 -10.19007 -10.19007
 Alpha  occ. eigenvalues --  -10.19006 -10.18962 -10.18962 -10.18961  -6.54843
 Alpha  occ. eigenvalues --   -4.71102  -4.71102  -4.70601  -0.85560  -0.84846
 Alpha  occ. eigenvalues --   -0.84845  -0.76669  -0.74366  -0.74366  -0.74329
 Alpha  occ. eigenvalues --   -0.73821  -0.73821  -0.64436  -0.60336  -0.60307
 Alpha  occ. eigenvalues --   -0.60306  -0.59207  -0.59207  -0.55448  -0.51435
 Alpha  occ. eigenvalues --   -0.51435  -0.49295  -0.45440  -0.45440  -0.44774
 Alpha  occ. eigenvalues --   -0.44344  -0.44344  -0.44068  -0.41946  -0.41868
 Alpha  occ. eigenvalues --   -0.41868  -0.40378  -0.40377  -0.36844  -0.36352
 Alpha  occ. eigenvalues --   -0.36351  -0.35898  -0.34252  -0.34251  -0.34224
 Alpha  occ. eigenvalues --   -0.31884  -0.31883  -0.26776  -0.25448  -0.25447
 Alpha  occ. eigenvalues --   -0.25242  -0.24704  -0.24704  -0.21144
 Alpha virt. eigenvalues --   -0.01881  -0.01879  -0.00830   0.00173   0.00428
 Alpha virt. eigenvalues --    0.00429   0.06884   0.06887   0.09492   0.11039
 Alpha virt. eigenvalues --    0.11039   0.13903   0.14529   0.14529   0.15165

 Mulliken charges:
               1
     1  P    0.450655
     2  C   -0.083288
     3  C   -0.158649
     4  C   -0.118153
     5  C   -0.121321
     6  C   -0.120677
     7  C   -0.147592
     8  C   -0.107562
     9  C   -0.170995
    10  C   -0.115412
    11  C   -0.152471
    12  C   -0.125433
    13  C   -0.157624
    14  C   -0.130238
    15  C   -0.176033
    16  C   -0.119455
    17  C   -0.162377
    18  C   -0.121979
    19  C   -0.167012
    20  H    0.149053
    21  H    0.143657
    22  H    0.147241
    23  H    0.147959
    24  H    0.178558
    25  H    0.131681
    26  H    0.126706
    27  H    0.120973
    28  H    0.124461
    29  H    0.129477
    30  H    0.115569
    31  H    0.116423
    32  H    0.112337
    33  H    0.121008
    34  H    0.140514
 Sum of Mulliken charges =  -0.00000

 Dipole moment (field-independent basis, Debye):
    X=             -2.7872    Y=             -2.5058    Z=             -0.1963  Tot=              3.7532
 Quadrupole moment (field-independent basis, Debye-Ang):
   XX=           -117.3526   YY=           -109.7161   ZZ=           -110.6617
   XY=              5.8695   XZ=             -0.2844   YZ=             -1.3135

 Summary of Natural Population Analysis:

                                       Natural Population
                Natural  -----------------------------------------------
    Atom  No    Charge         Core      Valence    Rydberg      Total
 -----------------------------------------------------------------------
      P    1    1.24228      9.99750     3.70997    0.05025    13.75772
      C    2   -0.38033      1.99891     4.35634    0.02509     6.38033
      C    3   -0.20542      1.99902     4.19122    0.01518     6.20542
      C    4   -0.23373      1.99910     4.22044    0.01419     6.23373
      C    5   -0.19705      1.99909     4.18423    0.01373     6.19705
      C    6   -0.23125      1.99909     4.21807    0.01409     6.23125
      C    7   -0.20296      1.99900     4.18788    0.01608     6.20296
      C    8   -0.43767      1.99887     4.41455    0.02425     6.43767
      C    9   -0.25627      1.99899     4.23970    0.01757     6.25627
      C   10   -0.22334      1.99909     4.20999    0.01426     6.22334
      C   11   -0.26337      1.99909     4.24854    0.01573     6.26337
      C   12   -0.24842      1.99910     4.23430    0.01502     6.24842
      C   13   -0.20999      1.99901     4.19525    0.01572     6.20999
      C   14   -0.47869      1.99887     4.45366    0.02616     6.47869
      C   15   -0.23893      1.99902     4.22358    0.01633     6.23893
      C   16   -0.23844      1.99910     4.22458    0.01476     6.23844
      C   17   -0.28415      1.99909     4.26868    0.01637     6.28415
      C   18   -0.23551      1.99909     4.22176    0.01466     6.23551
      C   19   -0.24360      1.99899     4.22688    0.01773     6.24360
      H   20    0.24201      0.00000     0.75681    0.00118     0.75799
      H   21    0.24344      0.00000     0.75566    0.00090     0.75656
      H   22    0.24254      0.00000     0.75664    0.00082     0.75746
      H   23    0.24619      0.00000     0.75295    0.00086     0.75381
      H   24    0.26286      0.00000     0.73592    0.00122     0.73714
      H   25    0.23693      0.00000     0.76173    0.00134     0.76307
      H   26    0.23624      0.00000     0.76288    0.00088     0.76376
      H   27    0.23128      0.00000     0.76783    0.00089     0.76872
      H   28    0.23503      0.00000     0.76410    0.00088     0.76497
      H   29    0.23289      0.00000     0.76592    0.00118     0.76711
      H   30    0.22426      0.00000     0.77478    0.00096     0.77574
      H   31    0.23061      0.00000     0.76845    0.00095     0.76939
      H   32    0.22745      0.00000     0.77165    0.00091     0.77255
      H   33    0.23374      0.00000     0.76537    0.00088     0.76626
      H   34    0.24138      0.00000     0.75705    0.00157     0.75862
 =======================================================================
   * Total *   -0.00000     45.98001    91.64740    0.37259   138.00000

 Normal termination of Gaussian 16 at Sun Dec  8 19:25:49 2019.
