 Gaussian 16, Revision A.03,

 -----------------------------------------
 # opt=CalcFc B3LYP/6-31G* scf=xqc scf=xqc
 -----------------------------------------

 -------------------
 Title Card Required
 -------------------
 Symbolic Z-matrix:
 Charge =  0 Multiplicity = 1

 SCF Done:  E(RB3LYP) =  -1036.28339923     A.U. after   14 cycles
 SCF Done:  E(RB3LYP) =  -1036.29541354     A.U. after   14 cycles
 SCF Done:  E(RB3LYP) =  -1036.29427646     A.U. after   14 cycles
 SCF Done:  E(RB3LYP) =  -1036.29634323     A.U. after   14 cycles
 SCF Done:  E(RB3LYP) =  -1036.29683906     A.U. after   12 cycles
 SCF Done:  E(RB3LYP) =  -1036.29723401     A.U. after   14 cycles
 SCF Done:  E(RB3LYP) =  -1036.29743833     A.U. after   12 cycles
 SCF Done:  E(RB3LYP) =  -1036.29772489     A.U. after   12 cycles
 SCF Done:  E(RB3LYP) =  -1036.29786337     A.U. after   12 cycles
 SCF Done:  E(RB3LYP) =  -1036.29796687     A.U. after   12 cycles
 SCF Done:  E(RB3LYP) =  -1036.29822913     A.U. after    9 cycles
 SCF Done:  E(RB3LYP) =  -1036.29822889     A.U. after    8 cycles
 SCF Done:  E(RB3LYP) =  -1036.29823293     A.U. after    7 cycles
 SCF Done:  E(RB3LYP) =  -1036.29823042     A.U. after    8 cycles
 SCF Done:  E(RB3LYP) =  -1036.29823287     A.U. after    8 cycles
 SCF Done:  E(RB3LYP) =  -1036.29822940     A.U. after   10 cycles
 SCF Done:  E(RB3LYP) =  -1036.29823318     A.U. after   10 cycles
 SCF Done:  E(RB3LYP) =  -1036.29823178     A.U. after    9 cycles
 Optimization completed.
    -- Stationary point found.
 Normal termination of Gaussian 16 at Sun Dec  8 18:22:36 2019.

 ----------------------------------------------------------------------
 # freq B3LYP/6-31G* scf=xqc volume NMR pop=NPA density=current Geom=Al
 lCheck Guess=Read
 ----------------------------------------------------------------------

 Structure from the checkpoint file:  "direct_arylation_ligand38_conf102.chk"
 -------------------
 Title Card Required
 -------------------
 Charge =  0 Multiplicity = 1

 SCF Done:  E(RB3LYP) =  -1036.29823178     A.U. after    1 cycles

      1  P    Isotropic =   361.4647   Anisotropy =    39.6243

      2  C    Isotropic =    56.1151   Anisotropy =   179.4713

      3  C    Isotropic =    62.6305   Anisotropy =   174.0768

      4  C    Isotropic =    68.6844   Anisotropy =   163.8942

      5  C    Isotropic =    68.1779   Anisotropy =   167.2737

      6  C    Isotropic =    68.7333   Anisotropy =   164.0908

      7  C    Isotropic =    61.0552   Anisotropy =   164.1779

      8  C    Isotropic =    56.1543   Anisotropy =   179.4264

      9  C    Isotropic =    62.5569   Anisotropy =   174.1016

     10  C    Isotropic =    68.6751   Anisotropy =   163.8996

     11  C    Isotropic =    68.1553   Anisotropy =   167.3601

     12  C    Isotropic =    68.7239   Anisotropy =   164.1269

     13  C    Isotropic =    60.9807   Anisotropy =   164.1010

     14  C    Isotropic =    56.1001   Anisotropy =   179.4545

     15  C    Isotropic =    60.9989   Anisotropy =   164.0970

     16  C    Isotropic =    68.7172   Anisotropy =   164.1327

     17  C    Isotropic =    68.1570   Anisotropy =   167.3434

     18  C    Isotropic =    68.6853   Anisotropy =   163.8773

     19  C    Isotropic =    62.5722   Anisotropy =   174.0506

     20  H    Isotropic =    25.4010   Anisotropy =    12.2458

     21  H    Isotropic =    25.0493   Anisotropy =     6.0871

     22  H    Isotropic =    25.0248   Anisotropy =     3.6335

     23  H    Isotropic =    24.9315   Anisotropy =     4.5833

     24  H    Isotropic =    24.6154   Anisotropy =     9.2615

     25  H    Isotropic =    25.3933   Anisotropy =    12.2230

     26  H    Isotropic =    25.0458   Anisotropy =     6.0867

     27  H    Isotropic =    25.0186   Anisotropy =     3.6419

     28  H    Isotropic =    24.9265   Anisotropy =     4.5862

     29  H    Isotropic =    24.6104   Anisotropy =     9.2463

     30  H    Isotropic =    24.6113   Anisotropy =     9.2519

     31  H    Isotropic =    24.9256   Anisotropy =     4.5905

     32  H    Isotropic =    25.0204   Anisotropy =     3.6416

     33  H    Isotropic =    25.0486   Anisotropy =     6.0858

     34  H    Isotropic =    25.3993   Anisotropy =    12.2217

  Exact polarizability: 224.254   0.067 223.950   0.008  -0.124 165.103
 Approx polarizability: 331.125   0.155 330.533   0.022  -0.292 308.162

                      1                      2                      3
                      A                      A                      A
 Frequencies --     21.5602                23.6267                37.8271
 Red. masses --      3.7954                 3.7970                 3.6888
 Frc consts  --      0.0010                 0.0012                 0.0031
 IR Inten    --      0.2798                 0.2816                 0.0021

                      4                      5                      6
                      A                      A                      A
 Frequencies --     53.2590                53.3959                70.6354
 Red. masses --      5.2504                 5.2571                 5.1670
 Frc consts  --      0.0088                 0.0088                 0.0152
 IR Inten    --      0.0870                 0.0846                 0.3103

                      7                      8                      9
                      A                      A                      A
 Frequencies --    181.4708               202.2818               202.7176
 Red. masses --      4.5602                 4.6432                 4.6422
 Frc consts  --      0.0885                 0.1119                 0.1124
 IR Inten    --      0.3529                 1.1369                 1.1382

                     10                     11                     12
                      A                      A                      A
 Frequencies --    245.5895               259.7438               260.1210
 Red. masses --      5.7401                 4.7191                 4.7236
 Frc consts  --      0.2040                 0.1876                 0.1883
 IR Inten    --      0.4822                 0.2257                 0.2237

                     13                     14                     15
                      A                      A                      A
 Frequencies --    408.7599               408.8408               412.3654
 Red. masses --      3.0781                 3.0795                 3.5697
 Frc consts  --      0.3030                 0.3033                 0.3576
 IR Inten    --      1.9526                 1.9690                 0.1536

                     16                     17                     18
                      A                      A                      A
 Frequencies --    417.1164               429.3450               429.6066
 Red. masses --      4.6542                 7.3032                 7.3106
 Frc consts  --      0.4771                 0.7932                 0.7950
 IR Inten    --      0.5691                 7.6478                 7.7250

                     19                     20                     21
                      A                      A                      A
 Frequencies --    509.4357               509.5554               516.3117
 Red. masses --      4.2466                 4.2486                 4.5895
 Frc consts  --      0.6493                 0.6499                 0.7208
 IR Inten    --     26.0981                26.1955                11.9745

                     22                     23                     24
                      A                      A                      A
 Frequencies --    632.7118               632.7528               633.3703
 Red. masses --      6.4271                 6.4271                 6.4367
 Frc consts  --      1.5159                 1.5161                 1.5214
 IR Inten    --      0.1818                 0.1811                 0.0162

                     25                     26                     27
                      A                      A                      A
 Frequencies --    691.9089               705.1851               705.2244
 Red. masses --      6.5808                 5.6932                 5.7403
 Frc consts  --      1.8562                 1.6681                 1.6821
 IR Inten    --      0.7751                 1.1934                 1.1711

                     28                     29                     30
                      A                      A                      A
 Frequencies --    712.1876               712.3258               713.2519
 Red. masses --      2.2038                 2.1999                 2.1333
 Frc consts  --      0.6586                 0.6577                 0.6394
 IR Inten    --     26.3794                26.3466                16.5899

                     31                     32                     33
                      A                      A                      A
 Frequencies --    761.3864               762.8804               762.9365
 Red. masses --      1.6153                 1.6485                 1.6479
 Frc consts  --      0.5517                 0.5653                 0.5651
 IR Inten    --     19.1774                24.9026                24.9140

                     34                     35                     36
                      A                      A                      A
 Frequencies --    866.1324               866.2349               868.7116
 Red. masses --      1.2478                 1.2477                 1.2463
 Frc consts  --      0.5515                 0.5516                 0.5541
 IR Inten    --      0.2298                 0.2219                 0.1338

                     37                     38                     39
                      A                      A                      A
 Frequencies --    932.9244               932.9721               934.2093
 Red. masses --      1.3443                 1.3441                 1.3386
 Frc consts  --      0.6894                 0.6893                 0.6883
 IR Inten    --      1.2597                 1.2624                 0.0316

                     40                     41                     42
                      A                      A                      A
 Frequencies --    975.7615               975.8619               977.5973
 Red. masses --      1.3614                 1.3612                 1.3557
 Frc consts  --      0.7637                 0.7637                 0.7634
 IR Inten    --      0.0166                 0.0159                 0.1423

                     43                     44                     45
                      A                      A                      A
 Frequencies --   1000.3766              1000.3821              1001.0969
 Red. masses --      1.2544                 1.2542                 1.2526
 Frc consts  --      0.7396                 0.7395                 0.7396
 IR Inten    --      0.0780                 0.0793                 0.0004

                     46                     47                     48
                      A                      A                      A
 Frequencies --   1015.3753              1015.3796              1015.7609
 Red. masses --      6.3110                 6.3133                 6.3105
 Frc consts  --      3.8336                 3.8350                 3.8362
 IR Inten    --      4.3640                 4.3688                 0.0444

                     49                     50                     51
                      A                      A                      A
 Frequencies --   1052.6862              1052.7516              1052.9210
 Red. masses --      3.3092                 3.3160                 3.2543
 Frc consts  --      2.1606                 2.1653                 2.1257
 IR Inten    --      2.0948                 2.0804                 0.0541

                     52                     53                     54
                      A                      A                      A
 Frequencies --   1107.8471              1108.1923              1109.5422
 Red. masses --      1.8793                 1.8512                 1.6550
 Frc consts  --      1.3589                 1.3395                 1.2004
 IR Inten    --      4.1532                 3.7150                 2.8129

                     55                     56                     57
                      A                      A                      A
 Frequencies --   1110.7740              1110.8576              1116.2766
 Red. masses --      2.1969                 2.2362                 2.6133
 Frc consts  --      1.5970                 1.6258                 1.9186
 IR Inten    --      9.4963                 9.9378                 1.2729

                     58                     59                     60
                      A                      A                      A
 Frequencies --   1193.4834              1193.8879              1193.9300
 Red. masses --      1.1033                 1.0999                 1.1001
 Frc consts  --      0.9259                 0.9237                 0.9239
 IR Inten    --      0.0016                 0.1299                 0.1300

                     61                     62                     63
                      A                      A                      A
 Frequencies --   1219.1783              1219.5100              1220.9438
 Red. masses --      1.1475                 1.1478                 1.1473
 Frc consts  --      1.0049                 1.0057                 1.0077
 IR Inten    --      6.0468                 6.0165                 0.4177

                     64                     65                     66
                      A                      A                      A
 Frequencies --   1325.0184              1328.6294              1328.8790
 Red. masses --      3.4985                 3.4746                 3.5240
 Frc consts  --      3.6189                 3.6138                 3.6665
 IR Inten    --      2.6304                 2.4303                 2.4464

                     67                     68                     69
                      A                      A                      A
 Frequencies --   1365.0751              1365.3318              1365.7198
 Red. masses --      1.6604                 1.6513                 1.6377
 Frc consts  --      1.8229                 1.8136                 1.7997
 IR Inten    --      0.2072                 0.6667                 2.5261

                     70                     71                     72
                      A                      A                      A
 Frequencies --   1480.4981              1480.9439              1481.0121
 Red. masses --      2.1108                 2.1148                 2.1167
 Frc consts  --      2.7259                 2.7328                 2.7355
 IR Inten    --     16.6107                 6.5892                 6.6609

                     73                     74                     75
                      A                      A                      A
 Frequencies --   1531.0775              1531.5298              1531.6426
 Red. masses --      2.0149                 1.9989                 1.9975
 Frc consts  --      2.7830                 2.7624                 2.7610
 IR Inten    --      2.0242                10.1114                10.1687

                     76                     77                     78
                      A                      A                      A
 Frequencies --   1630.1568              1630.4195              1630.4541
 Red. masses --      5.0999                 5.1121                 5.1129
 Frc consts  --      7.9850                 8.0067                 8.0082
 IR Inten    --      0.3990                 0.0450                 0.0458

                     79                     80                     81
                      A                      A                      A
 Frequencies --   1646.1431              1646.1636              1647.9468
 Red. masses --      5.2719                 5.2701                 5.2828
 Frc consts  --      8.4169                 8.4142                 8.4528
 IR Inten    --      3.5086                 3.5118                 0.3202

                     82                     83                     84
                      A                      A                      A
 Frequencies --   3176.0346              3176.1165              3176.1895
 Red. masses --      1.0854                 1.0853                 1.0853
 Frc consts  --      6.4505                 6.4508                 6.4510
 IR Inten    --      2.1026                 1.9859                 1.9331

                     85                     86                     87
                      A                      A                      A
 Frequencies --   3182.6069              3182.6753              3182.7680
 Red. masses --      1.0875                 1.0875                 1.0876
 Frc consts  --      6.4900                 6.4904                 6.4911
 IR Inten    --      0.7050                 0.6647                 0.3206

                     88                     89                     90
                      A                      A                      A
 Frequencies --   3192.8156              3192.8746              3192.9949
 Red. masses --      1.0916                 1.0916                 1.0917
 Frc consts  --      6.5566                 6.5568                 6.5579
 IR Inten    --     11.6832                12.1811                44.3079

                     91                     92                     93
                      A                      A                      A
 Frequencies --   3203.9155              3203.9482              3204.3294
 Red. masses --      1.0941                 1.0941                 1.0942
 Frc consts  --      6.6173                 6.6174                 6.6197
 IR Inten    --     41.7272                41.3581                 4.5142

                     94                     95                     96
                      A                      A                      A
 Frequencies --   3210.1000              3210.1312              3211.0148
 Red. masses --      1.0956                 1.0956                 1.0956
 Frc consts  --      6.6520                 6.6521                 6.6556
 IR Inten    --     19.9317                19.8014                16.3179

 - Thermochemistry -
 -------------------
 Temperature   298.150 Kelvin.  Pressure   1.00000 Atm.
 Atom     1 has atomic number 15 and mass  30.97376

 Molecular mass:   262.09114 amu.
 Principal axes and moments of inertia in atomic units:
                           1         2         3
     Eigenvalues --  5160.743325165.437048679.98001
           X            0.99990   0.01440  -0.00000
           Y           -0.01440   0.99990  -0.00003
           Z            0.00000   0.00003   1.00000
 This molecule is an asymmetric top.
 Rotational symmetry number  1.
 Warning -- assumption of classical behavior for rotation
           may cause significant error
 Rotational temperatures (Kelvin)      0.01678     0.01677     0.00998
 Rotational constants (GHZ):           0.34971     0.34939     0.20792
 Zero-point vibrational energy     719951.0 (Joules/Mol)
                                  172.07241 (Kcal/Mol)
 Warning -- explicit consideration of  21 degrees of freedom as
           vibrations may cause significant error
 Vibrational temperatures:     31.02    33.99    54.42    76.63    76.82
          (Kelvin)            101.63   261.10   291.04   291.67   353.35
                              373.71   374.26   588.11   588.23   593.30
                              600.14   617.73   618.11   732.96   733.14
                              742.86   910.33   910.39   911.28   995.50
                             1014.60  1014.66  1024.68  1024.88  1026.21
                             1095.47  1097.61  1097.70  1246.17  1246.32
                             1249.88  1342.27  1342.34  1344.12  1403.90
                             1404.05  1406.54  1439.32  1439.33  1440.36
                             1460.90  1460.90  1461.45  1514.58  1514.67
                             1514.92  1593.94  1594.44  1596.38  1598.16
                             1598.28  1606.07  1717.16  1717.74  1717.80
                             1754.13  1754.60  1756.67  1906.41  1911.60
                             1911.96  1964.04  1964.41  1964.97  2130.11
                             2130.75  2130.85  2202.88  2203.53  2203.69
                             2345.43  2345.81  2345.86  2368.43  2368.46
                             2371.03  4569.61  4569.72  4569.83  4579.06
                             4579.16  4579.29  4593.75  4593.83  4594.01
                             4609.72  4609.77  4610.32  4618.62  4618.66
                             4619.93

 Zero-point correction=                           0.274215 (Hartree/Particle)
 Thermal correction to Energy=                    0.290141
 Thermal correction to Enthalpy=                  0.291085
 Thermal correction to Gibbs Free Energy=         0.227681
 Sum of electronic and zero-point Energies=          -1036.024017
 Sum of electronic and thermal Energies=             -1036.008091
 Sum of electronic and thermal Enthalpies=           -1036.007147
 Sum of electronic and thermal Free Energies=        -1036.070551

                     E (Thermal)             CV                S
                      KCal/Mol        Cal/Mol-Kelvin    Cal/Mol-Kelvin
 Total                  182.066             62.538            133.444
 Electronic               0.000              0.000              0.000
 Translational            0.889              2.981             42.590
 Rotational               0.889              2.981             33.803
 Vibrational            180.289             56.576             57.051
 Vibration     1          0.593              1.985              6.485
 Vibration     2          0.593              1.985              6.303
 Vibration     3          0.594              1.982              5.370
 Vibration     4          0.596              1.976              4.693
 Vibration     5          0.596              1.976              4.687
 Vibration     6          0.598              1.968              4.136
 Vibration     7          0.630              1.865              2.313
 Vibration     8          0.639              1.837              2.112
 Vibration     9          0.639              1.836              2.108
 Vibration    10          0.660              1.770              1.762
 Vibration    11          0.668              1.746              1.663
 Vibration    12          0.668              1.746              1.661
 Vibration    13          0.773              1.451              0.931
 Vibration    14          0.773              1.451              0.931
 Vibration    15          0.776              1.443              0.918
 Vibration    16          0.780              1.433              0.902
 Vibration    17          0.791              1.406              0.861
 Vibration    18          0.791              1.406              0.860
 Vibration    19          0.865              1.229              0.635
 Vibration    20          0.865              1.229              0.635
 Vibration    21          0.871              1.214              0.619

                           ! Non-Optimized Parameters !
 Normal termination of Gaussian 16 at Sun Dec  8 18:39:24 2019.
 Gaussian 16:  ES64L-G16RevA.03 25-Dec-2016

 ----------------------------------------------------------------------
 # TD(NStates=10, Root=1) B3LYP/6-31G* scf=xqc volume pop=NPA density=c
 urrent Geom=AllCheck Guess=Read
 ----------------------------------------------------------------------

 Structure from the checkpoint file:  "direct_arylation_ligand38_conf103.chk"
 -------------------
 Title Card Required
 -------------------
 Charge =  0 Multiplicity = 1

                         Standard orientation:
 ---------------------------------------------------------------------
 Center     Atomic      Atomic             Coordinates (Angstroms)
 Number     Number       Type             X           Y           Z
 ---------------------------------------------------------------------
      1         15           0       -0.000517    0.000260   -1.206624
      2          6           0        0.663267   -1.533184   -0.403176
      3          6           0        0.132185   -2.120400    0.755364
      4          6           0        0.684909   -3.292623    1.276003
      5          6           0        1.778524   -3.893393    0.650629
      6          6           0        2.314745   -3.320590   -0.504627
      7          6           0        1.755244   -2.156459   -1.030767
      8          6           0       -1.660123    0.192364   -0.402584
      9          6           0       -1.901005    0.938574    0.761166
     10          6           0       -3.192288    1.046558    1.282225
     11          6           0       -4.261304    0.407714    0.651990
     12          6           0       -4.035490   -0.335682   -0.508419
     13          6           0       -2.747702   -0.433767   -1.034865
     14          6           0        0.996016    1.341060   -0.402350
     15          6           0        0.996337    2.596759   -1.033124
     16          6           0        1.725548    3.662554   -0.506373
     17          6           0        2.483871    3.485275    0.652817
     18          6           0        2.503812    2.239326    1.281545
     19          6           0        1.764277    1.175423    0.760197
     20          1           0       -0.718852   -1.663192    1.251143
     21          1           0        0.259436   -3.735749    2.172982
     22          1           0        2.206497   -4.806128    1.056887
     23          1           0        3.161647   -3.786039   -1.002259
     24          1           0        2.166109   -1.727217   -1.941857
     25          1           0       -1.077966    1.440853    1.260583
     26          1           0       -3.361681    1.630851    2.183261
     27          1           0       -5.265574    0.493892    1.058571
     28          1           0       -4.863533   -0.830177   -1.009759
     29          1           0       -2.582925   -0.998300   -1.949885
     30          1           0        0.423793    2.737310   -1.947214
     31          1           0        1.710370    4.627492   -1.006563
     32          1           0        3.060942    4.311602    1.059589
     33          1           0        3.095769    2.092974    2.181615
     34          1           0        1.788790    0.210881    1.258359
 ---------------------------------------------------------------------

 SCF Done:  E(RB3LYP) =  -1036.29823178     A.U. after    2 cycles

 Excitation energies and oscillator strengths:

 Excited State   1:      Singlet-A      4.5090 eV  274.97 nm  f=0.1272  <S**2>=0.000
      69 -> 70         0.69714
 This state for optimization and/or second-order correction.
 Total Energy, E(TD-HF/TD-DFT) =  -1036.13252985
 Copying the excited state density for this state as the 1-particle RhoCI density.

 Excited State   2:      Singlet-A      4.5120 eV  274.79 nm  f=0.1284  <S**2>=0.000
      69 -> 71         0.69709

 Excited State   3:      Singlet-A      4.7574 eV  260.61 nm  f=0.0022  <S**2>=0.000
      67 -> 70        -0.12299
      68 -> 71         0.12373
      69 -> 72         0.67463

 Excited State   4:      Singlet-A      5.0575 eV  245.15 nm  f=0.0002  <S**2>=0.000
      66 -> 70        -0.16784
      67 -> 71        -0.10839
      68 -> 70         0.10853
      69 -> 74         0.63023

 Excited State   5:      Singlet-A      5.0588 eV  245.09 nm  f=0.0002  <S**2>=0.000
      66 -> 71        -0.16868
      67 -> 70        -0.10901
      68 -> 71        -0.10895
      69 -> 75         0.62942

 Excited State   6:      Singlet-A      5.1510 eV  240.70 nm  f=0.0085  <S**2>=0.000
      69 -> 73         0.67908

 Excited State   7:      Singlet-A      5.4273 eV  228.44 nm  f=0.0147  <S**2>=0.000
      63 -> 72         0.16610
      64 -> 74         0.14186
      65 -> 75        -0.13871
      67 -> 70         0.42474
      68 -> 71        -0.41561
      69 -> 72         0.16525

 Excited State   8:      Singlet-A      5.5136 eV  224.87 nm  f=0.0005  <S**2>=0.000
      63 -> 74         0.14392
      64 -> 70        -0.12457
      64 -> 72         0.22195
      64 -> 75         0.11486
      65 -> 71        -0.12284
      65 -> 72        -0.17478
      65 -> 74        -0.11401
      66 -> 70         0.22691
      67 -> 70         0.18083
      67 -> 71         0.19579
      68 -> 70        -0.20327
      68 -> 71         0.18709
      68 -> 72        -0.16300
      69 -> 74         0.28702

 Excited State   9:      Singlet-A      5.5152 eV  224.80 nm  f=0.0004  <S**2>=0.000
      63 -> 75         0.14454
      64 -> 71         0.11839
      64 -> 72        -0.17521
      64 -> 74         0.11240
      65 -> 70        -0.12291
      65 -> 72        -0.22209
      65 -> 75         0.11490
      66 -> 71         0.22495
      67 -> 70         0.19349
      67 -> 71        -0.18432
      67 -> 72        -0.16402
      68 -> 70         0.18701
      68 -> 71         0.20679
      69 -> 75         0.28839

 Excited State  10:      Singlet-A      5.6180 eV  220.69 nm  f=0.0009  <S**2>=0.000
      67 -> 71         0.47338
      68 -> 70         0.48549

 The electronic state is 1-A.
 Alpha  occ. eigenvalues --  -77.08112 -10.19448 -10.19446 -10.19446 -10.19149
 Alpha  occ. eigenvalues --  -10.19147 -10.19143 -10.19119 -10.19117 -10.19115
 Alpha  occ. eigenvalues --  -10.19033 -10.19031 -10.19027 -10.19009 -10.19007
 Alpha  occ. eigenvalues --  -10.19005 -10.18964 -10.18962 -10.18958  -6.54843
 Alpha  occ. eigenvalues --   -4.71102  -4.71102  -4.70601  -0.85560  -0.84847
 Alpha  occ. eigenvalues --   -0.84844  -0.76669  -0.74366  -0.74365  -0.74329
 Alpha  occ. eigenvalues --   -0.73822  -0.73820  -0.64436  -0.60337  -0.60307
 Alpha  occ. eigenvalues --   -0.60305  -0.59207  -0.59206  -0.55449  -0.51436
 Alpha  occ. eigenvalues --   -0.51434  -0.49296  -0.45440  -0.45439  -0.44774
 Alpha  occ. eigenvalues --   -0.44344  -0.44344  -0.44068  -0.41946  -0.41869
 Alpha  occ. eigenvalues --   -0.41867  -0.40380  -0.40376  -0.36843  -0.36353
 Alpha  occ. eigenvalues --   -0.36349  -0.35898  -0.34253  -0.34251  -0.34224
 Alpha  occ. eigenvalues --   -0.31885  -0.31883  -0.26775  -0.25451  -0.25444
 Alpha  occ. eigenvalues --   -0.25242  -0.24705  -0.24703  -0.21145
 Alpha virt. eigenvalues --   -0.01884  -0.01876  -0.00829   0.00173   0.00424
 Alpha virt. eigenvalues --    0.00432   0.06877   0.06892   0.09492   0.11038
 Alpha virt. eigenvalues --    0.11040   0.13902   0.14528   0.14530   0.15165

 Mulliken charges:
               1
     1  P    0.450662
     2  C   -0.085825
     3  C   -0.147460
     4  C   -0.121235
     5  C   -0.122547
     6  C   -0.117628
     7  C   -0.160352
     8  C   -0.132423
     9  C   -0.169202
    10  C   -0.121451
    11  C   -0.165299
    12  C   -0.120183
    13  C   -0.175862
    14  C   -0.102845
    15  C   -0.155997
    16  C   -0.125277
    17  C   -0.148339
    18  C   -0.115334
    19  C   -0.169037
    20  H    0.179239
    21  H    0.147265
    22  H    0.146209
    23  H    0.142728
    24  H    0.147559
    25  H    0.135946
    26  H    0.119012
    27  H    0.109877
    28  H    0.114640
    29  H    0.113772
    30  H    0.132750
    31  H    0.127165
    32  H    0.124463
    33  H    0.129405
    34  H    0.135606
 Sum of Mulliken charges =  -0.00000

 Dipole moment (field-independent basis, Debye):
    X=              2.7586    Y=             -2.5703    Z=             -0.1974  Tot=              3.7756
 Quadrupole moment (field-independent basis, Debye-Ang):
   XX=           -119.8670   YY=           -107.2069   ZZ=           -110.6587
   XY=             -3.0294   XZ=              0.2592   YZ=             -1.3431

 Summary of Natural Population Analysis:

                                       Natural Population
                Natural  -----------------------------------------------
    Atom  No    Charge         Core      Valence    Rydberg      Total
 -----------------------------------------------------------------------
      P    1    1.24228      9.99750     3.70997    0.05025    13.75772
      C    2   -0.38491      1.99891     4.36069    0.02531     6.38491
      C    3   -0.20210      1.99900     4.18700    0.01611     6.20210
      C    4   -0.23231      1.99909     4.21908    0.01414     6.23231
      C    5   -0.19959      1.99909     4.18668    0.01382     6.19959
      C    6   -0.23291      1.99910     4.21964    0.01417     6.23291
      C    7   -0.20815      1.99902     4.19389    0.01525     6.20815
      C    8   -0.48391      1.99887     4.45900    0.02604     6.48391
      C    9   -0.24875      1.99899     4.23191    0.01785     6.24875
      C   10   -0.23472      1.99909     4.22096    0.01467     6.23472
      C   11   -0.29035      1.99909     4.27473    0.01653     6.29035
      C   12   -0.23988      1.99910     4.22595    0.01483     6.23988
      C   13   -0.23931      1.99902     4.22392    0.01637     6.23931
      C   14   -0.42782      1.99887     4.40478    0.02416     6.42782
      C   15   -0.20676      1.99901     4.19215    0.01560     6.20676
      C   16   -0.24788      1.99910     4.23382    0.01496     6.24788
      C   17   -0.25463      1.99909     4.24006    0.01548     6.25463
      C   18   -0.22299      1.99909     4.20969    0.01420     6.22299
      C   19   -0.25217      1.99899     4.23575    0.01743     6.25217
      H   20    0.26319      0.00000     0.73558    0.00124     0.73681
      H   21    0.24588      0.00000     0.75326    0.00086     0.75412
      H   22    0.24208      0.00000     0.75710    0.00083     0.75792
      H   23    0.24294      0.00000     0.75615    0.00091     0.75706
      H   24    0.24109      0.00000     0.75774    0.00117     0.75891
      H   25    0.23886      0.00000     0.75957    0.00157     0.76114
      H   26    0.23281      0.00000     0.76631    0.00088     0.76719
      H   27    0.22639      0.00000     0.77271    0.00090     0.77361
      H   28    0.22983      0.00000     0.76923    0.00094     0.77017
      H   29    0.22345      0.00000     0.77560    0.00095     0.77655
      H   30    0.23462      0.00000     0.76418    0.00120     0.76538
      H   31    0.23629      0.00000     0.76283    0.00087     0.76371
      H   32    0.23280      0.00000     0.76632    0.00088     0.76720
      H   33    0.23749      0.00000     0.76163    0.00088     0.76251
      H   34    0.23914      0.00000     0.75954    0.00132     0.76086
 =======================================================================
   * Total *   -0.00000     45.98001    91.64741    0.37258   138.00000

 Normal termination of Gaussian 16 at Sun Dec  8 18:56:12 2019.
