 Gaussian 16, Revision A.03,

 -----------------------------------------
 # opt=CalcFc B3LYP/6-31G* scf=xqc scf=xqc
 -----------------------------------------

 -------------------
 Title Card Required
 -------------------
 Symbolic Z-matrix:
 Charge =  0 Multiplicity = 1

 SCF Done:  E(RB3LYP) =  -1036.25285469     A.U. after   14 cycles
 SCF Done:  E(RB3LYP) =  -1036.26996781     A.U. after   14 cycles
 SCF Done:  E(RB3LYP) =  -1036.28154496     A.U. after   13 cycles
 SCF Done:  E(RB3LYP) =  -1036.29047264     A.U. after   14 cycles
 SCF Done:  E(RB3LYP) =  -1036.28497916     A.U. after   14 cycles
 SCF Done:  E(RB3LYP) =  -1036.29196091     A.U. after   13 cycles
 SCF Done:  E(RB3LYP) =  -1036.29075481     A.U. after   13 cycles
 SCF Done:  E(RB3LYP) =  -1036.29121353     A.U. after   13 cycles
 SCF Done:  E(RB3LYP) =  -1036.29239736     A.U. after   11 cycles
 SCF Done:  E(RB3LYP) =  -1036.29295394     A.U. after   12 cycles
 SCF Done:  E(RB3LYP) =  -1036.29812447     A.U. after   12 cycles
 SCF Done:  E(RB3LYP) =  -1036.29823153     A.U. after   11 cycles
 SCF Done:  E(RB3LYP) =  -1036.29823754     A.U. after   10 cycles
 SCF Done:  E(RB3LYP) =  -1036.29823935     A.U. after    9 cycles
 SCF Done:  E(RB3LYP) =  -1036.29823786     A.U. after    7 cycles
 SCF Done:  E(RB3LYP) =  -1036.29823765     A.U. after    9 cycles
 SCF Done:  E(RB3LYP) =  -1036.29822877     A.U. after    9 cycles
 SCF Done:  E(RB3LYP) =  -1036.29823984     A.U. after    8 cycles
 Optimization completed.
    -- Stationary point found.
 Normal termination of Gaussian 16 at Sun Dec  8 18:57:21 2019.

 ----------------------------------------------------------------------
 # freq B3LYP/6-31G* scf=xqc volume NMR pop=NPA density=current Geom=Al
 lCheck Guess=Read
 ----------------------------------------------------------------------

 Structure from the checkpoint file:  "direct_arylation_ligand38_conf272.chk"
 -------------------
 Title Card Required
 -------------------
 Charge =  0 Multiplicity = 1

 SCF Done:  E(RB3LYP) =  -1036.29823984     A.U. after    1 cycles

      1  P    Isotropic =   361.6559   Anisotropy =    40.0160

      2  C    Isotropic =    56.1450   Anisotropy =   179.4350

      3  C    Isotropic =    60.9900   Anisotropy =   164.1079

      4  C    Isotropic =    68.7262   Anisotropy =   164.1377

      5  C    Isotropic =    68.1588   Anisotropy =   167.3294

      6  C    Isotropic =    68.6744   Anisotropy =   163.8892

      7  C    Isotropic =    62.5613   Anisotropy =   174.0768

      8  C    Isotropic =    56.1101   Anisotropy =   179.4315

      9  C    Isotropic =    62.5837   Anisotropy =   174.0332

     10  C    Isotropic =    68.6804   Anisotropy =   163.8812

     11  C    Isotropic =    68.1615   Anisotropy =   167.3231

     12  C    Isotropic =    68.7282   Anisotropy =   164.1383

     13  C    Isotropic =    61.0175   Anisotropy =   164.1202

     14  C    Isotropic =    56.1280   Anisotropy =   179.4304

     15  C    Isotropic =    61.0314   Anisotropy =   164.1547

     16  C    Isotropic =    68.7323   Anisotropy =   164.1250

     17  C    Isotropic =    68.1621   Anisotropy =   167.2985

     18  C    Isotropic =    68.6742   Anisotropy =   163.8937

     19  C    Isotropic =    62.6033   Anisotropy =   174.0479

     20  H    Isotropic =    24.6102   Anisotropy =     9.2480

     21  H    Isotropic =    24.9262   Anisotropy =     4.5875

     22  H    Isotropic =    25.0202   Anisotropy =     3.6410

     23  H    Isotropic =    25.0475   Anisotropy =     6.0857

     24  H    Isotropic =    25.3970   Anisotropy =    12.2222

     25  H    Isotropic =    25.4021   Anisotropy =    12.2262

     26  H    Isotropic =    25.0485   Anisotropy =     6.0859

     27  H    Isotropic =    25.0212   Anisotropy =     3.6409

     28  H    Isotropic =    24.9265   Anisotropy =     4.5903

     29  H    Isotropic =    24.6131   Anisotropy =     9.2523

     30  H    Isotropic =    24.6126   Anisotropy =     9.2576

     31  H    Isotropic =    24.9279   Anisotropy =     4.5875

     32  H    Isotropic =    25.0217   Anisotropy =     3.6401

     33  H    Isotropic =    25.0478   Anisotropy =     6.0877

     34  H    Isotropic =    25.4016   Anisotropy =    12.2352

  Exact polarizability: 224.210   0.050 224.061  -0.055   0.041 165.047
 Approx polarizability: 331.035   0.118 330.756  -0.130   0.096 308.042

                      1                      2                      3
                      A                      A                      A
 Frequencies --     24.6504                25.4109                39.4330
 Red. masses --      3.8016                 3.8028                 3.6905
 Frc consts  --      0.0014                 0.0014                 0.0034
 IR Inten    --      0.2819                 0.2805                 0.0022

                      4                      5                      6
                      A                      A                      A
 Frequencies --     53.4605                53.5845                70.8331
 Red. masses --      5.2481                 5.2431                 5.1677
 Frc consts  --      0.0088                 0.0089                 0.0153
 IR Inten    --      0.0873                 0.0873                 0.3103

                      7                      8                      9
                      A                      A                      A
 Frequencies --    181.7481               202.5177               202.8289
 Red. masses --      4.5614                 4.6432                 4.6412
 Frc consts  --      0.0888                 0.1122                 0.1125
 IR Inten    --      0.3534                 1.1302                 1.1298

                     10                     11                     12
                      A                      A                      A
 Frequencies --    245.5525               259.6778               260.0983
 Red. masses --      5.7388                 4.7188                 4.7259
 Frc consts  --      0.2039                 0.1875                 0.1884
 IR Inten    --      0.4823                 0.2290                 0.2270

                     13                     14                     15
                      A                      A                      A
 Frequencies --    408.9656               409.0193               412.4569
 Red. masses --      3.0801                 3.0823                 3.6360
 Frc consts  --      0.3035                 0.3038                 0.3644
 IR Inten    --      1.9656                 1.9788                 0.1693

                     16                     17                     18
                      A                      A                      A
 Frequencies --    417.1535               429.4744               429.6857
 Red. masses --      4.5521                 7.3116                 7.3048
 Frc consts  --      0.4667                 0.7946                 0.7946
 IR Inten    --      0.5552                 7.7002                 7.7001

                     19                     20                     21
                      A                      A                      A
 Frequencies --    509.5955               509.6395               516.5188
 Red. masses --      4.2480                 4.2467                 4.5894
 Frc consts  --      0.6500                 0.6499                 0.7214
 IR Inten    --     26.0755                26.1039                11.9456

                     22                     23                     24
                      A                      A                      A
 Frequencies --    632.7452               632.7502               633.3903
 Red. masses --      6.4273                 6.4273                 6.4371
 Frc consts  --      1.5161                 1.5162                 1.5215
 IR Inten    --      0.1801                 0.1811                 0.0167

                     25                     26                     27
                      A                      A                      A
 Frequencies --    691.8282               705.1876               705.2693
 Red. masses --      6.5804                 5.7709                 5.7507
 Frc consts  --      1.8557                 1.6908                 1.6853
 IR Inten    --      0.7961                 1.1094                 1.0838

                     28                     29                     30
                      A                      A                      A
 Frequencies --    712.4174               712.4593               713.4499
 Red. masses --      2.1946                 2.1972                 2.1362
 Frc consts  --      0.6563                 0.6571                 0.6406
 IR Inten    --     26.4441                26.4382                16.6184

                     31                     32                     33
                      A                      A                      A
 Frequencies --    761.4418               762.9133               762.9524
 Red. masses --      1.6148                 1.6492                 1.6474
 Frc consts  --      0.5516                 0.5656                 0.5650
 IR Inten    --     19.2168                24.9348                24.8896

                     34                     35                     36
                      A                      A                      A
 Frequencies --    866.3306               866.3866               868.9221
 Red. masses --      1.2476                 1.2476                 1.2461
 Frc consts  --      0.5517                 0.5518                 0.5543
 IR Inten    --      0.2203                 0.2194                 0.1305

                     37                     38                     39
                      A                      A                      A
 Frequencies --    933.0460               933.1216               934.3863
 Red. masses --      1.3438                 1.3438                 1.3381
 Frc consts  --      0.6893                 0.6894                 0.6883
 IR Inten    --      1.2599                 1.2711                 0.0298

                     40                     41                     42
                      A                      A                      A
 Frequencies --    975.9553               976.0027               977.8156
 Red. masses --      1.3610                 1.3610                 1.3552
 Frc consts  --      0.7638                 0.7638                 0.7634
 IR Inten    --      0.0147                 0.0161                 0.1383

                     43                     44                     45
                      A                      A                      A
 Frequencies --   1000.4243              1000.4520              1001.1893
 Red. masses --      1.2540                 1.2541                 1.2522
 Frc consts  --      0.7394                 0.7395                 0.7396
 IR Inten    --      0.0797                 0.0825                 0.0002

                     46                     47                     48
                      A                      A                      A
 Frequencies --   1015.3618              1015.3933              1015.7631
 Red. masses --      6.3142                 6.3110                 6.3110
 Frc consts  --      3.8354                 3.8337                 3.8365
 IR Inten    --      4.3424                 4.3711                 0.0661

                     49                     50                     51
                      A                      A                      A
 Frequencies --   1052.7183              1052.7876              1052.9406
 Red. masses --      3.3105                 3.3212                 3.2545
 Frc consts  --      2.1615                 2.1688                 2.1259
 IR Inten    --      2.0830                 2.0640                 0.0535

                     52                     53                     54
                      A                      A                      A
 Frequencies --   1107.7807              1108.1161              1109.4529
 Red. masses --      1.8975                 1.8789                 1.6550
 Frc consts  --      1.3719                 1.3593                 1.2002
 IR Inten    --      4.5159                 4.1882                 2.9641

                     55                     56                     57
                      A                      A                      A
 Frequencies --   1110.8623              1110.9362              1115.8946
 Red. masses --      2.1722                 2.1960                 2.6107
 Frc consts  --      1.5793                 1.5969                 1.9154
 IR Inten    --      9.1689                 9.4191                 1.1226

                     58                     59                     60
                      A                      A                      A
 Frequencies --   1193.5417              1193.9609              1194.0195
 Red. masses --      1.1034                 1.1001                 1.1001
 Frc consts  --      0.9261                 0.9240                 0.9241
 IR Inten    --      0.0017                 0.1320                 0.1268

                     61                     62                     63
                      A                      A                      A
 Frequencies --   1219.1667              1219.6166              1220.7874
 Red. masses --      1.1475                 1.1479                 1.1473
 Frc consts  --      1.0049                 1.0060                 1.0074
 IR Inten    --      5.9411                 5.9420                 0.5677

                     64                     65                     66
                      A                      A                      A
 Frequencies --   1325.0732              1328.7721              1328.9818
 Red. masses --      3.4846                 3.4820                 3.5380
 Frc consts  --      3.6048                 3.6223                 3.6817
 IR Inten    --      2.6402                 2.4312                 2.4494

                     67                     68                     69
                      A                      A                      A
 Frequencies --   1365.0638              1365.3950              1365.7695
 Red. masses --      1.6617                 1.6494                 1.6371
 Frc consts  --      1.8243                 1.8118                 1.7993
 IR Inten    --      0.6109                 1.2485                 1.5394

                     70                     71                     72
                      A                      A                      A
 Frequencies --   1480.5691              1481.0379              1481.0757
 Red. masses --      2.1104                 2.1152                 2.1159
 Frc consts  --      2.7257                 2.7336                 2.7347
 IR Inten    --     16.6849                 6.5710                 6.6338

                     73                     74                     75
                      A                      A                      A
 Frequencies --   1531.1018              1531.5896              1531.7699
 Red. masses --      2.0157                 1.9988                 1.9967
 Frc consts  --      2.7840                 2.7625                 2.7603
 IR Inten    --      2.0505                10.1168                10.1420

                     76                     77                     78
                      A                      A                      A
 Frequencies --   1630.2077              1630.4915              1630.5038
 Red. masses --      5.1019                 5.1126                 5.1123
 Frc consts  --      7.9886                 8.0080                 8.0077
 IR Inten    --      0.3962                 0.0451                 0.0457

                     79                     80                     81
                      A                      A                      A
 Frequencies --   1646.1774              1646.2187              1647.9883
 Red. masses --      5.2714                 5.2674                 5.2815
 Frc consts  --      8.4164                 8.4105                 8.4511
 IR Inten    --      3.4992                 3.5325                 0.3199

                     82                     83                     84
                      A                      A                      A
 Frequencies --   3176.1285              3176.1413              3176.2088
 Red. masses --      1.0854                 1.0853                 1.0853
 Frc consts  --      6.4509                 6.4508                 6.4511
 IR Inten    --      2.3460                 1.7316                 1.9118

                     85                     86                     87
                      A                      A                      A
 Frequencies --   3182.6835              3182.7161              3182.8102
 Red. masses --      1.0875                 1.0875                 1.0876
 Frc consts  --      6.4903                 6.4905                 6.4913
 IR Inten    --      0.7747                 0.6352                 0.2870

                     88                     89                     90
                      A                      A                      A
 Frequencies --   3192.8704              3192.9062              3193.0293
 Red. masses --      1.0916                 1.0917                 1.0917
 Frc consts  --      6.5568                 6.5570                 6.5581
 IR Inten    --     10.5406                11.9791                45.7151

                     91                     92                     93
                      A                      A                      A
 Frequencies --   3203.9156              3204.0080              3204.3720
 Red. masses --      1.0941                 1.0942                 1.0943
 Frc consts  --      6.6170                 6.6180                 6.6200
 IR Inten    --     40.6121                41.8957                 5.1445

                     94                     95                     96
                      A                      A                      A
 Frequencies --   3210.0764              3210.2314              3211.0765
 Red. masses --      1.0957                 1.0956                 1.0956
 Frc consts  --      6.6523                 6.6522                 6.6557
 IR Inten    --     20.2177                19.4297                16.3209

 - Thermochemistry -
 -------------------
 Temperature   298.150 Kelvin.  Pressure   1.00000 Atm.
 Atom     1 has atomic number 15 and mass  30.97376

 Molecular mass:   262.09114 amu.
 Principal axes and moments of inertia in atomic units:
                           1         2         3
     Eigenvalues --  5161.732315164.350918680.88237
           X            0.99980   0.02009  -0.00001
           Y           -0.02009   0.99980   0.00001
           Z            0.00001  -0.00001   1.00000
 This molecule is an asymmetric top.
 Rotational symmetry number  1.
 Warning -- assumption of classical behavior for rotation
           may cause significant error
 Rotational temperatures (Kelvin)      0.01678     0.01677     0.00998
 Rotational constants (GHZ):           0.34964     0.34946     0.20790
 Zero-point vibrational energy     720027.5 (Joules/Mol)
                                  172.09071 (Kcal/Mol)
 Warning -- explicit consideration of  21 degrees of freedom as
           vibrations may cause significant error
 Vibrational temperatures:     35.47    36.56    56.74    76.92    77.10
          (Kelvin)            101.91   261.49   291.38   291.83   353.30
                              373.62   374.22   588.41   588.49   593.43
                              600.19   617.92   618.22   733.19   733.26
                              743.16   910.38   910.39   911.31   995.39
                             1014.61  1014.73  1025.01  1025.07  1026.50
                             1095.54  1097.66  1097.72  1246.46  1246.54
                             1250.19  1342.45  1342.55  1344.37  1404.18
                             1404.25  1406.86  1439.39  1439.43  1440.49
                             1460.88  1460.92  1461.46  1514.63  1514.73
                             1514.95  1593.85  1594.33  1596.26  1598.28
                             1598.39  1605.52  1717.24  1717.84  1717.93
                             1754.11  1754.76  1756.44  1906.48  1911.81
                             1912.11  1964.02  1964.50  1965.04  2130.21
                             2130.88  2130.94  2202.91  2203.62  2203.88
                             2345.51  2345.91  2345.93  2368.48  2368.54
                             2371.09  4569.74  4569.76  4569.86  4579.17
                             4579.22  4579.35  4593.83  4593.88  4594.06
                             4609.72  4609.85  4610.38  4618.58  4618.81
                             4620.02

 Zero-point correction=                           0.274244 (Hartree/Particle)
 Thermal correction to Energy=                    0.290152
 Thermal correction to Enthalpy=                  0.291096
 Thermal correction to Gibbs Free Energy=         0.227941
 Sum of electronic and zero-point Energies=          -1036.023996
 Sum of electronic and thermal Energies=             -1036.008088
 Sum of electronic and thermal Enthalpies=           -1036.007144
 Sum of electronic and thermal Free Energies=        -1036.070299

                     E (Thermal)             CV                S
                      KCal/Mol        Cal/Mol-Kelvin    Cal/Mol-Kelvin
 Total                  182.073             62.529            132.921
 Electronic               0.000              0.000              0.000
 Translational            0.889              2.981             42.590
 Rotational               0.889              2.981             33.803
 Vibrational            180.296             56.567             56.528
 Vibration     1          0.593              1.985              6.219
 Vibration     2          0.593              1.985              6.159
 Vibration     3          0.594              1.981              5.287
 Vibration     4          0.596              1.976              4.685
 Vibration     5          0.596              1.976              4.681
 Vibration     6          0.598              1.968              4.130
 Vibration     7          0.630              1.865              2.310
 Vibration     8          0.639              1.836              2.110
 Vibration     9          0.639              1.836              2.107
 Vibration    10          0.660              1.770              1.762
 Vibration    11          0.668              1.746              1.664
 Vibration    12          0.668              1.746              1.661
 Vibration    13          0.773              1.451              0.930
 Vibration    14          0.773              1.451              0.930
 Vibration    15          0.776              1.443              0.918
 Vibration    16          0.780              1.433              0.902
 Vibration    17          0.791              1.406              0.860
 Vibration    18          0.791              1.406              0.860
 Vibration    19          0.865              1.229              0.635
 Vibration    20          0.865              1.229              0.634
 Vibration    21          0.872              1.213              0.618

                           ! Non-Optimized Parameters !
 Normal termination of Gaussian 16 at Sun Dec  8 19:11:40 2019.
 Gaussian 16:  ES64L-G16RevA.03 25-Dec-2016

 ----------------------------------------------------------------------
 # TD(NStates=10, Root=1) B3LYP/6-31G* scf=xqc volume pop=NPA density=c
 urrent Geom=AllCheck Guess=Read
 ----------------------------------------------------------------------

 Structure from the checkpoint file:  "direct_arylation_ligand38_conf273.chk"
 -------------------
 Title Card Required
 -------------------
 Charge =  0 Multiplicity = 1

                         Standard orientation:
 ---------------------------------------------------------------------
 Center     Atomic      Atomic             Coordinates (Angstroms)
 Number     Number       Type             X           Y           Z
 ---------------------------------------------------------------------
      1         15           0        0.000215    0.000215   -1.206416
      2          6           0        1.615736    0.425984   -0.402349
      3          6           0        2.399960    1.406223   -1.033847
      4          6           0        3.635090    1.783742   -0.507458
      5          6           0        4.116847    1.172464    0.652042
      6          6           0        3.354549    0.187149    1.281449
      7          6           0        2.112540   -0.182428    0.760468
      8          6           0       -0.438845   -1.611821   -0.402542
      9          6           0       -1.216827   -1.738151    0.758443
     10          6           0       -1.517436   -2.998623    1.279475
     11          6           0       -1.042239   -4.151229    0.651982
     12          6           0       -0.269272   -4.039357   -0.505699
     13          6           0        0.020998   -2.780916   -1.032183
     14          6           0       -1.176711    1.186269   -0.402777
     15          6           0       -2.419763    1.370718   -1.031682
     16          6           0       -3.364836    2.251118   -0.505555
     17          6           0       -3.074930    2.978207    0.650962
     18          6           0       -1.838477    2.815372    1.277627
     19          6           0       -0.896802    1.924944    0.757009
     20          1           0        2.040331    1.872925   -1.948161
     21          1           0        4.225688    2.546640   -1.008163
     22          1           0        5.083610    1.457827    1.058526
     23          1           0        3.725673   -0.296255    2.181751
     24          1           0        1.529449   -0.950825    1.259112
     25          1           0       -1.593045   -0.849164    1.255662
     26          1           0       -2.123708   -3.078519    2.178368
     27          1           0       -1.278177   -5.131203    1.058523
     28          1           0        0.098537   -4.932114   -1.004923
     29          1           0        0.607138   -2.702688   -1.945115
     30          1           0       -2.645316    0.822637   -1.943745
     31          1           0       -4.322404    2.377481   -1.004174
     32          1           0       -3.805923    3.672402    1.057205
     33          1           0       -1.604282    3.381780    2.175565
     34          1           0        0.061720    1.807862    1.253611
 ---------------------------------------------------------------------

 SCF Done:  E(RB3LYP) =  -1036.29823984     A.U. after    1 cycles

 Excitation energies and oscillator strengths:

 Excited State   1:      Singlet-A      4.5093 eV  274.95 nm  f=0.1275  <S**2>=0.000
      69 -> 70         0.69715
 This state for optimization and/or second-order correction.
 Total Energy, E(TD-HF/TD-DFT) =  -1036.13252458
 Copying the excited state density for this state as the 1-particle RhoCI density.

 Excited State   2:      Singlet-A      4.5112 eV  274.84 nm  f=0.1283  <S**2>=0.000
      69 -> 71         0.69712

 Excited State   3:      Singlet-A      4.7568 eV  260.65 nm  f=0.0022  <S**2>=0.000
      67 -> 70         0.12153
      68 -> 71        -0.12193
      69 -> 72         0.67468

 Excited State   4:      Singlet-A      5.0575 eV  245.15 nm  f=0.0002  <S**2>=0.000
      66 -> 70        -0.16843
      67 -> 70         0.13053
      68 -> 71         0.13020
      69 -> 74         0.62983

 Excited State   5:      Singlet-A      5.0582 eV  245.12 nm  f=0.0002  <S**2>=0.000
      66 -> 71         0.16894
      67 -> 71         0.13110
      68 -> 70        -0.13098
      69 -> 75         0.62940

 Excited State   6:      Singlet-A      5.1507 eV  240.71 nm  f=0.0085  <S**2>=0.000
      69 -> 73         0.67912

 Excited State   7:      Singlet-A      5.4275 eV  228.44 nm  f=0.0147  <S**2>=0.000
      63 -> 72        -0.16610
      64 -> 74         0.14165
      65 -> 75        -0.13975
      67 -> 70         0.42059
      68 -> 71        -0.41501
      69 -> 72        -0.16509

 Excited State   8:      Singlet-A      5.5139 eV  224.86 nm  f=0.0005  <S**2>=0.000
      63 -> 74         0.14382
      64 -> 72        -0.22119
      64 -> 75        -0.10236
      65 -> 72         0.17607
      65 -> 74         0.10113
      66 -> 70         0.22640
      67 -> 70        -0.26546
      68 -> 71        -0.27314
      68 -> 72         0.16344
      69 -> 74         0.28687

 Excited State   9:      Singlet-A      5.5148 eV  224.82 nm  f=0.0004  <S**2>=0.000
      63 -> 75         0.14418
      64 -> 72         0.17634
      64 -> 74        -0.10109
      65 -> 72         0.22129
      65 -> 75        -0.10125
      66 -> 71        -0.22527
      67 -> 71        -0.26844
      67 -> 72        -0.16395
      68 -> 70         0.27224
      69 -> 75         0.28764

 Excited State  10:      Singlet-A      5.6181 eV  220.69 nm  f=0.0009  <S**2>=0.000
      67 -> 71         0.47144
      68 -> 70         0.47816

 The electronic state is 1-A.
 Alpha  occ. eigenvalues --  -77.08112 -10.19448 -10.19447 -10.19446 -10.19148
 Alpha  occ. eigenvalues --  -10.19146 -10.19145 -10.19119 -10.19116 -10.19116
 Alpha  occ. eigenvalues --  -10.19032 -10.19030 -10.19029 -10.19009 -10.19007
 Alpha  occ. eigenvalues --  -10.19006 -10.18963 -10.18961 -10.18960  -6.54843
 Alpha  occ. eigenvalues --   -4.71102  -4.71102  -4.70601  -0.85560  -0.84846
 Alpha  occ. eigenvalues --   -0.84845  -0.76669  -0.74366  -0.74366  -0.74329
 Alpha  occ. eigenvalues --   -0.73822  -0.73821  -0.64436  -0.60336  -0.60308
 Alpha  occ. eigenvalues --   -0.60306  -0.59207  -0.59207  -0.55448  -0.51435
 Alpha  occ. eigenvalues --   -0.51435  -0.49295  -0.45440  -0.45439  -0.44774
 Alpha  occ. eigenvalues --   -0.44345  -0.44344  -0.44067  -0.41946  -0.41869
 Alpha  occ. eigenvalues --   -0.41868  -0.40379  -0.40377  -0.36844  -0.36352
 Alpha  occ. eigenvalues --   -0.36350  -0.35898  -0.34252  -0.34251  -0.34224
 Alpha  occ. eigenvalues --   -0.31884  -0.31883  -0.26777  -0.25449  -0.25445
 Alpha  occ. eigenvalues --   -0.25243  -0.24704  -0.24703  -0.21143
 Alpha virt. eigenvalues --   -0.01882  -0.01877  -0.00830   0.00173   0.00426
 Alpha virt. eigenvalues --    0.00431   0.06880   0.06889   0.09493   0.11038
 Alpha virt. eigenvalues --    0.11039   0.13904   0.14528   0.14529   0.15165

 Mulliken charges:
               1
     1  P    0.450599
     2  C   -0.134312
     3  C   -0.173827
     4  C   -0.122008
     5  C   -0.169523
     6  C   -0.119906
     7  C   -0.173560
     8  C   -0.092744
     9  C   -0.163422
    10  C   -0.115663
    11  C   -0.138506
    12  C   -0.124270
    13  C   -0.153240
    14  C   -0.094109
    15  C   -0.165180
    16  C   -0.116779
    17  C   -0.128136
    18  C   -0.122512
    19  C   -0.148600
    20  H    0.111871
    21  H    0.112211
    22  H    0.106338
    23  H    0.116027
    24  H    0.127301
    25  H    0.146508
    26  H    0.135951
    27  H    0.132825
    28  H    0.133589
    29  H    0.140258
    30  H    0.141979
    31  H    0.138742
    32  H    0.141383
    33  H    0.143701
    34  H    0.177012
 Sum of Mulliken charges =  -0.00000

 Dipole moment (field-independent basis, Debye):
    X=             -3.7664    Y=             -0.0878    Z=             -0.1967  Tot=              3.7725
 Quadrupole moment (field-independent basis, Debye-Ang):
   XX=           -118.4694   YY=           -108.5939   ZZ=           -110.6671
   XY=             -5.0025   XZ=             -1.1187   YZ=              0.7706

 Summary of Natural Population Analysis:

                                       Natural Population
                Natural  -----------------------------------------------
    Atom  No    Charge         Core      Valence    Rydberg      Total
 -----------------------------------------------------------------------
      P    1    1.24221      9.99750     3.71005    0.05024    13.75779
      C    2   -0.48954      1.99886     4.46498    0.02569     6.48954
      C    3   -0.23716      1.99901     4.22175    0.01640     6.23716
      C    4   -0.24341      1.99910     4.22932    0.01499     6.24341
      C    5   -0.29931      1.99910     4.28346    0.01676     6.29931
      C    6   -0.23215      1.99909     4.21841    0.01466     6.23215
      C    7   -0.25902      1.99899     4.24198    0.01805     6.25902
      C    8   -0.40592      1.99888     4.38299    0.02405     6.40592
      C    9   -0.23996      1.99899     4.22395    0.01702     6.23996
      C   10   -0.22312      1.99909     4.20994    0.01409     6.22312
      C   11   -0.23376      1.99909     4.21981    0.01486     6.23376
      C   12   -0.24550      1.99910     4.23162    0.01479     6.24550
      C   13   -0.20084      1.99901     4.18648    0.01534     6.20084
      C   14   -0.40121      1.99890     4.37655    0.02576     6.40121
      C   15   -0.21632      1.99902     4.20181    0.01549     6.21632
      C   16   -0.23168      1.99910     4.21840    0.01419     6.23168
      C   17   -0.21151      1.99909     4.19819    0.01422     6.21151
      C   18   -0.23480      1.99909     4.22145    0.01426     6.23480
      C   19   -0.20385      1.99900     4.18854    0.01631     6.20385
      H   20    0.22276      0.00000     0.77627    0.00097     0.77724
      H   21    0.22885      0.00000     0.77023    0.00092     0.77115
      H   22    0.22487      0.00000     0.77423    0.00090     0.77513
      H   23    0.23139      0.00000     0.76773    0.00088     0.76861
      H   24    0.23412      0.00000     0.76434    0.00154     0.76588
      H   25    0.24523      0.00000     0.75349    0.00128     0.75477
      H   26    0.24052      0.00000     0.75860    0.00088     0.75948
      H   27    0.23640      0.00000     0.76273    0.00087     0.76360
      H   28    0.23926      0.00000     0.75987    0.00087     0.76074
      H   29    0.23848      0.00000     0.76028    0.00124     0.76152
      H   30    0.23793      0.00000     0.76095    0.00112     0.76207
      H   31    0.24096      0.00000     0.75811    0.00093     0.75904
      H   32    0.23998      0.00000     0.75916    0.00085     0.76002
      H   33    0.24425      0.00000     0.75487    0.00087     0.75575
      H   34    0.26184      0.00000     0.73685    0.00132     0.73816
 =======================================================================
   * Total *   -0.00000     45.98001    91.64740    0.37259   138.00000

 Normal termination of Gaussian 16 at Sun Dec  8 19:25:45 2019.
