 Gaussian 16, Revision A.03,

 ---------------------------------
 # opt=CalcFc B3LYP/6-31G* scf=xqc
 ---------------------------------

 -------------------
 Title Card Required
 -------------------
 Symbolic Z-matrix:
 Charge =  0 Multiplicity = 1

 SCF Done:  E(RB3LYP) =  -652.822595226     A.U. after   14 cycles
 SCF Done:  E(RB3LYP) =  -652.830142068     A.U. after   14 cycles
 SCF Done:  E(RB3LYP) =  -652.823292739     A.U. after   13 cycles
 SCF Done:  E(RB3LYP) =  -652.830542216     A.U. after   11 cycles
 SCF Done:  E(RB3LYP) =  -652.830558691     A.U. after    9 cycles
 SCF Done:  E(RB3LYP) =  -652.830564988     A.U. after    9 cycles
 SCF Done:  E(RB3LYP) =  -652.830568839     A.U. after   10 cycles
 SCF Done:  E(RB3LYP) =  -652.830577009     A.U. after   11 cycles
 SCF Done:  E(RB3LYP) =  -652.830592549     A.U. after   11 cycles
 SCF Done:  E(RB3LYP) =  -652.830613786     A.U. after   11 cycles
 SCF Done:  E(RB3LYP) =  -652.830858719     A.U. after   14 cycles
 SCF Done:  E(RB3LYP) =  -652.831031001     A.U. after   11 cycles
 SCF Done:  E(RB3LYP) =  -652.831244401     A.U. after   11 cycles
 SCF Done:  E(RB3LYP) =  -652.831257506     A.U. after   11 cycles
 SCF Done:  E(RB3LYP) =  -652.831277171     A.U. after   11 cycles
 SCF Done:  E(RB3LYP) =  -652.831280842     A.U. after    8 cycles
 SCF Done:  E(RB3LYP) =  -652.831281132     A.U. after    8 cycles
 SCF Done:  E(RB3LYP) =  -652.831281171     A.U. after    7 cycles
 Optimization completed.
    -- Stationary point found.
 Normal termination of Gaussian 16 at Wed Feb 27 04:01:04 2019.

 ----------------------------------------------------------------------
 # freq B3LYP/6-31G* volume NMR pop=NPA density=current Geom=AllCheck G
 uess=Read
 ----------------------------------------------------------------------

 Structure from the checkpoint file:  "direct_arylation_ligand_70_conf22.chk"
 -------------------
 Title Card Required
 -------------------
 Charge =  0 Multiplicity = 1

 SCF Done:  E(RB3LYP) =  -652.831281171     A.U. after    1 cycles

      1  P    Isotropic =   411.2337   Anisotropy =    64.5402

      2  C    Isotropic =    54.2421   Anisotropy =   184.8368

      3  C    Isotropic =    59.8080   Anisotropy =   157.2368

      4  C    Isotropic =    68.8861   Anisotropy =   163.8389

      5  C    Isotropic =    66.9958   Anisotropy =   168.0890

      6  C    Isotropic =    68.7260   Anisotropy =   163.9516

      7  C    Isotropic =    66.6496   Anisotropy =   173.7053

      8  C    Isotropic =   172.1511   Anisotropy =    23.9073

      9  H    Isotropic =    30.8813   Anisotropy =     7.6208

     10  H    Isotropic =    31.1421   Anisotropy =    10.2207

     11  H    Isotropic =    31.1155   Anisotropy =     9.1292

     12  C    Isotropic =   172.1499   Anisotropy =    23.9115

     13  H    Isotropic =    31.1147   Anisotropy =     9.1313

     14  H    Isotropic =    31.1422   Anisotropy =    10.2194

     15  H    Isotropic =    30.8815   Anisotropy =     7.6212

     16  H    Isotropic =    24.6132   Anisotropy =     7.7364

     17  H    Isotropic =    25.0014   Anisotropy =     4.5871

     18  H    Isotropic =    24.9638   Anisotropy =     4.1953

     19  H    Isotropic =    24.9055   Anisotropy =     5.1587

     20  H    Isotropic =    24.6153   Anisotropy =     9.7221

  Exact polarizability: 138.452  -0.906 100.853   0.002  -0.014  66.522
 Approx polarizability: 197.767  -2.424 173.852   0.005  -0.035  96.871

                      1                      2                      3
                      A                      A                      A
 Frequencies --     37.2376               107.2497               169.4519
 Red. masses --      3.3684                 2.8572                 2.8289
 Frc consts  --      0.0028                 0.0194                 0.0479
 IR Inten    --      0.3947                 0.0373                 0.2491

                      4                      5                      6
                      A                      A                      A
 Frequencies --    190.6148               199.8435               239.6415
 Red. masses --      1.0762                 1.1186                 2.2787
 Frc consts  --      0.0230                 0.0263                 0.0771
 IR Inten    --      0.0192                 0.0111                 0.0740

                      7                      8                      9
                      A                      A                      A
 Frequencies --    259.2973               329.4175               399.9545
 Red. masses --      3.5669                 4.2326                 5.9832
 Frc consts  --      0.1413                 0.2706                 0.5639
 IR Inten    --      1.1941                 0.7754                 7.9990

                     10                     11                     12
                      A                      A                      A
 Frequencies --    413.1664               491.0039               632.3875
 Red. masses --      2.9340                 3.4469                 6.3111
 Frc consts  --      0.2951                 0.4896                 1.4870
 IR Inten    --      0.0329                 4.9585                 0.2691

                     13                     14                     15
                      A                      A                      A
 Frequencies --    656.9691               693.6370               703.9271
 Red. masses --      4.7382                 4.7383                 6.2210
 Frc consts  --      1.2049                 1.3432                 1.8162
 IR Inten    --      4.8520                15.1099                 1.9588

                     16                     17                     18
                      A                      A                      A
 Frequencies --    713.3328               760.1062               842.9803
 Red. masses --      2.0830                 1.5706                 1.1924
 Frc consts  --      0.6245                 0.5347                 0.4993
 IR Inten    --     19.4952                29.7476                 1.0730

                     19                     20                     21
                      A                      A                      A
 Frequencies --    866.2712               900.0468               933.8983
 Red. masses --      1.2483                 1.2815                 1.3582
 Frc consts  --      0.5519                 0.6117                 0.6979
 IR Inten    --      0.2372                10.0262                50.4086

                     22                     23                     24
                      A                      A                      A
 Frequencies --    935.3601               976.8754               983.8989
 Red. masses --      1.3572                 1.3583                 1.3897
 Frc consts  --      0.6996                 0.7637                 0.7926
 IR Inten    --      0.0329                 0.0024                29.6297

                     25                     26                     27
                      A                      A                      A
 Frequencies --   1001.7628              1016.7398              1053.0140
 Red. masses --      1.2581                 6.2398                 3.1324
 Frc consts  --      0.7439                 3.8005                 2.0464
 IR Inten    --      0.0436                 1.2006                 0.2245

                     28                     29                     30
                      A                      A                      A
 Frequencies --   1108.2546              1117.9485              1193.7250
 Red. masses --      1.7052                 2.5334                 1.1017
 Frc consts  --      1.2339                 1.8655                 0.9250
 IR Inten    --      0.8958                16.6973                 0.0169

                     31                     32                     33
                      A                      A                      A
 Frequencies --   1217.8361              1328.1529              1348.7208
 Red. masses --      1.1436                 3.1389                 1.1980
 Frc consts  --      0.9993                 3.2623                 1.2840
 IR Inten    --      1.2772                 3.2368                 1.7602

                     34                     35                     36
                      A                      A                      A
 Frequencies --   1358.7927              1369.9883              1481.2249
 Red. masses --      1.5053                 1.3416                 2.0759
 Frc consts  --      1.6375                 1.4836                 2.6835
 IR Inten    --      0.1153                 4.1367                10.9636

                     37                     38                     39
                      A                      A                      A
 Frequencies --   1493.9896              1495.5558              1504.0681
 Red. masses --      1.0529                 1.0554                 1.0558
 Frc consts  --      1.3846                 1.3908                 1.4073
 IR Inten    --      0.3302                 9.3143                 6.0010

                     40                     41                     42
                      A                      A                      A
 Frequencies --   1507.8339              1533.0598              1632.8191
 Red. masses --      1.0590                 2.0029                 5.1283
 Frc consts  --      1.4186                 2.7735                 8.0556
 IR Inten    --      8.3471                 4.2436                 0.8479

                     43                     44                     45
                      A                      A                      A
 Frequencies --   1648.1563              3044.1719              3044.2418
 Red. masses --      5.3392                 1.0335                 1.0336
 Frc consts  --      8.5452                 5.6427                 5.6436
 IR Inten    --      0.1929                21.2888                13.8708

                     46                     47                     48
                      A                      A                      A
 Frequencies --   3120.1143              3121.2065              3135.7502
 Red. masses --      1.1038                 1.1026                 1.1023
 Frc consts  --      6.3309                 6.3289                 6.3862
 IR Inten    --      0.3646                33.9288                12.1257

                     49                     50                     51
                      A                      A                      A
 Frequencies --   3135.8065              3173.6655              3180.3943
 Red. masses --      1.1020                 1.0848                 1.0865
 Frc consts  --      6.3845                 6.4373                 6.4752
 IR Inten    --      8.2231                 3.5018                 0.4344

                     52                     53                     54
                      A                      A                      A
 Frequencies --   3188.3057              3196.1319              3206.7025
 Red. masses --      1.0906                 1.0940                 1.0979
 Frc consts  --      6.5318                 6.5845                 6.6517
 IR Inten    --      8.0606                41.6490                27.1258

 - Thermochemistry -
 -------------------
 Temperature   298.150 Kelvin.  Pressure   1.00000 Atm.
 Atom     1 has atomic number 15 and mass  30.97376

 Molecular mass:   138.05984 amu.
 Principal axes and moments of inertia in atomic units:
                           1         2         3
     Eigenvalues --   632.843592105.248972253.47830
           X            0.99977  -0.02149   0.00002
           Y            0.02149   0.99977   0.00009
           Z           -0.00002  -0.00009   1.00000
 This molecule is an asymmetric top.
 Rotational symmetry number  1.
 Warning -- assumption of classical behavior for rotation
           may cause significant error
 Rotational temperatures (Kelvin)      0.13686     0.04114     0.03844
 Rotational constants (GHZ):           2.85180     0.85726     0.80087
 Zero-point vibrational energy     438997.8 (Joules/Mol)
                                  104.92300 (Kcal/Mol)
 Warning -- explicit consideration of  11 degrees of freedom as
           vibrations may cause significant error
 Vibrational temperatures:     53.58   154.31   243.80   274.25   287.53
          (Kelvin)            344.79   373.07   473.96   575.45   594.45
                              706.45   909.86   945.23   997.99  1012.79
                             1026.33  1093.62  1212.86  1246.37  1294.97
                             1343.67  1345.77  1405.51  1415.61  1441.31
                             1462.86  1515.05  1594.53  1608.48  1717.50
                             1752.19  1910.92  1940.51  1955.00  1971.11
                             2131.15  2149.52  2151.77  2164.02  2169.44
                             2205.73  2349.26  2371.33  4379.88  4379.98
                             4489.15  4490.72  4511.65  4511.73  4566.20
                             4575.88  4587.26  4598.52  4613.73

 Zero-point correction=                           0.167205 (Hartree/Particle)
 Thermal correction to Energy=                    0.176871
 Thermal correction to Enthalpy=                  0.177815
 Thermal correction to Gibbs Free Energy=         0.131999
 Sum of electronic and zero-point Energies=           -652.664076
 Sum of electronic and thermal Energies=              -652.654410
 Sum of electronic and thermal Enthalpies=            -652.653466
 Sum of electronic and thermal Free Energies=         -652.699283

                     E (Thermal)             CV                S
                      KCal/Mol        Cal/Mol-Kelvin    Cal/Mol-Kelvin
 Total                  110.988             36.222             96.429
 Electronic               0.000              0.000              0.000
 Translational            0.889              2.981             40.679
 Rotational               0.889              2.981             29.486
 Vibrational            109.211             30.260             26.264
 Vibration     1          0.594              1.982              5.401
 Vibration     2          0.606              1.943              3.318
 Vibration     3          0.625              1.880              2.442
 Vibration     4          0.634              1.853              2.222
 Vibration     5          0.638              1.840              2.135
 Vibration     6          0.657              1.780              1.806
 Vibration     7          0.668              1.747              1.666
 Vibration     8          0.712              1.617              1.263
 Vibration     9          0.766              1.470              0.963
 Vibration    10          0.777              1.442              0.915
 Vibration    11          0.847              1.270              0.681

 Optimization completed.
    -- Stationary point found.
 Normal termination of Gaussian 16 at Wed Feb 27 04:03:20 2019.
 Gaussian 16:  ES64L-G16RevA.03 25-Dec-2016

 ----------------------------------------------------------------------
 # TD(NStates=10, Root=1) B3LYP/6-31G* volume pop=NPA density=current G
 eom=AllCheck Guess=Read
 ----------------------------------------------------------------------

 Structure from the checkpoint file:  "direct_arylation_ligand_70_conf23.chk"
 -------------------
 Title Card Required
 -------------------
 Charge =  0 Multiplicity = 1

                         Standard orientation:
 ---------------------------------------------------------------------
 Center     Atomic      Atomic             Coordinates (Angstroms)
 Number     Number       Type             X           Y           Z
 ---------------------------------------------------------------------
      1         15           0       -1.642649   -0.658474    0.000556
      2          6           0        0.163201   -0.223367    0.000015
      3          6           0        1.089139   -1.276961    0.000587
      4          6           0        2.463813   -1.027171    0.000482
      5          6           0        2.933544    0.285965   -0.000201
      6          6           0        2.024159    1.347151   -0.000756
      7          6           0        0.653011    1.092744   -0.000640
      8          6           0       -2.262226    0.383326    1.423280
      9          1           0       -1.982373    1.440187    1.344318
     10          1           0       -3.355153    0.314309    1.462363
     11          1           0       -1.867094   -0.013729    2.363723
     12          6           0       -2.262770    0.380868   -1.423719
     13          1           0       -1.868492   -0.018120   -2.363697
     14          1           0       -3.355754    0.312204   -1.461856
     15          1           0       -1.982465    1.437780   -1.346945
     16          1           0        0.726533   -2.302078    0.001121
     17          1           0        3.165081   -1.857725    0.000931
     18          1           0        4.002245    0.484263   -0.000293
     19          1           0        2.384828    2.372828   -0.001275
     20          1           0       -0.038849    1.931853   -0.001011
 ---------------------------------------------------------------------

 SCF Done:  E(RB3LYP) =  -652.831281171     A.U. after    1 cycles

 Excitation energies and oscillator strengths:

 Excited State   1:      Singlet-A      4.8095 eV  257.79 nm  f=0.0060  <S**2>=0.000
      37 -> 38         0.70326
 This state for optimization and/or second-order correction.
 Total Energy, E(TD-HF/TD-DFT) =  -652.654535820
 Copying the excited state density for this state as the 1-particle RhoCI density.

 Excited State   2:      Singlet-A      5.2448 eV  236.39 nm  f=0.0006  <S**2>=0.000
      37 -> 39         0.70450

 Excited State   3:      Singlet-A      5.3569 eV  231.45 nm  f=0.0039  <S**2>=0.000
      35 -> 38         0.53250
      36 -> 39         0.45899

 Excited State   4:      Singlet-A      5.9761 eV  207.47 nm  f=0.0831  <S**2>=0.000
      35 -> 39        -0.33516
      36 -> 38         0.61465

 Excited State   5:      Singlet-A      6.9223 eV  179.11 nm  f=0.4037  <S**2>=0.000
      35 -> 38        -0.18269
      35 -> 39         0.48738
      36 -> 38         0.25864
      36 -> 39         0.21745
      37 -> 40         0.30193

 Excited State   6:      Singlet-A      6.9471 eV  178.47 nm  f=0.5627  <S**2>=0.000
      33 -> 38         0.11009
      35 -> 38        -0.37828
      35 -> 39        -0.30759
      35 -> 41        -0.12160
      36 -> 38        -0.16560
      36 -> 39         0.42635
      37 -> 40         0.11404

 Excited State   7:      Singlet-A      6.9870 eV  177.45 nm  f=0.0001  <S**2>=0.000
      34 -> 38         0.66331
      37 -> 41         0.21413

 Excited State   8:      Singlet-A      7.0324 eV  176.31 nm  f=0.2018  <S**2>=0.000
      33 -> 38         0.16299
      35 -> 38         0.15972
      35 -> 39        -0.15708
      36 -> 39        -0.19974
      37 -> 40         0.59577

 Excited State   9:      Singlet-A      7.2890 eV  170.10 nm  f=0.0006  <S**2>=0.000
      34 -> 39         0.68996

 Excited State  10:      Singlet-A      7.4217 eV  167.06 nm  f=0.0990  <S**2>=0.000
      34 -> 38        -0.14267
      36 -> 40        -0.33039
      37 -> 41         0.59431

 The electronic state is 1-A.
 Alpha  occ. eigenvalues --  -77.07448 -10.19230 -10.19201 -10.19100 -10.19086
 Alpha  occ. eigenvalues --  -10.18995 -10.18941 -10.17968 -10.17968  -6.54186
 Alpha  occ. eigenvalues --   -4.70456  -4.70431  -4.69929  -0.85041  -0.75959
 Alpha  occ. eigenvalues --   -0.74312  -0.72142  -0.68470  -0.60707  -0.60013
 Alpha  occ. eigenvalues --   -0.54324  -0.50133  -0.44872  -0.44701  -0.42620
 Alpha  occ. eigenvalues --   -0.42101  -0.41250  -0.40242  -0.39655  -0.38009
 Alpha  occ. eigenvalues --   -0.36405  -0.34292  -0.32752  -0.31317  -0.24981
 Alpha  occ. eigenvalues --   -0.24737  -0.22408
 Alpha virt. eigenvalues --   -0.01341  -0.00068   0.06228   0.07291   0.08586
 Alpha virt. eigenvalues --    0.11761   0.12423   0.13852   0.14528   0.15351
 Alpha virt. eigenvalues --    0.16168   0.16779   0.17569   0.18346   0.19296

 Mulliken charges:
               1
     1  P    0.600610
     2  C   -0.146456
     3  C   -0.172428
     4  C   -0.138640
     5  C   -0.200552
     6  C   -0.103545
     7  C   -0.206514
     8  C   -0.634389
     9  H    0.228728
    10  H    0.169409
    11  H    0.209940
    12  C   -0.634377
    13  H    0.209911
    14  H    0.169397
    15  H    0.228744
    16  H    0.083333
    17  H    0.089788
    18  H    0.082064
    19  H    0.099699
    20  H    0.065277
 Sum of Mulliken charges =   0.00000

 Dipole moment (field-independent basis, Debye):
    X=             -7.6422    Y=             -0.3876    Z=              0.0009  Tot=              7.6520
 Quadrupole moment (field-independent basis, Debye-Ang):
   XX=            -58.4638   YY=            -58.3395   ZZ=            -62.2201
   XY=              0.6546   XZ=             -0.0002   YZ=             -0.0017

 Summary of Natural Population Analysis:

                                       Natural Population
                Natural  -----------------------------------------------
    Atom  No    Charge         Core      Valence    Rydberg      Total
 -----------------------------------------------------------------------
      P    1    1.38366      9.99738     3.57059    0.04837    13.61634
      C    2   -0.57883      1.99882     4.55721    0.02281     6.57883
      C    3   -0.23625      1.99903     4.22158    0.01563     6.23625
      C    4   -0.27908      1.99910     4.26360    0.01638     6.27908
      C    5   -0.36187      1.99910     4.34468    0.01809     6.36187
      C    6   -0.21082      1.99908     4.19728    0.01447     6.21082
      C    7   -0.33379      1.99898     4.31490    0.01990     6.33379
      C    8   -1.03079      1.99944     5.02104    0.01030     7.03079
      H    9    0.28786      0.00000     0.71174    0.00040     0.71214
      H   10    0.24509      0.00000     0.75342    0.00149     0.75491
      H   11    0.27400      0.00000     0.72528    0.00071     0.72600
      C   12   -1.03080      1.99944     5.02105    0.01031     7.03080
      H   13    0.27398      0.00000     0.72530    0.00071     0.72602
      H   14    0.24508      0.00000     0.75343    0.00149     0.75492
      H   15    0.28787      0.00000     0.71172    0.00040     0.71213
      H   16    0.20742      0.00000     0.79204    0.00054     0.79258
      H   17    0.21910      0.00000     0.78007    0.00083     0.78090
      H   18    0.21446      0.00000     0.78482    0.00072     0.78554
      H   19    0.22472      0.00000     0.77444    0.00084     0.77528
      H   20    0.19897      0.00000     0.80026    0.00077     0.80103
 =======================================================================
   * Total *   -0.00000     25.99038    47.82444    0.18518    74.00000

 Normal termination of Gaussian 16 at Wed Feb 27 04:06:27 2019.
