 Gaussian 16, Revision A.03,

 ---------------------------------
 # opt=CalcFc B3LYP/6-31G* scf=xqc
 ---------------------------------

 -------------------
 Title Card Required
 -------------------
 Symbolic Z-matrix:
 Charge =  0 Multiplicity = 1

 SCF Done:  E(RB3LYP) =  -652.828739392     A.U. after   14 cycles
 SCF Done:  E(RB3LYP) =  -652.830600635     A.U. after   11 cycles
 SCF Done:  E(RB3LYP) =  -652.830634533     A.U. after   12 cycles
 SCF Done:  E(RB3LYP) =  -652.830654828     A.U. after   12 cycles
 SCF Done:  E(RB3LYP) =  -652.830846787     A.U. after   14 cycles
 SCF Done:  E(RB3LYP) =  -652.830997491     A.U. after   12 cycles
 SCF Done:  E(RB3LYP) =  -652.830102895     A.U. after   12 cycles
 SCF Done:  E(RB3LYP) =  -652.831243904     A.U. after   12 cycles
 SCF Done:  E(RB3LYP) =  -652.831278627     A.U. after   11 cycles
 SCF Done:  E(RB3LYP) =  -652.831281040     A.U. after    9 cycles
 SCF Done:  E(RB3LYP) =  -652.831281163     A.U. after    7 cycles
 Optimization completed.
    -- Stationary point found.
 Normal termination of Gaussian 16 at Wed Feb 27 04:01:16 2019.

 ----------------------------------------------------------------------
 # freq B3LYP/6-31G* volume NMR pop=NPA density=current Geom=AllCheck G
 uess=Read
 ----------------------------------------------------------------------

 Structure from the checkpoint file:  "direct_arylation_ligand_70_conf62.chk"
 -------------------
 Title Card Required
 -------------------
 Charge =  0 Multiplicity = 1

 SCF Done:  E(RB3LYP) =  -652.831281163     A.U. after    1 cycles

      1  P    Isotropic =   411.2418   Anisotropy =    64.5364

      2  C    Isotropic =    54.2362   Anisotropy =   184.8449

      3  C    Isotropic =    66.6540   Anisotropy =   173.7038

      4  C    Isotropic =    68.7258   Anisotropy =   163.9524

      5  C    Isotropic =    66.9968   Anisotropy =   168.0863

      6  C    Isotropic =    68.8855   Anisotropy =   163.8394

      7  C    Isotropic =    59.8086   Anisotropy =   157.2277

      8  C    Isotropic =   172.1434   Anisotropy =    23.9155

      9  H    Isotropic =    30.8816   Anisotropy =     7.6198

     10  H    Isotropic =    31.1416   Anisotropy =    10.2198

     11  H    Isotropic =    31.1150   Anisotropy =     9.1296

     12  C    Isotropic =   172.1417   Anisotropy =    23.9174

     13  H    Isotropic =    31.1155   Anisotropy =     9.1279

     14  H    Isotropic =    31.1415   Anisotropy =    10.2210

     15  H    Isotropic =    30.8818   Anisotropy =     7.6194

     16  H    Isotropic =    24.6156   Anisotropy =     9.7224

     17  H    Isotropic =    24.9055   Anisotropy =     5.1587

     18  H    Isotropic =    24.9638   Anisotropy =     4.1951

     19  H    Isotropic =    25.0015   Anisotropy =     4.5872

     20  H    Isotropic =    24.6131   Anisotropy =     7.7372

  Exact polarizability: 138.450   0.905 100.854  -0.002  -0.003  66.522
 Approx polarizability: 197.765   2.423 173.857  -0.004  -0.009  96.873

                      1                      2                      3
                      A                      A                      A
 Frequencies --     37.2689               107.2811               169.5001
 Red. masses --      3.3685                 2.8576                 2.8309
 Frc consts  --      0.0028                 0.0194                 0.0479
 IR Inten    --      0.3946                 0.0372                 0.2492

                      4                      5                      6
                      A                      A                      A
 Frequencies --    190.6692               199.8747               239.6831
 Red. masses --      1.0762                 1.1187                 2.2768
 Frc consts  --      0.0231                 0.0263                 0.0771
 IR Inten    --      0.0193                 0.0110                 0.0738

                      7                      8                      9
                      A                      A                      A
 Frequencies --    259.3210               329.4405               399.9531
 Red. masses --      3.5671                 4.2327                 5.9831
 Frc consts  --      0.1413                 0.2707                 0.5639
 IR Inten    --      1.1947                 0.7763                 7.9978

                     10                     11                     12
                      A                      A                      A
 Frequencies --    413.1692               491.0146               632.3855
 Red. masses --      2.9340                 3.4468                 6.3106
 Frc consts  --      0.2951                 0.4896                 1.4869
 IR Inten    --      0.0329                 4.9597                 0.2701

                     13                     14                     15
                      A                      A                      A
 Frequencies --    656.9216               693.5659               703.9101
 Red. masses --      4.7387                 4.7400                 6.2215
 Frc consts  --      1.2049                 1.3434                 1.8163
 IR Inten    --      4.8515                15.1094                 1.9543

                     16                     17                     18
                      A                      A                      A
 Frequencies --    713.3377               760.1046               842.9758
 Red. masses --      2.0830                 1.5706                 1.1924
 Frc consts  --      0.6245                 0.5347                 0.4992
 IR Inten    --     19.4933                29.7465                 1.0724

                     19                     20                     21
                      A                      A                      A
 Frequencies --    866.2718               900.0574               933.9202
 Red. masses --      1.2483                 1.2814                 1.3582
 Frc consts  --      0.5519                 0.6116                 0.6979
 IR Inten    --      0.2370                10.0145                50.4162

                     22                     23                     24
                      A                      A                      A
 Frequencies --    935.3521               976.8726               983.8796
 Red. masses --      1.3573                 1.3583                 1.3897
 Frc consts  --      0.6996                 0.7637                 0.7926
 IR Inten    --      0.0329                 0.0024                29.6157

                     25                     26                     27
                      A                      A                      A
 Frequencies --   1001.7616              1016.7378              1053.0125
 Red. masses --      1.2581                 6.2400                 3.1326
 Frc consts  --      0.7438                 3.8006                 2.0466
 IR Inten    --      0.0436                 1.2013                 0.2248

                     28                     29                     30
                      A                      A                      A
 Frequencies --   1108.2548              1117.9435              1193.7252
 Red. masses --      1.7053                 2.5330                 1.1017
 Frc consts  --      1.2341                 1.8652                 0.9250
 IR Inten    --      0.8960                16.6882                 0.0169

                     31                     32                     33
                      A                      A                      A
 Frequencies --   1217.8352              1328.1522              1348.6965
 Red. masses --      1.1436                 3.1395                 1.1980
 Frc consts  --      0.9993                 3.2629                 1.2839
 IR Inten    --      1.2769                 3.2377                 1.7588

                     34                     35                     36
                      A                      A                      A
 Frequencies --   1358.7802              1369.9770              1481.2255
 Red. masses --      1.5046                 1.3420                 2.0758
 Frc consts  --      1.6367                 1.4840                 2.6834
 IR Inten    --      0.1162                 4.1364                10.9649

                     37                     38                     39
                      A                      A                      A
 Frequencies --   1493.9807              1495.5671              1504.0669
 Red. masses --      1.0529                 1.0554                 1.0559
 Frc consts  --      1.3846                 1.3908                 1.4073
 IR Inten    --      0.3158                 9.3339                 6.0120

                     40                     41                     42
                      A                      A                      A
 Frequencies --   1507.8355              1533.0586              1632.8183
 Red. masses --      1.0590                 2.0028                 5.1283
 Frc consts  --      1.4186                 2.7734                 8.0556
 IR Inten    --      8.3366                 4.2445                 0.8481

                     43                     44                     45
                      A                      A                      A
 Frequencies --   1648.1507              3044.1628              3044.2328
 Red. masses --      5.3392                 1.0335                 1.0336
 Frc consts  --      8.5451                 5.6427                 5.6436
 IR Inten    --      0.1936                21.4187                13.7333

                     46                     47                     48
                      A                      A                      A
 Frequencies --   3120.1265              3121.2178              3135.7426
 Red. masses --      1.1038                 1.1026                 1.1023
 Frc consts  --      6.3310                 6.3290                 6.3862
 IR Inten    --      0.3631                33.9315                12.2553

                     49                     50                     51
                      A                      A                      A
 Frequencies --   3135.7954              3173.6786              3180.3899
 Red. masses --      1.1020                 1.0848                 1.0865
 Frc consts  --      6.3844                 6.4373                 6.4752
 IR Inten    --      8.0997                 3.4897                 0.4323

                     52                     53                     54
                      A                      A                      A
 Frequencies --   3188.3029              3196.1253              3206.6988
 Red. masses --      1.0906                 1.0940                 1.0979
 Frc consts  --      6.5318                 6.5845                 6.6517
 IR Inten    --      8.0448                41.6799                27.1272

 - Thermochemistry -
 -------------------
 Temperature   298.150 Kelvin.  Pressure   1.00000 Atm.
 Atom     1 has atomic number 15 and mass  30.97376

 Molecular mass:   138.05984 amu.
 Principal axes and moments of inertia in atomic units:
                           1         2         3
     Eigenvalues --   632.865792105.136882253.39541
           X            0.99977   0.02149  -0.00000
           Y           -0.02149   0.99977   0.00003
           Z            0.00001  -0.00003   1.00000
 This molecule is an asymmetric top.
 Rotational symmetry number  1.
 Warning -- assumption of classical behavior for rotation
           may cause significant error
 Rotational temperatures (Kelvin)      0.13686     0.04114     0.03844
 Rotational constants (GHZ):           2.85170     0.85730     0.80090
 Zero-point vibrational energy     438998.3 (Joules/Mol)
                                  104.92311 (Kcal/Mol)
 Warning -- explicit consideration of  11 degrees of freedom as
           vibrations may cause significant error
 Vibrational temperatures:     53.62   154.35   243.87   274.33   287.58
          (Kelvin)            344.85   373.11   473.99   575.44   594.46
                              706.46   909.86   945.16   997.89  1012.77
                             1026.33  1093.62  1212.85  1246.37  1294.98
                             1343.70  1345.76  1405.50  1415.58  1441.31
                             1462.86  1515.05  1594.53  1608.47  1717.50
                             1752.19  1910.91  1940.47  1954.98  1971.09
                             2131.15  2149.50  2151.79  2164.02  2169.44
                             2205.73  2349.26  2371.32  4379.87  4379.97
                             4489.17  4490.74  4511.63  4511.71  4566.22
                             4575.87  4587.26  4598.51  4613.72

 Zero-point correction=                           0.167206 (Hartree/Particle)
 Thermal correction to Energy=                    0.176871
 Thermal correction to Enthalpy=                  0.177815
 Thermal correction to Gibbs Free Energy=         0.132000
 Sum of electronic and zero-point Energies=           -652.664076
 Sum of electronic and thermal Energies=              -652.654410
 Sum of electronic and thermal Enthalpies=            -652.653466
 Sum of electronic and thermal Free Energies=         -652.699281

                     E (Thermal)             CV                S
                      KCal/Mol        Cal/Mol-Kelvin    Cal/Mol-Kelvin
 Total                  110.988             36.222             96.425
 Electronic               0.000              0.000              0.000
 Translational            0.889              2.981             40.679
 Rotational               0.889              2.981             29.486
 Vibrational            109.211             30.260             26.260
 Vibration     1          0.594              1.982              5.399
 Vibration     2          0.606              1.943              3.318
 Vibration     3          0.625              1.880              2.441
 Vibration     4          0.634              1.853              2.221
 Vibration     5          0.638              1.840              2.134
 Vibration     6          0.657              1.780              1.805
 Vibration     7          0.668              1.747              1.666
 Vibration     8          0.712              1.617              1.263
 Vibration     9          0.766              1.470              0.963
 Vibration    10          0.777              1.442              0.915
 Vibration    11          0.847              1.270              0.681

 Optimization completed.
    -- Stationary point found.
 Normal termination of Gaussian 16 at Wed Feb 27 04:03:43 2019.
 Gaussian 16:  ES64L-G16RevA.03 25-Dec-2016

 ----------------------------------------------------------------------
 # TD(NStates=10, Root=1) B3LYP/6-31G* volume pop=NPA density=current G
 eom=AllCheck Guess=Read
 ----------------------------------------------------------------------

 Structure from the checkpoint file:  "direct_arylation_ligand_70_conf63.chk"
 -------------------
 Title Card Required
 -------------------
 Charge =  0 Multiplicity = 1

                         Standard orientation:
 ---------------------------------------------------------------------
 Center     Atomic      Atomic             Coordinates (Angstroms)
 Number     Number       Type             X           Y           Z
 ---------------------------------------------------------------------
      1         15           0        1.642688   -0.658592    0.000147
      2          6           0       -0.163152   -0.223350   -0.000034
      3          6           0       -0.652958    1.092761   -0.000244
      4          6           0       -2.024118    1.347143   -0.000240
      5          6           0       -2.933489    0.285951   -0.000017
      6          6           0       -2.463743   -1.027186    0.000158
      7          6           0       -1.089072   -1.276962    0.000097
      8          6           0        2.262517    0.381854   -1.423497
      9          1           0        1.982552    1.438765   -1.345509
     10          1           0        3.355455    0.312849   -1.462231
     11          1           0        1.867650   -0.016094   -2.363674
     12          6           0        2.262205    0.382517    1.423486
     13          1           0        1.866704   -0.014797    2.363665
     14          1           0        3.355104    0.313217    1.462849
     15          1           0        1.982624    1.439475    1.344806
     16          1           0        0.038893    1.931873   -0.000398
     17          1           0       -2.384801    2.372816   -0.000415
     18          1           0       -4.002192    0.484236   -0.000013
     19          1           0       -3.165003   -1.857747    0.000299
     20          1           0       -0.726446   -2.302075    0.000164
 ---------------------------------------------------------------------

 SCF Done:  E(RB3LYP) =  -652.831281163     A.U. after    1 cycles

 Excitation energies and oscillator strengths:

 Excited State   1:      Singlet-A      4.8104 eV  257.74 nm  f=0.0060  <S**2>=0.000
      37 -> 38         0.70326
 This state for optimization and/or second-order correction.
 Total Energy, E(TD-HF/TD-DFT) =  -652.654502461
 Copying the excited state density for this state as the 1-particle RhoCI density.

 Excited State   2:      Singlet-A      5.2456 eV  236.36 nm  f=0.0006  <S**2>=0.000
      37 -> 39         0.70449

 Excited State   3:      Singlet-A      5.3570 eV  231.45 nm  f=0.0039  <S**2>=0.000
      35 -> 38         0.53245
      36 -> 39         0.45901

 Excited State   4:      Singlet-A      5.9761 eV  207.47 nm  f=0.0830  <S**2>=0.000
      35 -> 39        -0.33514
      36 -> 38         0.61462

 Excited State   5:      Singlet-A      6.9223 eV  179.11 nm  f=0.4041  <S**2>=0.000
      35 -> 38        -0.18239
      35 -> 39         0.48775
      36 -> 38         0.25883
      36 -> 39         0.21715
      37 -> 40        -0.30150

 Excited State   6:      Singlet-A      6.9470 eV  178.47 nm  f=0.5622  <S**2>=0.000
      33 -> 38         0.11004
      35 -> 38        -0.37850
      35 -> 39        -0.30709
      35 -> 41        -0.12173
      36 -> 38        -0.16535
      36 -> 39         0.42654
      37 -> 40        -0.11424

 Excited State   7:      Singlet-A      6.9868 eV  177.45 nm  f=0.0001  <S**2>=0.000
      34 -> 38         0.66336
      37 -> 41        -0.21395

 Excited State   8:      Singlet-A      7.0323 eV  176.31 nm  f=0.2018  <S**2>=0.000
      33 -> 38        -0.16299
      35 -> 38        -0.15957
      35 -> 39         0.15686
      36 -> 39         0.19958
      37 -> 40         0.59595

 Excited State   9:      Singlet-A      7.2886 eV  170.11 nm  f=0.0006  <S**2>=0.000
      34 -> 39         0.68997

 Excited State  10:      Singlet-A      7.4216 eV  167.06 nm  f=0.0983  <S**2>=0.000
      34 -> 38         0.14152
      36 -> 40         0.33393
      37 -> 41         0.59267

 The electronic state is 1-A.
 Alpha  occ. eigenvalues --  -77.07449 -10.19230 -10.19200 -10.19100 -10.19086
 Alpha  occ. eigenvalues --  -10.18995 -10.18941 -10.17968 -10.17968  -6.54187
 Alpha  occ. eigenvalues --   -4.70457  -4.70432  -4.69929  -0.85041  -0.75959
 Alpha  occ. eigenvalues --   -0.74311  -0.72141  -0.68469  -0.60707  -0.60013
 Alpha  occ. eigenvalues --   -0.54324  -0.50133  -0.44872  -0.44700  -0.42620
 Alpha  occ. eigenvalues --   -0.42101  -0.41250  -0.40242  -0.39654  -0.38009
 Alpha  occ. eigenvalues --   -0.36405  -0.34292  -0.32751  -0.31316  -0.24981
 Alpha  occ. eigenvalues --   -0.24737  -0.22410
 Alpha virt. eigenvalues --   -0.01341  -0.00068   0.06226   0.07289   0.08585
 Alpha virt. eigenvalues --    0.11761   0.12422   0.13853   0.14529   0.15351
 Alpha virt. eigenvalues --    0.16168   0.16777   0.17569   0.18345   0.19296

 Mulliken charges:
               1
     1  P    0.600585
     2  C   -0.146456
     3  C   -0.206529
     4  C   -0.103539
     5  C   -0.200544
     6  C   -0.138664
     7  C   -0.172409
     8  C   -0.634358
     9  H    0.228725
    10  H    0.169404
    11  H    0.209934
    12  C   -0.634363
    13  H    0.209952
    14  H    0.169406
    15  H    0.228708
    16  H    0.065272
    17  H    0.099700
    18  H    0.082064
    19  H    0.089782
    20  H    0.083332
 Sum of Mulliken charges =  -0.00000

 Dipole moment (field-independent basis, Debye):
    X=              7.6422    Y=             -0.3877    Z=              0.0003  Tot=              7.6521
 Quadrupole moment (field-independent basis, Debye-Ang):
   XX=            -58.4644   YY=            -58.3392   ZZ=            -62.2206
   XY=             -0.6554   XZ=             -0.0002   YZ=             -0.0004

 Summary of Natural Population Analysis:

                                       Natural Population
                Natural  -----------------------------------------------
    Atom  No    Charge         Core      Valence    Rydberg      Total
 -----------------------------------------------------------------------
      P    1    1.38357      9.99738     3.57068    0.04837    13.61643
      C    2   -0.57878      1.99882     4.55716    0.02281     6.57878
      C    3   -0.33383      1.99898     4.31495    0.01991     6.33383
      C    4   -0.21080      1.99908     4.19726    0.01447     6.21080
      C    5   -0.36186      1.99910     4.34467    0.01809     6.36186
      C    6   -0.27911      1.99910     4.26363    0.01638     6.27911
      C    7   -0.23623      1.99903     4.22156    0.01563     6.23623
      C    8   -1.03075      1.99944     5.02100    0.01031     7.03075
      H    9    0.28786      0.00000     0.71174    0.00040     0.71214
      H   10    0.24508      0.00000     0.75343    0.00149     0.75492
      H   11    0.27400      0.00000     0.72529    0.00071     0.72600
      C   12   -1.03074      1.99944     5.02099    0.01031     7.03074
      H   13    0.27401      0.00000     0.72528    0.00071     0.72599
      H   14    0.24509      0.00000     0.75342    0.00149     0.75491
      H   15    0.28785      0.00000     0.71175    0.00040     0.71215
      H   16    0.19897      0.00000     0.80026    0.00077     0.80103
      H   17    0.22472      0.00000     0.77444    0.00084     0.77528
      H   18    0.21446      0.00000     0.78482    0.00072     0.78554
      H   19    0.21910      0.00000     0.78008    0.00083     0.78090
      H   20    0.20741      0.00000     0.79204    0.00054     0.79259
 =======================================================================
   * Total *    0.00000     25.99038    47.82444    0.18518    74.00000

 Normal termination of Gaussian 16 at Wed Feb 27 04:06:53 2019.
