 Gaussian 16, Revision A.03,

 ---------------------------------
 # opt=CalcFc B3LYP/6-31G* scf=xqc
 ---------------------------------

 -------------------
 Title Card Required
 -------------------
 Symbolic Z-matrix:
 Charge =  0 Multiplicity = 1

 SCF Done:  E(RB3LYP) =  -652.824510658     A.U. after   14 cycles
 SCF Done:  E(RB3LYP) =  -652.830327934     A.U. after   14 cycles
 SCF Done:  E(RB3LYP) =  -652.829636875     A.U. after   13 cycles
 SCF Done:  E(RB3LYP) =  -652.830585002     A.U. after   10 cycles
 SCF Done:  E(RB3LYP) =  -652.830602300     A.U. after   10 cycles
 SCF Done:  E(RB3LYP) =  -652.830611444     A.U. after   10 cycles
 SCF Done:  E(RB3LYP) =  -652.830612500     A.U. after    9 cycles
 SCF Done:  E(RB3LYP) =  -652.830615589     A.U. after   10 cycles
 SCF Done:  E(RB3LYP) =  -652.830626038     A.U. after   11 cycles
 SCF Done:  E(RB3LYP) =  -652.830634470     A.U. after   11 cycles
 SCF Done:  E(RB3LYP) =  -652.830901614     A.U. after   12 cycles
 SCF Done:  E(RB3LYP) =  -652.830222931     A.U. after   13 cycles
 SCF Done:  E(RB3LYP) =  -652.831249150     A.U. after   11 cycles
 SCF Done:  E(RB3LYP) =  -652.831237215     A.U. after   12 cycles
 SCF Done:  E(RB3LYP) =  -652.831279336     A.U. after   11 cycles
 SCF Done:  E(RB3LYP) =  -652.831280259     A.U. after    8 cycles
 SCF Done:  E(RB3LYP) =  -652.831281091     A.U. after    7 cycles
 SCF Done:  E(RB3LYP) =  -652.831281176     A.U. after    7 cycles
 Optimization completed.
    -- Stationary point found.
 Normal termination of Gaussian 16 at Wed Feb 27 04:01:11 2019.

 ----------------------------------------------------------------------
 # freq B3LYP/6-31G* volume NMR pop=NPA density=current Geom=AllCheck G
 uess=Read
 ----------------------------------------------------------------------

 Structure from the checkpoint file:  "direct_arylation_ligand_70_conf12.chk"
 -------------------
 Title Card Required
 -------------------
 Charge =  0 Multiplicity = 1

 SCF Done:  E(RB3LYP) =  -652.831281176     A.U. after    1 cycles

      1  P    Isotropic =   411.2504   Anisotropy =    64.5211

      2  C    Isotropic =    54.2411   Anisotropy =   184.8464

      3  C    Isotropic =    59.8110   Anisotropy =   157.2329

      4  C    Isotropic =    68.8859   Anisotropy =   163.8395

      5  C    Isotropic =    66.9960   Anisotropy =   168.0876

      6  C    Isotropic =    68.7255   Anisotropy =   163.9524

      7  C    Isotropic =    66.6485   Anisotropy =   173.7049

      8  C    Isotropic =   172.1487   Anisotropy =    23.9114

      9  H    Isotropic =    30.8816   Anisotropy =     7.6207

     10  H    Isotropic =    31.1418   Anisotropy =    10.2208

     11  H    Isotropic =    31.1154   Anisotropy =     9.1292

     12  C    Isotropic =   172.1509   Anisotropy =    23.9098

     13  H    Isotropic =    31.1153   Anisotropy =     9.1295

     14  H    Isotropic =    31.1419   Anisotropy =    10.2210

     15  H    Isotropic =    30.8818   Anisotropy =     7.6210

     16  H    Isotropic =    24.6132   Anisotropy =     7.7360

     17  H    Isotropic =    25.0014   Anisotropy =     4.5871

     18  H    Isotropic =    24.9638   Anisotropy =     4.1952

     19  H    Isotropic =    24.9055   Anisotropy =     5.1587

     20  H    Isotropic =    24.6151   Anisotropy =     9.7228

  Exact polarizability: 138.447  -0.906 100.853   0.001  -0.004  66.523
 Approx polarizability: 197.762  -2.424 173.853   0.003  -0.010  96.872

                      1                      2                      3
                      A                      A                      A
 Frequencies --     37.2574               107.2577               169.4733
 Red. masses --      3.3684                 2.8569                 2.8284
 Frc consts  --      0.0028                 0.0194                 0.0479
 IR Inten    --      0.3947                 0.0372                 0.2491

                      4                      5                      6
                      A                      A                      A
 Frequencies --    190.5943               199.7996               239.6287
 Red. masses --      1.0763                 1.1186                 2.2786
 Frc consts  --      0.0230                 0.0263                 0.0771
 IR Inten    --      0.0192                 0.0110                 0.0740

                      7                      8                      9
                      A                      A                      A
 Frequencies --    259.3199               329.4257               399.9666
 Red. masses --      3.5670                 4.2326                 5.9837
 Frc consts  --      0.1413                 0.2706                 0.5640
 IR Inten    --      1.1948                 0.7751                 7.9962

                     10                     11                     12
                      A                      A                      A
 Frequencies --    413.1719               491.0123               632.3884
 Red. masses --      2.9341                 3.4469                 6.3110
 Frc consts  --      0.2951                 0.4896                 1.4870
 IR Inten    --      0.0328                 4.9591                 0.2691

                     13                     14                     15
                      A                      A                      A
 Frequencies --    656.9695               693.6565               703.9396
 Red. masses --      4.7379                 4.7387                 6.2209
 Frc consts  --      1.2048                 1.3434                 1.8162
 IR Inten    --      4.8509                15.1127                 1.9568

                     16                     17                     18
                      A                      A                      A
 Frequencies --    713.3417               760.1092               842.9678
 Red. masses --      2.0833                 1.5705                 1.1924
 Frc consts  --      0.6246                 0.5346                 0.4992
 IR Inten    --     19.4899                29.7503                 1.0714

                     19                     20                     21
                      A                      A                      A
 Frequencies --    866.2856               900.0503               933.9056
 Red. masses --      1.2483                 1.2815                 1.3582
 Frc consts  --      0.5519                 0.6117                 0.6980
 IR Inten    --      0.2371                10.0252                50.4151

                     22                     23                     24
                      A                      A                      A
 Frequencies --    935.3702               976.8841               983.8868
 Red. masses --      1.3572                 1.3583                 1.3898
 Frc consts  --      0.6996                 0.7637                 0.7926
 IR Inten    --      0.0331                 0.0025                29.6303

                     25                     26                     27
                      A                      A                      A
 Frequencies --   1001.7637              1016.7394              1053.0155
 Red. masses --      1.2581                 6.2398                 3.1318
 Frc consts  --      0.7438                 3.8005                 2.0461
 IR Inten    --      0.0437                 1.2002                 0.2250

                     28                     29                     30
                      A                      A                      A
 Frequencies --   1108.2635              1117.9654              1193.7250
 Red. masses --      1.7047                 2.5349                 1.1017
 Frc consts  --      1.2336                 1.8667                 0.9250
 IR Inten    --      0.8965                16.6974                 0.0169

                     31                     32                     33
                      A                      A                      A
 Frequencies --   1217.8372              1328.1585              1348.7295
 Red. masses --      1.1436                 3.1390                 1.1980
 Frc consts  --      0.9993                 3.2625                 1.2840
 IR Inten    --      1.2768                 3.2350                 1.7617

                     34                     35                     36
                      A                      A                      A
 Frequencies --   1358.7975              1369.9966              1481.2274
 Red. masses --      1.5053                 1.3416                 2.0759
 Frc consts  --      1.6375                 1.4836                 2.6834
 IR Inten    --      0.1153                 4.1359                10.9630

                     37                     38                     39
                      A                      A                      A
 Frequencies --   1493.9839              1495.5651              1504.0703
 Red. masses --      1.0529                 1.0554                 1.0558
 Frc consts  --      1.3846                 1.3908                 1.4073
 IR Inten    --      0.3309                 9.3161                 6.0089

                     40                     41                     42
                      A                      A                      A
 Frequencies --   1507.8275              1533.0642              1632.8216
 Red. masses --      1.0591                 2.0029                 5.1284
 Frc consts  --      1.4186                 2.7735                 8.0558
 IR Inten    --      8.3404                 4.2444                 0.8482

                     43                     44                     45
                      A                      A                      A
 Frequencies --   1648.1572              3044.1882              3044.2567
 Red. masses --      5.3391                 1.0335                 1.0336
 Frc consts  --      8.5450                 5.6427                 5.6437
 IR Inten    --      0.1927                21.4184                13.7373

                     46                     47                     48
                      A                      A                      A
 Frequencies --   3120.1309              3121.2200              3135.7400
 Red. masses --      1.1038                 1.1027                 1.1023
 Frc consts  --      6.3310                 6.3290                 6.3862
 IR Inten    --      0.3577                33.9436                12.2333

                     49                     50                     51
                      A                      A                      A
 Frequencies --   3135.7939              3173.6269              3180.3748
 Red. masses --      1.1020                 1.0848                 1.0865
 Frc consts  --      6.3844                 6.4372                 6.4751
 IR Inten    --      8.1123                 3.5287                 0.4403

                     52                     53                     54
                      A                      A                      A
 Frequencies --   3188.2855              3196.1221              3206.6991
 Red. masses --      1.0906                 1.0940                 1.0979
 Frc consts  --      6.5317                 6.5844                 6.6517
 IR Inten    --      8.0529                41.6128                27.1411

 - Thermochemistry -
 -------------------
 Temperature   298.150 Kelvin.  Pressure   1.00000 Atm.
 Atom     1 has atomic number 15 and mass  30.97376

 Molecular mass:   138.05984 amu.
 Principal axes and moments of inertia in atomic units:
                           1         2         3
     Eigenvalues --   632.868772105.116622253.33368
           X            0.99977  -0.02149   0.00001
           Y            0.02149   0.99977   0.00003
           Z           -0.00001  -0.00003   1.00000
 This molecule is an asymmetric top.
 Rotational symmetry number  1.
 Warning -- assumption of classical behavior for rotation
           may cause significant error
 Rotational temperatures (Kelvin)      0.13686     0.04114     0.03844
 Rotational constants (GHZ):           2.85168     0.85731     0.80092
 Zero-point vibrational energy     438998.5 (Joules/Mol)
                                  104.92315 (Kcal/Mol)
 Warning -- explicit consideration of  11 degrees of freedom as
           vibrations may cause significant error
 Vibrational temperatures:     53.61   154.32   243.83   274.22   287.47
          (Kelvin)            344.77   373.10   473.97   575.46   594.46
                              706.46   909.87   945.23   998.02  1012.81
                             1026.34  1093.63  1212.84  1246.39  1294.97
                             1343.68  1345.79  1405.52  1415.59  1441.31
                             1462.86  1515.05  1594.54  1608.50  1717.50
                             1752.20  1910.92  1940.52  1955.01  1971.12
                             2131.16  2149.51  2151.78  2164.02  2169.43
                             2205.74  2349.27  2371.33  4379.91  4380.01
                             4489.17  4490.74  4511.63  4511.71  4566.14
                             4575.85  4587.23  4598.51  4613.72

 Zero-point correction=                           0.167206 (Hartree/Particle)
 Thermal correction to Energy=                    0.176871
 Thermal correction to Enthalpy=                  0.177816
 Thermal correction to Gibbs Free Energy=         0.131999
 Sum of electronic and zero-point Energies=           -652.664075
 Sum of electronic and thermal Energies=              -652.654410
 Sum of electronic and thermal Enthalpies=            -652.653466
 Sum of electronic and thermal Free Energies=         -652.699282

                     E (Thermal)             CV                S
                      KCal/Mol        Cal/Mol-Kelvin    Cal/Mol-Kelvin
 Total                  110.988             36.222             96.428
 Electronic               0.000              0.000              0.000
 Translational            0.889              2.981             40.679
 Rotational               0.889              2.981             29.486
 Vibrational            109.211             30.260             26.263
 Vibration     1          0.594              1.982              5.400
 Vibration     2          0.606              1.943              3.318
 Vibration     3          0.625              1.880              2.441
 Vibration     4          0.634              1.853              2.222
 Vibration     5          0.638              1.840              2.135
 Vibration     6          0.657              1.780              1.806
 Vibration     7          0.668              1.747              1.666
 Vibration     8          0.712              1.617              1.263
 Vibration     9          0.766              1.470              0.963
 Vibration    10          0.777              1.442              0.915
 Vibration    11          0.847              1.270              0.681

 Optimization completed.
    -- Stationary point found.
 Normal termination of Gaussian 16 at Wed Feb 27 04:03:32 2019.
 Gaussian 16:  ES64L-G16RevA.03 25-Dec-2016

 ----------------------------------------------------------------------
 # TD(NStates=10, Root=1) B3LYP/6-31G* volume pop=NPA density=current G
 eom=AllCheck Guess=Read
 ----------------------------------------------------------------------

 Structure from the checkpoint file:  "direct_arylation_ligand_70_conf13.chk"
 -------------------
 Title Card Required
 -------------------
 Charge =  0 Multiplicity = 1

                         Standard orientation:
 ---------------------------------------------------------------------
 Center     Atomic      Atomic             Coordinates (Angstroms)
 Number     Number       Type             X           Y           Z
 ---------------------------------------------------------------------
      1         15           0       -1.642678   -0.658486    0.000169
      2          6           0        0.163152   -0.223437   -0.000053
      3          6           0        1.089109   -1.277003    0.000159
      4          6           0        2.463774   -1.027144    0.000161
      5          6           0        2.933452    0.286009   -0.000029
      6          6           0        2.024031    1.347171   -0.000208
      7          6           0        0.652897    1.092702   -0.000216
      8          6           0       -2.262265    0.382485    1.423500
      9          1           0       -1.982241    1.439352    1.345223
     10          1           0       -3.355205    0.313596    1.462459
     11          1           0       -1.867254   -0.015231    2.363716
     12          6           0       -2.262375    0.381761   -1.423609
     13          1           0       -1.867430   -0.016386   -2.363668
     14          1           0       -3.355317    0.312827   -1.462453
     15          1           0       -1.982439    1.438693   -1.345904
     16          1           0        0.726539   -2.302134    0.000290
     17          1           0        3.165078   -1.857668    0.000297
     18          1           0        4.002147    0.484343   -0.000040
     19          1           0        2.384668    2.372859   -0.000343
     20          1           0       -0.039023    1.931774   -0.000353
 ---------------------------------------------------------------------

 SCF Done:  E(RB3LYP) =  -652.831281176     A.U. after    1 cycles

 Excitation energies and oscillator strengths:

 Excited State   1:      Singlet-A      4.8097 eV  257.78 nm  f=0.0060  <S**2>=0.000
      37 -> 38         0.70326
 This state for optimization and/or second-order correction.
 Total Energy, E(TD-HF/TD-DFT) =  -652.654529369
 Copying the excited state density for this state as the 1-particle RhoCI density.

 Excited State   2:      Singlet-A      5.2449 eV  236.39 nm  f=0.0006  <S**2>=0.000
      37 -> 39         0.70449

 Excited State   3:      Singlet-A      5.3570 eV  231.44 nm  f=0.0039  <S**2>=0.000
      35 -> 38         0.53248
      36 -> 39         0.45903

 Excited State   4:      Singlet-A      5.9761 eV  207.47 nm  f=0.0831  <S**2>=0.000
      35 -> 39        -0.33518
      36 -> 38         0.61465

 Excited State   5:      Singlet-A      6.9223 eV  179.11 nm  f=0.4037  <S**2>=0.000
      35 -> 38        -0.18257
      35 -> 39         0.48739
      36 -> 38         0.25867
      36 -> 39         0.21725
      37 -> 40         0.30212

 Excited State   6:      Singlet-A      6.9471 eV  178.47 nm  f=0.5627  <S**2>=0.000
      33 -> 38         0.11008
      35 -> 38        -0.37834
      35 -> 39        -0.30748
      35 -> 41        -0.12160
      36 -> 38        -0.16553
      36 -> 39         0.42640
      37 -> 40         0.11409

 Excited State   7:      Singlet-A      6.9870 eV  177.45 nm  f=0.0001  <S**2>=0.000
      34 -> 38         0.66333
      37 -> 41         0.21409

 Excited State   8:      Singlet-A      7.0323 eV  176.31 nm  f=0.2018  <S**2>=0.000
      33 -> 38         0.16294
      35 -> 38         0.15979
      35 -> 39        -0.15727
      36 -> 39        -0.19980
      37 -> 40         0.59568

 Excited State   9:      Singlet-A      7.2889 eV  170.10 nm  f=0.0006  <S**2>=0.000
      34 -> 39         0.68997

 Excited State  10:      Singlet-A      7.4217 eV  167.06 nm  f=0.0988  <S**2>=0.000
      34 -> 38        -0.14236
      36 -> 40        -0.33138
      37 -> 41         0.59385

 The electronic state is 1-A.
 Alpha  occ. eigenvalues --  -77.07448 -10.19230 -10.19201 -10.19100 -10.19086
 Alpha  occ. eigenvalues --  -10.18995 -10.18941 -10.17968 -10.17968  -6.54186
 Alpha  occ. eigenvalues --   -4.70456  -4.70431  -4.69928  -0.85041  -0.75960
 Alpha  occ. eigenvalues --   -0.74312  -0.72141  -0.68470  -0.60707  -0.60013
 Alpha  occ. eigenvalues --   -0.54324  -0.50133  -0.44872  -0.44701  -0.42620
 Alpha  occ. eigenvalues --   -0.42101  -0.41250  -0.40243  -0.39655  -0.38009
 Alpha  occ. eigenvalues --   -0.36405  -0.34292  -0.32752  -0.31317  -0.24981
 Alpha  occ. eigenvalues --   -0.24737  -0.22408
 Alpha virt. eigenvalues --   -0.01341  -0.00068   0.06228   0.07291   0.08586
 Alpha virt. eigenvalues --    0.11761   0.12422   0.13852   0.14528   0.15351
 Alpha virt. eigenvalues --    0.16169   0.16778   0.17569   0.18345   0.19296

 Mulliken charges:
               1
     1  P    0.600610
     2  C   -0.146471
     3  C   -0.172426
     4  C   -0.138647
     5  C   -0.200553
     6  C   -0.103549
     7  C   -0.206507
     8  C   -0.634381
     9  H    0.228736
    10  H    0.169407
    11  H    0.209939
    12  C   -0.634381
    13  H    0.209938
    14  H    0.169399
    15  H    0.228734
    16  H    0.083335
    17  H    0.089784
    18  H    0.082061
    19  H    0.099698
    20  H    0.065272
 Sum of Mulliken charges =  -0.00000

 Dipole moment (field-independent basis, Debye):
    X=             -7.6423    Y=             -0.3875    Z=              0.0004  Tot=              7.6521
 Quadrupole moment (field-independent basis, Debye-Ang):
   XX=            -58.4646   YY=            -58.3395   ZZ=            -62.2195
   XY=              0.6548   XZ=             -0.0002   YZ=             -0.0006

 Summary of Natural Population Analysis:

                                       Natural Population
                Natural  -----------------------------------------------
    Atom  No    Charge         Core      Valence    Rydberg      Total
 -----------------------------------------------------------------------
      P    1    1.38368      9.99738     3.57057    0.04837    13.61632
      C    2   -0.57886      1.99882     4.55723    0.02281     6.57886
      C    3   -0.23625      1.99903     4.22158    0.01564     6.23625
      C    4   -0.27908      1.99910     4.26360    0.01638     6.27908
      C    5   -0.36188      1.99910     4.34469    0.01809     6.36188
      C    6   -0.21082      1.99908     4.19727    0.01447     6.21082
      C    7   -0.33379      1.99898     4.31491    0.01990     6.33379
      C    8   -1.03078      1.99944     5.02103    0.01030     7.03078
      H    9    0.28787      0.00000     0.71173    0.00040     0.71213
      H   10    0.24509      0.00000     0.75342    0.00149     0.75491
      H   11    0.27400      0.00000     0.72528    0.00071     0.72600
      C   12   -1.03080      1.99944     5.02105    0.01030     7.03080
      H   13    0.27400      0.00000     0.72528    0.00071     0.72600
      H   14    0.24509      0.00000     0.75342    0.00149     0.75491
      H   15    0.28787      0.00000     0.71173    0.00040     0.71213
      H   16    0.20742      0.00000     0.79204    0.00054     0.79258
      H   17    0.21910      0.00000     0.78007    0.00083     0.78090
      H   18    0.21446      0.00000     0.78482    0.00072     0.78554
      H   19    0.22472      0.00000     0.77445    0.00084     0.77528
      H   20    0.19897      0.00000     0.80026    0.00077     0.80103
 =======================================================================
   * Total *   -0.00000     25.99038    47.82444    0.18518    74.00000

 Normal termination of Gaussian 16 at Wed Feb 27 04:06:47 2019.
