 Gaussian 16, Revision A.03,

 ---------------------------------
 # opt=CalcFc B3LYP/6-31G* scf=xqc
 ---------------------------------

 -------------------
 Title Card Required
 -------------------
 Symbolic Z-matrix:
 Charge =  0 Multiplicity = 1

 SCF Done:  E(RB3LYP) =  -652.827263310     A.U. after   13 cycles
 SCF Done:  E(RB3LYP) =  -652.830375699     A.U. after   14 cycles
 SCF Done:  E(RB3LYP) =  -652.828505388     A.U. after   13 cycles
 SCF Done:  E(RB3LYP) =  -652.830511501     A.U. after   10 cycles
 SCF Done:  E(RB3LYP) =  -652.830543251     A.U. after   11 cycles
 SCF Done:  E(RB3LYP) =  -652.830574499     A.U. after   11 cycles
 SCF Done:  E(RB3LYP) =  -652.830591106     A.U. after   11 cycles
 SCF Done:  E(RB3LYP) =  -652.830622121     A.U. after   12 cycles
 SCF Done:  E(RB3LYP) =  -652.830664135     A.U. after   12 cycles
 SCF Done:  E(RB3LYP) =  -652.830751787     A.U. after   14 cycles
 SCF Done:  E(RB3LYP) =  -652.830993019     A.U. after   11 cycles
 SCF Done:  E(RB3LYP) =  -652.831190178     A.U. after   11 cycles
 SCF Done:  E(RB3LYP) =  -652.831270925     A.U. after   11 cycles
 SCF Done:  E(RB3LYP) =  -652.831280856     A.U. after   10 cycles
 SCF Done:  E(RB3LYP) =  -652.831281164     A.U. after    8 cycles
 SCF Done:  E(RB3LYP) =  -652.831281178     A.U. after    7 cycles
 Optimization completed.
    -- Stationary point found.
 Normal termination of Gaussian 16 at Wed Feb 27 04:00:38 2019.

 ----------------------------------------------------------------------
 # freq B3LYP/6-31G* volume NMR pop=NPA density=current Geom=AllCheck G
 uess=Read
 ----------------------------------------------------------------------

 Structure from the checkpoint file:  "direct_arylation_ligand_70_conf52.chk"
 -------------------
 Title Card Required
 -------------------
 Charge =  0 Multiplicity = 1

 SCF Done:  E(RB3LYP) =  -652.831281178     A.U. after    1 cycles

      1  P    Isotropic =   411.2338   Anisotropy =    64.5279

      2  C    Isotropic =    54.2401   Anisotropy =   184.8417

      3  C    Isotropic =    66.6485   Anisotropy =   173.7036

      4  C    Isotropic =    68.7258   Anisotropy =   163.9517

      5  C    Isotropic =    66.9961   Anisotropy =   168.0884

      6  C    Isotropic =    68.8860   Anisotropy =   163.8389

      7  C    Isotropic =    59.8102   Anisotropy =   157.2346

      8  C    Isotropic =   172.1540   Anisotropy =    23.9073

      9  H    Isotropic =    30.8812   Anisotropy =     7.6217

     10  H    Isotropic =    31.1419   Anisotropy =    10.2201

     11  H    Isotropic =    31.1152   Anisotropy =     9.1301

     12  C    Isotropic =   172.1476   Anisotropy =    23.9125

     13  H    Isotropic =    31.1153   Anisotropy =     9.1285

     14  H    Isotropic =    31.1419   Anisotropy =    10.2212

     15  H    Isotropic =    30.8819   Anisotropy =     7.6207

     16  H    Isotropic =    24.6152   Anisotropy =     9.7224

     17  H    Isotropic =    24.9055   Anisotropy =     5.1587

     18  H    Isotropic =    24.9638   Anisotropy =     4.1952

     19  H    Isotropic =    25.0014   Anisotropy =     4.5871

     20  H    Isotropic =    24.6133   Anisotropy =     7.7361

  Exact polarizability: 138.449   0.906 100.852  -0.001   0.015  66.523
 Approx polarizability: 197.764   2.423 173.851  -0.002   0.037  96.873

                      1                      2                      3
                      A                      A                      A
 Frequencies --     37.2624               107.2626               169.4546
 Red. masses --      3.3684                 2.8571                 2.8280
 Frc consts  --      0.0028                 0.0194                 0.0478
 IR Inten    --      0.3946                 0.0373                 0.2492

                      4                      5                      6
                      A                      A                      A
 Frequencies --    190.5921               199.8044               239.6260
 Red. masses --      1.0762                 1.1187                 2.2785
 Frc consts  --      0.0230                 0.0263                 0.0771
 IR Inten    --      0.0192                 0.0110                 0.0740

                      7                      8                      9
                      A                      A                      A
 Frequencies --    259.3076               329.4141               399.9559
 Red. masses --      3.5672                 4.2328                 5.9834
 Frc consts  --      0.1413                 0.2706                 0.5639
 IR Inten    --      1.1944                 0.7752                 7.9975

                     10                     11                     12
                      A                      A                      A
 Frequencies --    413.1671               491.0099               632.3867
 Red. masses --      2.9340                 3.4469                 6.3109
 Frc consts  --      0.2951                 0.4896                 1.4870
 IR Inten    --      0.0328                 4.9590                 0.2694

                     13                     14                     15
                      A                      A                      A
 Frequencies --    656.9513               693.6379               703.9266
 Red. masses --      4.7380                 4.7388                 6.2210
 Frc consts  --      1.2048                 1.3433                 1.8162
 IR Inten    --      4.8512                15.1126                 1.9568

                     16                     17                     18
                      A                      A                      A
 Frequencies --    713.3357               760.1069               842.9622
 Red. masses --      2.0831                 1.5706                 1.1924
 Frc consts  --      0.6245                 0.5347                 0.4992
 IR Inten    --     19.4946                29.7470                 1.0718

                     19                     20                     21
                      A                      A                      A
 Frequencies --    866.2740               900.0463               933.9024
 Red. masses --      1.2483                 1.2815                 1.3582
 Frc consts  --      0.5519                 0.6117                 0.6979
 IR Inten    --      0.2372                10.0259                50.4135

                     22                     23                     24
                      A                      A                      A
 Frequencies --    935.3605               976.8773               983.8830
 Red. masses --      1.3572                 1.3583                 1.3897
 Frc consts  --      0.6996                 0.7637                 0.7926
 IR Inten    --      0.0333                 0.0024                29.6317

                     25                     26                     27
                      A                      A                      A
 Frequencies --   1001.7624              1016.7392              1053.0132
 Red. masses --      1.2581                 6.2398                 3.1323
 Frc consts  --      0.7438                 3.8005                 2.0463
 IR Inten    --      0.0436                 1.2008                 0.2247

                     28                     29                     30
                      A                      A                      A
 Frequencies --   1108.2572              1117.9522              1193.7238
 Red. masses --      1.7050                 2.5339                 1.1017
 Frc consts  --      1.2338                 1.8659                 0.9250
 IR Inten    --      0.8960                16.6953                 0.0169

                     31                     32                     33
                      A                      A                      A
 Frequencies --   1217.8379              1328.1496              1348.7217
 Red. masses --      1.1436                 3.1392                 1.1980
 Frc consts  --      0.9993                 3.2626                 1.2840
 IR Inten    --      1.2768                 3.2364                 1.7609

                     34                     35                     36
                      A                      A                      A
 Frequencies --   1358.7924              1369.9883              1481.2250
 Red. masses --      1.5052                 1.3416                 2.0759
 Frc consts  --      1.6374                 1.4836                 2.6834
 IR Inten    --      0.1153                 4.1348                10.9624

                     37                     38                     39
                      A                      A                      A
 Frequencies --   1493.9878              1495.5595              1504.0655
 Red. masses --      1.0529                 1.0554                 1.0558
 Frc consts  --      1.3846                 1.3908                 1.4073
 IR Inten    --      0.3271                 9.3194                 6.0058

                     40                     41                     42
                      A                      A                      A
 Frequencies --   1507.8311              1533.0604              1632.8150
 Red. masses --      1.0591                 2.0029                 5.1282
 Frc consts  --      1.4186                 2.7735                 8.0555
 IR Inten    --      8.3437                 4.2438                 0.8480

                     43                     44                     45
                      A                      A                      A
 Frequencies --   1648.1581              3044.1851              3044.2560
 Red. masses --      5.3392                 1.0335                 1.0336
 Frc consts  --      8.5452                 5.6428                 5.6437
 IR Inten    --      0.1928                21.3000                13.8561

                     46                     47                     48
                      A                      A                      A
 Frequencies --   3120.1363              3121.2256              3135.7401
 Red. masses --      1.1038                 1.1026                 1.1023
 Frc consts  --      6.3310                 6.3290                 6.3862
 IR Inten    --      0.3621                33.9326                12.2484

                     49                     50                     51
                      A                      A                      A
 Frequencies --   3135.7933              3173.6592              3180.3889
 Red. masses --      1.1020                 1.0848                 1.0865
 Frc consts  --      6.3844                 6.4373                 6.4752
 IR Inten    --      8.0988                 3.5060                 0.4347

                     52                     53                     54
                      A                      A                      A
 Frequencies --   3188.3015              3196.1275              3206.7013
 Red. masses --      1.0906                 1.0940                 1.0979
 Frc consts  --      6.5318                 6.5845                 6.6517
 IR Inten    --      8.0557                41.6479                27.1300

 - Thermochemistry -
 -------------------
 Temperature   298.150 Kelvin.  Pressure   1.00000 Atm.
 Atom     1 has atomic number 15 and mass  30.97376

 Molecular mass:   138.05984 amu.
 Principal axes and moments of inertia in atomic units:
                           1         2         3
     Eigenvalues --   632.865252105.201472253.40801
           X            0.99977   0.02149   0.00001
           Y           -0.02149   0.99977  -0.00009
           Z           -0.00002   0.00009   1.00000
 This molecule is an asymmetric top.
 Rotational symmetry number  1.
 Warning -- assumption of classical behavior for rotation
           may cause significant error
 Rotational temperatures (Kelvin)      0.13686     0.04114     0.03844
 Rotational constants (GHZ):           2.85170     0.85728     0.80089
 Zero-point vibrational energy     438997.6 (Joules/Mol)
                                  104.92294 (Kcal/Mol)
 Warning -- explicit consideration of  11 degrees of freedom as
           vibrations may cause significant error
 Vibrational temperatures:     53.61   154.33   243.81   274.22   287.47
          (Kelvin)            344.77   373.09   473.95   575.45   594.46
                              706.45   909.86   945.21   997.99  1012.79
                             1026.33  1093.62  1212.83  1246.38  1294.97
                             1343.68  1345.78  1405.51  1415.59  1441.31
                             1462.86  1515.05  1594.53  1608.48  1717.50
                             1752.20  1910.91  1940.51  1955.00  1971.11
                             2131.15  2149.52  2151.78  2164.01  2169.43
                             2205.73  2349.26  2371.33  4379.90  4380.01
                             4489.18  4490.75  4511.63  4511.71  4566.19
                             4575.87  4587.25  4598.51  4613.73

 Zero-point correction=                           0.167205 (Hartree/Particle)
 Thermal correction to Energy=                    0.176871
 Thermal correction to Enthalpy=                  0.177815
 Thermal correction to Gibbs Free Energy=         0.131999
 Sum of electronic and zero-point Energies=           -652.664076
 Sum of electronic and thermal Energies=              -652.654410
 Sum of electronic and thermal Enthalpies=            -652.653466
 Sum of electronic and thermal Free Energies=         -652.699282

                     E (Thermal)             CV                S
                      KCal/Mol        Cal/Mol-Kelvin    Cal/Mol-Kelvin
 Total                  110.988             36.222             96.428
 Electronic               0.000              0.000              0.000
 Translational            0.889              2.981             40.679
 Rotational               0.889              2.981             29.486
 Vibrational            109.211             30.260             26.263
 Vibration     1          0.594              1.982              5.400
 Vibration     2          0.606              1.943              3.318
 Vibration     3          0.625              1.880              2.442
 Vibration     4          0.634              1.853              2.222
 Vibration     5          0.638              1.840              2.135
 Vibration     6          0.657              1.780              1.806
 Vibration     7          0.668              1.747              1.666
 Vibration     8          0.712              1.617              1.263
 Vibration     9          0.766              1.470              0.963
 Vibration    10          0.777              1.442              0.915
 Vibration    11          0.847              1.270              0.681

 Optimization completed.
    -- Stationary point found.
 Normal termination of Gaussian 16 at Wed Feb 27 04:02:57 2019.
 Gaussian 16:  ES64L-G16RevA.03 25-Dec-2016

 ----------------------------------------------------------------------
 # TD(NStates=10, Root=1) B3LYP/6-31G* volume pop=NPA density=current G
 eom=AllCheck Guess=Read
 ----------------------------------------------------------------------

 Structure from the checkpoint file:  "direct_arylation_ligand_70_conf53.chk"
 -------------------
 Title Card Required
 -------------------
 Charge =  0 Multiplicity = 1

                         Standard orientation:
 ---------------------------------------------------------------------
 Center     Atomic      Atomic             Coordinates (Angstroms)
 Number     Number       Type             X           Y           Z
 ---------------------------------------------------------------------
      1         15           0        1.642685   -0.658464   -0.000584
      2          6           0       -0.163171   -0.223402   -0.000229
      3          6           0       -0.652954    1.092719    0.000510
      4          6           0       -2.024096    1.347154    0.000711
      5          6           0       -2.933506    0.285985    0.000201
      6          6           0       -2.463797   -1.027159   -0.000513
      7          6           0       -1.089130   -1.276980   -0.000743
      8          6           0        2.262518    0.383427   -1.423140
      9          1           0        1.982477    1.440251   -1.344307
     10          1           0        3.355467    0.314578   -1.461865
     11          1           0        1.867768   -0.013718   -2.363705
     12          6           0        2.262282    0.380785    1.423991
     13          1           0        1.867196   -0.017987    2.363727
     14          1           0        3.355212    0.311743    1.462915
     15          1           0        1.982376    1.437774    1.346951
     16          1           0        0.038928    1.931812    0.000921
     17          1           0       -2.384743    2.372839    0.001264
     18          1           0       -4.002202    0.484304    0.000358
     19          1           0       -3.165080   -1.857700   -0.000909
     20          1           0       -0.726552   -2.302108   -0.001321
 ---------------------------------------------------------------------

 SCF Done:  E(RB3LYP) =  -652.831281178     A.U. after    1 cycles

 Excitation energies and oscillator strengths:

 Excited State   1:      Singlet-A      4.8096 eV  257.79 nm  f=0.0060  <S**2>=0.000
      37 -> 38         0.70326
 This state for optimization and/or second-order correction.
 Total Energy, E(TD-HF/TD-DFT) =  -652.654532608
 Copying the excited state density for this state as the 1-particle RhoCI density.

 Excited State   2:      Singlet-A      5.2448 eV  236.39 nm  f=0.0006  <S**2>=0.000
      37 -> 39         0.70449

 Excited State   3:      Singlet-A      5.3570 eV  231.45 nm  f=0.0039  <S**2>=0.000
      35 -> 38         0.53249
      36 -> 39         0.45901

 Excited State   4:      Singlet-A      5.9761 eV  207.47 nm  f=0.0831  <S**2>=0.000
      35 -> 39        -0.33517
      36 -> 38         0.61464

 Excited State   5:      Singlet-A      6.9223 eV  179.11 nm  f=0.4036  <S**2>=0.000
      35 -> 38        -0.18272
      35 -> 39         0.48719
      36 -> 38         0.25856
      36 -> 39         0.21746
      37 -> 40        -0.30229

 Excited State   6:      Singlet-A      6.9471 eV  178.47 nm  f=0.5628  <S**2>=0.000
      33 -> 38         0.11010
      35 -> 38        -0.37821
      35 -> 39        -0.30776
      35 -> 41        -0.12158
      36 -> 38        -0.16571
      36 -> 39         0.42625
      37 -> 40        -0.11404

 Excited State   7:      Singlet-A      6.9870 eV  177.45 nm  f=0.0001  <S**2>=0.000
      34 -> 38         0.66332
      37 -> 41        -0.21411

 Excited State   8:      Singlet-A      7.0323 eV  176.31 nm  f=0.2018  <S**2>=0.000
      33 -> 38        -0.16293
      35 -> 38        -0.15987
      35 -> 39         0.15731
      36 -> 39         0.19992
      37 -> 40         0.59561

 Excited State   9:      Singlet-A      7.2890 eV  170.10 nm  f=0.0006  <S**2>=0.000
      34 -> 39         0.68997

 Excited State  10:      Singlet-A      7.4217 eV  167.06 nm  f=0.0989  <S**2>=0.000
      34 -> 38         0.14245
      36 -> 40         0.33113
      37 -> 41         0.59397

 The electronic state is 1-A.
 Alpha  occ. eigenvalues --  -77.07448 -10.19230 -10.19201 -10.19100 -10.19086
 Alpha  occ. eigenvalues --  -10.18995 -10.18941 -10.17968 -10.17968  -6.54186
 Alpha  occ. eigenvalues --   -4.70456  -4.70431  -4.69929  -0.85041  -0.75959
 Alpha  occ. eigenvalues --   -0.74311  -0.72141  -0.68470  -0.60707  -0.60013
 Alpha  occ. eigenvalues --   -0.54324  -0.50133  -0.44872  -0.44700  -0.42620
 Alpha  occ. eigenvalues --   -0.42101  -0.41250  -0.40243  -0.39655  -0.38009
 Alpha  occ. eigenvalues --   -0.36405  -0.34292  -0.32752  -0.31317  -0.24981
 Alpha  occ. eigenvalues --   -0.24737  -0.22408
 Alpha virt. eigenvalues --   -0.01341  -0.00068   0.06228   0.07291   0.08586
 Alpha virt. eigenvalues --    0.11761   0.12422   0.13852   0.14528   0.15351
 Alpha virt. eigenvalues --    0.16168   0.16778   0.17569   0.18345   0.19296

 Mulliken charges:
               1
     1  P    0.600612
     2  C   -0.146471
     3  C   -0.206508
     4  C   -0.103548
     5  C   -0.200554
     6  C   -0.138640
     7  C   -0.172429
     8  C   -0.634393
     9  H    0.228739
    10  H    0.169414
    11  H    0.209936
    12  C   -0.634371
    13  H    0.209939
    14  H    0.169396
    15  H    0.228731
    16  H    0.065274
    17  H    0.099696
    18  H    0.082062
    19  H    0.089785
    20  H    0.083332
 Sum of Mulliken charges =  -0.00000

 Dipole moment (field-independent basis, Debye):
    X=              7.6424    Y=             -0.3875    Z=             -0.0003  Tot=              7.6523
 Quadrupole moment (field-independent basis, Debye-Ang):
   XX=            -58.4641   YY=            -58.3397   ZZ=            -62.2194
   XY=             -0.6546   XZ=             -0.0015   YZ=              0.0017

 Summary of Natural Population Analysis:

                                       Natural Population
                Natural  -----------------------------------------------
    Atom  No    Charge         Core      Valence    Rydberg      Total
 -----------------------------------------------------------------------
      P    1    1.38366      9.99738     3.57059    0.04837    13.61634
      C    2   -0.57885      1.99882     4.55722    0.02281     6.57885
      C    3   -0.33379      1.99898     4.31490    0.01990     6.33379
      C    4   -0.21082      1.99908     4.19728    0.01447     6.21082
      C    5   -0.36188      1.99910     4.34469    0.01809     6.36188
      C    6   -0.27907      1.99910     4.26360    0.01638     6.27907
      C    7   -0.23625      1.99903     4.22159    0.01564     6.23625
      C    8   -1.03078      1.99944     5.02103    0.01030     7.03078
      H    9    0.28787      0.00000     0.71173    0.00040     0.71213
      H   10    0.24509      0.00000     0.75342    0.00149     0.75491
      H   11    0.27400      0.00000     0.72529    0.00071     0.72600
      C   12   -1.03079      1.99944     5.02104    0.01031     7.03079
      H   13    0.27400      0.00000     0.72528    0.00071     0.72600
      H   14    0.24508      0.00000     0.75343    0.00149     0.75492
      H   15    0.28787      0.00000     0.71173    0.00040     0.71213
      H   16    0.19897      0.00000     0.80026    0.00077     0.80103
      H   17    0.22472      0.00000     0.77445    0.00084     0.77528
      H   18    0.21446      0.00000     0.78482    0.00072     0.78554
      H   19    0.21910      0.00000     0.78007    0.00083     0.78090
      H   20    0.20742      0.00000     0.79204    0.00054     0.79258
 =======================================================================
   * Total *   -0.00000     25.99038    47.82444    0.18518    74.00000

 Normal termination of Gaussian 16 at Wed Feb 27 04:06:10 2019.
