 Gaussian 16, Revision A.03,

 ---------------------------------
 # opt=CalcFc B3LYP/6-31G* scf=xqc
 ---------------------------------

 -------------------
 Title Card Required
 -------------------
 Symbolic Z-matrix:
 Charge =  0 Multiplicity = 1

 SCF Done:  E(RB3LYP) =  -888.662191375     A.U. after   14 cycles
 SCF Done:  E(RB3LYP) =  -888.666775183     A.U. after   14 cycles
 SCF Done:  E(RB3LYP) =  -888.679780228     A.U. after   14 cycles
 SCF Done:  E(RB3LYP) =  -888.672583254     A.U. after   14 cycles
 SCF Done:  E(RB3LYP) =  -888.682032432     A.U. after   12 cycles
 SCF Done:  E(RB3LYP) =  -888.682903886     A.U. after   14 cycles
 SCF Done:  E(RB3LYP) =  -888.685986228     A.U. after   12 cycles
 SCF Done:  E(RB3LYP) =  -888.686639227     A.U. after   11 cycles
 SCF Done:  E(RB3LYP) =  -888.685862869     A.U. after   11 cycles
 SCF Done:  E(RB3LYP) =  -888.687354042     A.U. after   12 cycles
 SCF Done:  E(RB3LYP) =  -888.691177353     A.U. after    7 cycles
 SCF Done:  E(RB3LYP) =  -888.691177778     A.U. after    7 cycles
 SCF Done:  E(RB3LYP) =  -888.691178107     A.U. after    7 cycles
 SCF Done:  E(RB3LYP) =  -888.691178570     A.U. after    7 cycles
 SCF Done:  E(RB3LYP) =  -888.691179046     A.U. after    7 cycles
 SCF Done:  E(RB3LYP) =  -888.691179213     A.U. after    7 cycles
 SCF Done:  E(RB3LYP) =  -888.691179231     A.U. after    7 cycles
 SCF Done:  E(RB3LYP) =  -888.691179204     A.U. after    7 cycles
 Optimization completed.
    -- Stationary point found.
 Normal termination of Gaussian 16 at Wed Feb 27 01:48:42 2019.

 ----------------------------------------------------------------------
 # freq B3LYP/6-31G* volume NMR pop=NPA density=current Geom=AllCheck G
 uess=Read
 ----------------------------------------------------------------------

 Structure from the checkpoint file:  "direct_arylation_ligand_64_conf22.chk"
 -------------------
 Title Card Required
 -------------------
 Charge =  0 Multiplicity = 1

 SCF Done:  E(RB3LYP) =  -888.691179204     A.U. after    1 cycles

      1  P    Isotropic =   318.9326   Anisotropy =    62.2206

      2  C    Isotropic =    55.7810   Anisotropy =   180.3767

      3  C    Isotropic =    56.6398   Anisotropy =   159.0133

      4  C    Isotropic =    68.8101   Anisotropy =   163.7805

      5  C    Isotropic =    67.3902   Anisotropy =   168.8549

      6  C    Isotropic =    69.6403   Anisotropy =   162.3557

      7  C    Isotropic =    61.9121   Anisotropy =   165.2479

      8  C    Isotropic =   151.5966   Anisotropy =    19.4089

      9  C    Isotropic =   161.5485   Anisotropy =    29.3586

     10  C    Isotropic =   156.7533   Anisotropy =    41.1029

     11  C    Isotropic =   159.0329   Anisotropy =    33.5982

     12  C    Isotropic =   151.1408   Anisotropy =    17.6338

     13  C    Isotropic =   158.3304   Anisotropy =    41.1003

     14  C    Isotropic =   159.9222   Anisotropy =    33.5748

     15  C    Isotropic =   163.3766   Anisotropy =    30.1742

     16  H    Isotropic =    24.5667   Anisotropy =     9.1401

     17  H    Isotropic =    24.9512   Anisotropy =     4.7748

     18  H    Isotropic =    24.9545   Anisotropy =     3.8511

     19  H    Isotropic =    24.9645   Anisotropy =     5.6905

     20  H    Isotropic =    24.3775   Anisotropy =     9.3290

     21  H    Isotropic =    30.3681   Anisotropy =     5.7192

     22  H    Isotropic =    30.3288   Anisotropy =     6.9952

     23  H    Isotropic =    31.0211   Anisotropy =     9.1666

     24  H    Isotropic =    30.5737   Anisotropy =     6.2221

     25  H    Isotropic =    31.2438   Anisotropy =     9.2643

     26  H    Isotropic =    30.6582   Anisotropy =     8.1879

     27  H    Isotropic =    31.2200   Anisotropy =     5.9338

     28  H    Isotropic =    31.1783   Anisotropy =     7.6633

     29  H    Isotropic =    31.5408   Anisotropy =     9.2441

     30  H    Isotropic =    30.8760   Anisotropy =     8.6535

     31  H    Isotropic =    31.3255   Anisotropy =     5.9560

     32  H    Isotropic =    31.5760   Anisotropy =     9.4746

     33  H    Isotropic =    30.6696   Anisotropy =     7.5181

     34  H    Isotropic =    31.0432   Anisotropy =     9.1297

     35  H    Isotropic =    30.6159   Anisotropy =     6.4126

     36  H    Isotropic =    30.8056   Anisotropy =     6.5525

     37  H    Isotropic =    30.4747   Anisotropy =     6.2002

     38  H    Isotropic =    31.3402   Anisotropy =     9.3477

  Exact polarizability: 207.015   0.379 149.781  -0.533  -5.829 150.134
 Approx polarizability: 292.876   0.583 210.326  -2.269 -14.815 256.811

                      1                      2                      3
                      A                      A                      A
 Frequencies --     38.5801                62.8743                69.2346
 Red. masses --      3.6469                 2.7750                 3.1940
 Frc consts  --      0.0032                 0.0065                 0.0090
 IR Inten    --      0.0410                 0.0374                 0.0259

                      4                      5                      6
                      A                      A                      A
 Frequencies --     90.2936               132.2579               159.5467
 Red. masses --      3.2701                 4.0117                 3.4995
 Frc consts  --      0.0157                 0.0413                 0.0525
 IR Inten    --      0.0389                 0.0401                 0.1296

                      7                      8                      9
                      A                      A                      A
 Frequencies --    223.3845               227.1345               234.0985
 Red. masses --      2.7337                 1.3503                 1.3623
 Frc consts  --      0.0804                 0.0410                 0.0440
 IR Inten    --      0.5880                 0.0136                 0.0982

                     10                     11                     12
                      A                      A                      A
 Frequencies --    241.6274               251.2594               255.5961
 Red. masses --      2.2090                 1.4848                 2.4012
 Frc consts  --      0.0760                 0.0552                 0.0924
 IR Inten    --      0.1558                 0.2291                 0.2094

                     13                     14                     15
                      A                      A                      A
 Frequencies --    261.5303               268.5245               296.8689
 Red. masses --      1.6774                 2.3525                 1.1715
 Frc consts  --      0.0676                 0.0999                 0.0608
 IR Inten    --      0.2069                 0.3832                 0.2489

                     16                     17                     18
                      A                      A                      A
 Frequencies --    300.0088               304.1832               310.4130
 Red. masses --      1.2386                 1.3678                 1.1711
 Frc consts  --      0.0657                 0.0746                 0.0665
 IR Inten    --      0.3359                 0.0875                 0.1110

                     19                     20                     21
                      A                      A                      A
 Frequencies --    364.2289               379.4628               390.0763
 Red. masses --      2.4659                 2.6591                 2.5121
 Frc consts  --      0.1927                 0.2256                 0.2252
 IR Inten    --      0.1159                 0.8397                 0.4910

                     22                     23                     24
                      A                      A                      A
 Frequencies --    396.5758               410.0539               420.3347
 Red. masses --      2.2931                 2.8611                 2.9605
 Frc consts  --      0.2125                 0.2834                 0.3082
 IR Inten    --      0.1238                 0.8243                 0.8772

                     25                     26                     27
                      A                      A                      A
 Frequencies --    463.8258               484.5919               503.2172
 Red. masses --      3.2188                 5.8369                 3.4860
 Frc consts  --      0.4080                 0.8076                 0.5201
 IR Inten    --      5.9776                 9.6560                 8.7561

                     28                     29                     30
                      A                      A                      A
 Frequencies --    558.8261               586.8472               634.1934
 Red. masses --      3.1541                 3.7573                 6.4351
 Frc consts  --      0.5803                 0.7624                 1.5249
 IR Inten    --      3.0222                11.2095                 0.0639

                     31                     32                     33
                      A                      A                      A
 Frequencies --    701.2341               716.1834               762.6633
 Red. masses --      6.6794                 2.0368                 1.6818
 Frc consts  --      1.9351                 0.6155                 0.5764
 IR Inten    --      2.5548                24.9101                18.8080

                     34                     35                     36
                      A                      A                      A
 Frequencies --    813.9283               815.0204               867.6855
 Red. masses --      2.9407                 2.9191                 1.2431
 Frc consts  --      1.1478                 1.1425                 0.5514
 IR Inten    --      6.8301                 6.9099                 0.0719

                     37                     38                     39
                      A                      A                      A
 Frequencies --    936.7312               943.4416               945.3705
 Red. masses --      1.3548                 1.8272                 1.8160
 Frc consts  --      0.7004                 0.9582                 0.9562
 IR Inten    --      0.4371                 1.8554                 0.8773

                     40                     41                     42
                      A                      A                      A
 Frequencies --    950.7576               953.6764               974.6342
 Red. masses --      1.7358                 1.7414                 1.2164
 Frc consts  --      0.9245                 0.9332                 0.6808
 IR Inten    --      0.6742                 1.9879                 0.0764

                     43                     44                     45
                      A                      A                      A
 Frequencies --    977.5387               979.4263              1001.5612
 Red. masses --      1.2011                 1.3355                 1.2525
 Frc consts  --      0.6762                 0.7548                 0.7403
 IR Inten    --      0.0133                 0.1242                 0.0787

                     46                     47                     48
                      A                      A                      A
 Frequencies --   1016.5802              1041.2801              1050.2708
 Red. masses --      6.2125                 1.3718                 1.3788
 Frc consts  --      3.7827                 0.8763                 0.8961
 IR Inten    --      2.8940                 0.7398                 1.7001

                     49                     50                     51
                      A                      A                      A
 Frequencies --   1050.8380              1052.3234              1056.8404
 Red. masses --      1.4106                 3.0252                 1.4362
 Frc consts  --      0.9178                 1.9738                 0.9451
 IR Inten    --      3.2551                 0.6022                 2.4587

                     52                     53                     54
                      A                      A                      A
 Frequencies --   1105.4941              1112.7165              1193.7476
 Red. masses --      1.8323                 2.2089                 1.0977
 Frc consts  --      1.3193                 1.6114                 0.9217
 IR Inten    --      2.3441                11.6816                 0.0674

                     55                     56                     57
                      A                      A                      A
 Frequencies --   1211.1721              1216.4387              1221.4385
 Red. masses --      2.0019                 1.8273                 1.2191
 Frc consts  --      1.7302                 1.5931                 1.0716
 IR Inten    --     43.8029                20.1473                 0.0931

                     58                     59                     60
                      A                      A                      A
 Frequencies --   1225.2281              1231.9825              1241.0807
 Red. masses --      2.4036                 2.4461                 2.5823
 Frc consts  --      2.1259                 2.1874                 2.3434
 IR Inten    --      0.4780                 0.9992                 0.3024

                     61                     62                     63
                      A                      A                      A
 Frequencies --   1245.2516              1321.5622              1362.6976
 Red. masses --      2.6377                 3.8348                 1.5992
 Frc consts  --      2.4098                 3.9461                 1.7497
 IR Inten    --      1.7671                 1.9936                 1.3059

                     64                     65                     66
                      A                      A                      A
 Frequencies --   1423.5293              1426.0441              1428.5375
 Red. masses --      1.2110                 1.2133                 1.2100
 Frc consts  --      1.4459                 1.4538                 1.4548
 IR Inten    --      1.7902                 0.0113                 7.5091

                     67                     68                     69
                      A                      A                      A
 Frequencies --   1429.2515              1454.5139              1460.6471
 Red. masses --      1.2128                 1.2095                 1.2122
 Frc consts  --      1.4597                 1.5077                 1.5238
 IR Inten    --      6.6640                 7.0865                 1.6169

                     70                     71                     72
                      A                      A                      A
 Frequencies --   1478.3000              1508.7582              1509.4973
 Red. masses --      2.0707                 1.0501                 1.0514
 Frc consts  --      2.6662                 1.4083                 1.4115
 IR Inten    --      8.4001                 0.3361                 0.1561

                     73                     74                     75
                      A                      A                      A
 Frequencies --   1515.3754              1517.6976              1519.8165
 Red. masses --      1.0471                 1.0488                 1.0529
 Frc consts  --      1.4167                 1.4233                 1.4329
 IR Inten    --      0.2971                 1.2892                 0.6898

                     76                     77                     78
                      A                      A                      A
 Frequencies --   1521.1948              1529.1037              1531.8233
 Red. masses --      1.0472                 1.5631                 1.1077
 Frc consts  --      1.4277                 2.1533                 1.5314
 IR Inten    --      0.9670                 2.6684                 5.6380

                     79                     80                     81
                      A                      A                      A
 Frequencies --   1533.7608              1536.7629              1542.3277
 Red. masses --      1.0914                 1.0882                 1.0574
 Frc consts  --      1.5127                 1.5142                 1.4820
 IR Inten    --      6.1186                 1.3312                 4.3804

                     82                     83                     84
                      A                      A                      A
 Frequencies --   1546.9697              1550.0385              1628.2630
 Red. masses --      1.0509                 1.0512                 5.0099
 Frc consts  --      1.4818                 1.4881                 7.8258
 IR Inten    --     12.0149                 8.9875                 0.7872

                     85                     86                     87
                      A                      A                      A
 Frequencies --   1645.8927              3030.7885              3031.3327
 Red. masses --      5.3117                 1.0468                 1.0469
 Frc consts  --      8.4779                 5.6653                 5.6677
 IR Inten    --      0.4515                 6.4754                32.4630

                     88                     89                     90
                      A                      A                      A
 Frequencies --   3032.5515              3034.0453              3038.9098
 Red. masses --      1.0389                 1.0413                 1.0419
 Frc consts  --      5.6293                 5.6474                 5.6692
 IR Inten    --     15.9752                17.1087               116.6480

                     91                     92                     93
                      A                      A                      A
 Frequencies --   3041.6566              3094.6847              3096.8287
 Red. masses --      1.0430                 1.0976                 1.0978
 Frc consts  --      5.6856                 6.1932                 6.2033
 IR Inten    --     52.7096                20.1233                17.9465

                     94                     95                     96
                      A                      A                      A
 Frequencies --   3099.6313              3101.7993              3106.8913
 Red. masses --      1.0935                 1.0896                 1.0923
 Frc consts  --      6.1902                 6.1767                 6.2122
 IR Inten    --      9.2801                53.8700                52.8774

                     97                     98                     99
                      A                      A                      A
 Frequencies --   3109.8476              3120.7065              3123.3925
 Red. masses --      1.0860                 1.1021                 1.1024
 Frc consts  --      6.1882                 6.3237                 6.3365
 IR Inten    --     17.5370                13.1556                27.8960

                    100                    101                    102
                      A                      A                      A
 Frequencies --   3132.5944              3134.2244              3138.4670
 Red. masses --      1.1007                 1.1008                 1.1012
 Frc consts  --      6.3638                 6.3709                 6.3910
 IR Inten    --      9.1909                20.0052                33.1556

                    103                    104                    105
                      A                      A                      A
 Frequencies --   3146.6272              3177.6406              3185.3161
 Red. masses --      1.1014                 1.0848                 1.0882
 Frc consts  --      6.4251                 6.4536                 6.5052
 IR Inten    --     30.1871                 0.7961                 5.7533

                    106                    107                    108
                      A                      A                      A
 Frequencies --   3195.3378              3205.6949              3222.7744
 Red. masses --      1.0922                 1.0967                 1.0914
 Frc consts  --      6.5705                 6.6404                 6.6788
 IR Inten    --     22.0271                35.5434                11.4296

 - Thermochemistry -
 -------------------
 Temperature   298.150 Kelvin.  Pressure   1.00000 Atm.
 Atom     1 has atomic number 15 and mass  30.97376

 Molecular mass:   222.15374 amu.
 Principal axes and moments of inertia in atomic units:
                           1         2         3
     Eigenvalues --  2494.348604228.847835226.66180
           X            0.99998   0.00350  -0.00454
           Y           -0.00350   0.99999  -0.00082
           Z            0.00454   0.00083   0.99999
 This molecule is an asymmetric top.
 Rotational symmetry number  1.
 Warning -- assumption of classical behavior for rotation
           may cause significant error
 Rotational temperatures (Kelvin)      0.03472     0.02048     0.01657
 Rotational constants (GHZ):           0.72353     0.42677     0.34530
 Zero-point vibrational energy     887965.8 (Joules/Mol)
                                  212.22893 (Kcal/Mol)
 Warning -- explicit consideration of  29 degrees of freedom as
           vibrations may cause significant error
 Vibrational temperatures:     55.51    90.46    99.61   129.91   190.29
          (Kelvin)            229.55   321.40   326.80   336.82   347.65
                              361.51   367.75   376.28   386.35   427.13
                              431.65   437.65   446.62   524.04   545.96
                              561.23   570.58   589.98   604.77   667.34
                              697.22   724.02   804.03   844.34   912.46
                             1008.92  1030.43  1097.30  1171.06  1172.63
                             1248.41  1347.75  1357.40  1360.18  1367.93
                             1372.13  1402.28  1406.46  1409.18  1441.02
                             1462.63  1498.17  1511.11  1511.92  1514.06
                             1520.56  1590.56  1600.95  1717.54  1742.61
                             1750.18  1757.38  1762.83  1772.55  1785.64
                             1791.64  1901.43  1960.62  2048.14  2051.76
                             2055.35  2056.37  2092.72  2101.55  2126.94
                             2170.77  2171.83  2180.29  2183.63  2186.68
                             2188.66  2200.04  2203.95  2206.74  2211.06
                             2219.07  2225.74  2230.16  2342.71  2368.07
                             4360.63  4361.41  4363.17  4365.31  4372.31
                             4376.27  4452.56  4455.65  4459.68  4462.80
                             4470.12  4474.38  4490.00  4493.87  4507.10
                             4509.45  4515.55  4527.29  4571.92  4582.96
                             4597.38  4612.28  4636.85

 Zero-point correction=                           0.338208 (Hartree/Particle)
 Thermal correction to Energy=                    0.355656
 Thermal correction to Enthalpy=                  0.356600
 Thermal correction to Gibbs Free Energy=         0.294736
 Sum of electronic and zero-point Energies=           -888.352971
 Sum of electronic and thermal Energies=              -888.335523
 Sum of electronic and thermal Enthalpies=            -888.334579
 Sum of electronic and thermal Free Energies=         -888.396443

                     E (Thermal)             CV                S
                      KCal/Mol        Cal/Mol-Kelvin    Cal/Mol-Kelvin
 Total                  223.178             68.241            130.204
 Electronic               0.000              0.000              0.000
 Translational            0.889              2.981             42.097
 Rotational               0.889              2.981             32.378
 Vibrational            221.400             62.280             55.729
 Vibration     1          0.594              1.981              5.331
 Vibration     2          0.597              1.972              4.365
 Vibration     3          0.598              1.969              4.175
 Vibration     4          0.602              1.956              3.654
 Vibration     5          0.612              1.921              2.913
 Vibration     6          0.621              1.892              2.555
 Vibration     7          0.649              1.805              1.931
 Vibration     8          0.651              1.800              1.901
 Vibration     9          0.654              1.789              1.847
 Vibration    10          0.658              1.777              1.791
 Vibration    11          0.663              1.761              1.722
 Vibration    12          0.666              1.753              1.692
 Vibration    13          0.669              1.743              1.652
 Vibration    14          0.673              1.731              1.606
 Vibration    15          0.691              1.680              1.434
 Vibration    16          0.693              1.674              1.417
 Vibration    17          0.695              1.666              1.394
 Vibration    18          0.699              1.654              1.360
 Vibration    19          0.738              1.546              1.104
 Vibration    20          0.749              1.514              1.041
 Vibration    21          0.758              1.491              1.000
 Vibration    22          0.763              1.477              0.975
 Vibration    23          0.774              1.448              0.926
 Vibration    24          0.783              1.426              0.891
 Vibration    25          0.821              1.330              0.755
 Vibration    26          0.841              1.284              0.698
 Vibration    27          0.859              1.243              0.650
 Vibration    28          0.914              1.120              0.526
 Vibration    29          0.944              1.060              0.473

 Optimization completed.
    -- Stationary point found.
 Normal termination of Gaussian 16 at Wed Feb 27 01:55:04 2019.
 Gaussian 16:  ES64L-G16RevA.03 25-Dec-2016

 ----------------------------------------------------------------------
 # TD(NStates=10, Root=1) B3LYP/6-31G* volume pop=NPA density=current G
 eom=AllCheck Guess=Read
 ----------------------------------------------------------------------

 Structure from the checkpoint file:  "direct_arylation_ligand_64_conf23.chk"
 -------------------
 Title Card Required
 -------------------
 Charge =  0 Multiplicity = 1

                         Standard orientation:
 ---------------------------------------------------------------------
 Center     Atomic      Atomic             Coordinates (Angstroms)
 Number     Number       Type             X           Y           Z
 ---------------------------------------------------------------------
      1         15           0       -0.596926    0.038688   -0.781396
      2          6           0        1.186669   -0.044386   -0.252134
      3          6           0        2.130291    0.166331   -1.273101
      4          6           0        3.502838    0.131612   -1.016405
      5          6           0        3.964742   -0.129049    0.273159
      6          6           0        3.045736   -0.349480    1.301376
      7          6           0        1.675234   -0.303429    1.042175
      8          6           0       -1.423260   -1.541154   -0.042351
      9          6           0       -1.735970   -1.577185    1.463585
     10          6           0       -2.741545   -1.734749   -0.826971
     11          6           0       -0.490894   -2.720169   -0.394461
     12          6           0       -1.226702    1.631579    0.104726
     13          6           0       -0.577218    2.786895   -0.690773
     14          6           0       -2.755004    1.721868   -0.074413
     15          6           0       -0.870548    1.808380    1.591002
     16          1           0        1.778701    0.355002   -2.284208
     17          1           0        4.208320    0.301188   -1.825870
     18          1           0        5.031785   -0.163078    0.477241
     19          1           0        3.396099   -0.555260    2.309851
     20          1           0        0.985294   -0.470710    1.861869
     21          1           0       -2.451361   -0.802593    1.756257
     22          1           0       -0.840523   -1.466688    2.082102
     23          1           0       -2.187074   -2.546544    1.720083
     24          1           0       -3.465238   -0.937824   -0.630584
     25          1           0       -3.209863   -2.684315   -0.533311
     26          1           0       -2.562274   -1.766042   -1.906828
     27          1           0        0.437961   -2.698594    0.182762
     28          1           0       -0.225635   -2.722613   -1.458402
     29          1           0       -1.002280   -3.667844   -0.177602
     30          1           0       -0.851293    2.751288   -1.750775
     31          1           0        0.515904    2.762731   -0.622172
     32          1           0       -0.914962    3.750475   -0.285307
     33          1           0       -3.052309    1.569203   -1.118349
     34          1           0       -3.102854    2.719107    0.227817
     35          1           0       -3.288645    0.991993    0.543161
     36          1           0        0.211890    1.824284    1.748098
     37          1           0       -1.297017    1.024901    2.223280
     38          1           0       -1.266940    2.769231    1.949345
 ---------------------------------------------------------------------

 SCF Done:  E(RB3LYP) =  -888.691179204     A.U. after    1 cycles

 Excitation energies and oscillator strengths:

 Excited State   1:      Singlet-A      4.4033 eV  281.57 nm  f=0.0134  <S**2>=0.000
      61 -> 62         0.70213
 This state for optimization and/or second-order correction.
 Total Energy, E(TD-HF/TD-DFT) =  -888.529361036
 Copying the excited state density for this state as the 1-particle RhoCI density.

 Excited State   2:      Singlet-A      4.8308 eV  256.65 nm  f=0.0008  <S**2>=0.000
      61 -> 63         0.70166

 Excited State   3:      Singlet-A      5.3398 eV  232.19 nm  f=0.0067  <S**2>=0.000
      59 -> 62         0.50754
      59 -> 63        -0.11215
      60 -> 62        -0.15854
      60 -> 63        -0.44209

 Excited State   4:      Singlet-A      5.8660 eV  211.36 nm  f=0.1020  <S**2>=0.000
      58 -> 62        -0.10417
      59 -> 62         0.14200
      59 -> 63         0.26319
      60 -> 62         0.61422
      60 -> 63        -0.11732

 Excited State   5:      Singlet-A      6.3070 eV  196.58 nm  f=0.0434  <S**2>=0.000
      58 -> 62         0.26958
      61 -> 64         0.63252

 Excited State   6:      Singlet-A      6.5607 eV  188.98 nm  f=0.2373  <S**2>=0.000
      58 -> 62         0.49249
      59 -> 63         0.40574
      60 -> 62        -0.13061
      61 -> 64        -0.24878

 Excited State   7:      Singlet-A      6.5972 eV  187.94 nm  f=0.0058  <S**2>=0.000
      57 -> 62         0.67552
      61 -> 65         0.11136
      61 -> 66         0.10988

 Excited State   8:      Singlet-A      6.6643 eV  186.04 nm  f=0.1670  <S**2>=0.000
      58 -> 63        -0.37979
      59 -> 62         0.34180
      60 -> 63         0.45302
      61 -> 65        -0.10042

 Excited State   9:      Singlet-A      6.8331 eV  181.45 nm  f=0.0293  <S**2>=0.000
      61 -> 65         0.68182

 Excited State  10:      Singlet-A      6.9318 eV  178.86 nm  f=0.0008  <S**2>=0.000
      57 -> 63         0.69100

 The electronic state is 1-A.
 Alpha  occ. eigenvalues --  -77.06426 -10.20142 -10.20065 -10.19168 -10.19156
 Alpha  occ. eigenvalues --  -10.19089 -10.19032 -10.18924 -10.18833 -10.17543
 Alpha  occ. eigenvalues --  -10.17443 -10.17067 -10.17039 -10.16988 -10.16959
 Alpha  occ. eigenvalues --   -6.53164  -4.69443  -4.69391  -4.68903  -0.84993
 Alpha  occ. eigenvalues --   -0.81008  -0.79555  -0.74478  -0.74235  -0.68516
 Alpha  occ. eigenvalues --   -0.68250  -0.67668  -0.67618  -0.62955  -0.60040
 Alpha  occ. eigenvalues --   -0.58026  -0.54147  -0.52351  -0.49281  -0.45674
 Alpha  occ. eigenvalues --   -0.45351  -0.44585  -0.44114  -0.43268  -0.42900
 Alpha  occ. eigenvalues --   -0.42276  -0.41977  -0.41325  -0.39197  -0.38391
 Alpha  occ. eigenvalues --   -0.38060  -0.37452  -0.37200  -0.36386  -0.36064
 Alpha  occ. eigenvalues --   -0.35886  -0.34184  -0.33589  -0.33031  -0.32466
 Alpha  occ. eigenvalues --   -0.32172  -0.29458  -0.28210  -0.24887  -0.24490
 Alpha  occ. eigenvalues --   -0.20814
 Alpha virt. eigenvalues --   -0.01360  -0.00069   0.05870   0.07270   0.08166
 Alpha virt. eigenvalues --    0.08847   0.11424   0.11661   0.12487   0.13863
 Alpha virt. eigenvalues --    0.14296   0.14627   0.15027   0.15712   0.16216

 Mulliken charges:
               1
     1  P    0.600640
     2  C   -0.161303
     3  C   -0.183811
     4  C   -0.138986
     5  C   -0.201301
     6  C   -0.107777
     7  C   -0.225495
     8  C   -0.104968
     9  C   -0.464208
    10  C   -0.459172
    11  C   -0.453019
    12  C   -0.092322
    13  C   -0.467446
    14  C   -0.461143
    15  C   -0.459033
    16  H    0.083986
    17  H    0.088177
    18  H    0.080829
    19  H    0.096546
    20  H    0.081235
    21  H    0.156514
    22  H    0.188367
    23  H    0.166291
    24  H    0.155563
    25  H    0.152789
    26  H    0.154421
    27  H    0.203554
    28  H    0.157964
    29  H    0.144097
    30  H    0.146549
    31  H    0.199968
    32  H    0.151398
    33  H    0.150818
    34  H    0.153812
    35  H    0.154892
    36  H    0.203196
    37  H    0.151310
    38  H    0.157070
 Sum of Mulliken charges =  -0.00000

 Dipole moment (field-independent basis, Debye):
    X=             -7.6266    Y=              0.1821    Z=             -0.3088  Tot=              7.6351
 Quadrupole moment (field-independent basis, Debye-Ang):
   XX=           -113.7403   YY=            -97.8230   ZZ=            -97.8448
   XY=              1.1946   XZ=             -0.0889   YZ=             -0.6570

 Summary of Natural Population Analysis:

                                       Natural Population
                Natural  -----------------------------------------------
    Atom  No    Charge         Core      Valence    Rydberg      Total
 -----------------------------------------------------------------------
      P    1    1.40311      9.99741     3.55776    0.04171    13.59689
      C    2   -0.59313      1.99883     4.57203    0.02226     6.59313
      C    3   -0.23931      1.99904     4.22428    0.01599     6.23931
      C    4   -0.27971      1.99910     4.26426    0.01636     6.27971
      C    5   -0.36180      1.99910     4.34457    0.01813     6.36180
      C    6   -0.21201      1.99907     4.19848    0.01445     6.21201
      C    7   -0.34676      1.99900     4.32668    0.02108     6.34676
      C    8   -0.34919      1.99911     4.33258    0.01749     6.34919
      C    9   -0.67680      1.99933     4.66543    0.01204     6.67680
      C   10   -0.68327      1.99938     4.67268    0.01121     6.68327
      C   11   -0.68469      1.99937     4.67320    0.01212     6.68469
      C   12   -0.35292      1.99911     4.33476    0.01904     6.35292
      C   13   -0.69160      1.99937     4.68022    0.01200     6.69160
      C   14   -0.68439      1.99937     4.67401    0.01102     6.68439
      C   15   -0.68087      1.99933     4.66921    0.01233     6.68087
      H   16    0.20604      0.00000     0.79327    0.00069     0.79396
      H   17    0.21824      0.00000     0.78090    0.00085     0.78176
      H   18    0.21368      0.00000     0.78559    0.00072     0.78632
      H   19    0.22248      0.00000     0.77666    0.00085     0.77752
      H   20    0.20301      0.00000     0.79612    0.00088     0.79699
      H   21    0.23150      0.00000     0.76759    0.00091     0.76850
      H   22    0.25114      0.00000     0.74807    0.00079     0.74886
      H   23    0.25148      0.00000     0.74737    0.00115     0.74852
      H   24    0.23365      0.00000     0.76543    0.00091     0.76635
      H   25    0.23899      0.00000     0.75941    0.00159     0.76101
      H   26    0.23532      0.00000     0.76380    0.00088     0.76468
      H   27    0.26814      0.00000     0.73063    0.00122     0.73186
      H   28    0.23892      0.00000     0.76032    0.00076     0.76108
      H   29    0.23542      0.00000     0.76331    0.00127     0.76458
      H   30    0.23070      0.00000     0.76847    0.00083     0.76930
      H   31    0.26489      0.00000     0.73410    0.00101     0.73511
      H   32    0.24028      0.00000     0.75859    0.00113     0.75972
      H   33    0.23262      0.00000     0.76660    0.00078     0.76738
      H   34    0.24064      0.00000     0.75764    0.00172     0.75936
      H   35    0.22899      0.00000     0.77011    0.00090     0.77101
      H   36    0.26864      0.00000     0.73021    0.00115     0.73136
      H   37    0.23342      0.00000     0.76566    0.00092     0.76658
      H   38    0.24513      0.00000     0.75361    0.00125     0.75487
 =======================================================================
   * Total *    0.00000     37.98591    83.73365    0.28044   122.00000

 Normal termination of Gaussian 16 at Wed Feb 27 02:02:01 2019.
