 Gaussian 16, Revision A.03,

 ---------------------------------
 # opt=CalcFc B3LYP/6-31G* scf=xqc
 ---------------------------------

 -------------------
 Title Card Required
 -------------------
 Symbolic Z-matrix:
 Charge =  0 Multiplicity = 1

 SCF Done:  E(RB3LYP) =  -888.654365622     A.U. after   14 cycles
 SCF Done:  E(RB3LYP) =  -888.675767461     A.U. after   14 cycles
 SCF Done:  E(RB3LYP) =  -888.673803069     A.U. after   14 cycles
 SCF Done:  E(RB3LYP) =  -888.682854710     A.U. after   12 cycles
 SCF Done:  E(RB3LYP) =  -888.684860485     A.U. after   14 cycles
 SCF Done:  E(RB3LYP) =  -888.642775919     A.U. after   13 cycles
 SCF Done:  E(RB3LYP) =  -888.687317196     A.U. after   12 cycles
 SCF Done:  E(RB3LYP) =  -888.688784762     A.U. after   12 cycles
 SCF Done:  E(RB3LYP) =  -888.689387928     A.U. after   11 cycles
 SCF Done:  E(RB3LYP) =  -888.689647632     A.U. after   11 cycles
 SCF Done:  E(RB3LYP) =  -888.691174358     A.U. after    9 cycles
 SCF Done:  E(RB3LYP) =  -888.691176791     A.U. after    9 cycles
 SCF Done:  E(RB3LYP) =  -888.691177399     A.U. after    8 cycles
 SCF Done:  E(RB3LYP) =  -888.691178183     A.U. after    8 cycles
 SCF Done:  E(RB3LYP) =  -888.691178579     A.U. after    7 cycles
 SCF Done:  E(RB3LYP) =  -888.691178838     A.U. after    7 cycles
 SCF Done:  E(RB3LYP) =  -888.691179022     A.U. after    7 cycles
 SCF Done:  E(RB3LYP) =  -888.691179143     A.U. after    7 cycles
 Optimization completed.
    -- Stationary point found.
 Normal termination of Gaussian 16 at Wed Feb 27 01:49:19 2019.

 ----------------------------------------------------------------------
 # freq B3LYP/6-31G* volume NMR pop=NPA density=current Geom=AllCheck G
 uess=Read
 ----------------------------------------------------------------------

 Structure from the checkpoint file:  "direct_arylation_ligand_64_conf42.chk"
 -------------------
 Title Card Required
 -------------------
 Charge =  0 Multiplicity = 1

 SCF Done:  E(RB3LYP) =  -888.691179143     A.U. after    1 cycles

      1  P    Isotropic =   318.9143   Anisotropy =    62.1922

      2  C    Isotropic =    55.7794   Anisotropy =   180.3707

      3  C    Isotropic =    56.6343   Anisotropy =   159.0170

      4  C    Isotropic =    68.8107   Anisotropy =   163.7785

      5  C    Isotropic =    67.3890   Anisotropy =   168.8565

      6  C    Isotropic =    69.6398   Anisotropy =   162.3552

      7  C    Isotropic =    61.9151   Anisotropy =   165.2463

      8  C    Isotropic =   151.1436   Anisotropy =    17.6280

      9  C    Isotropic =   163.3761   Anisotropy =    30.1720

     10  C    Isotropic =   159.9201   Anisotropy =    33.5593

     11  C    Isotropic =   158.3315   Anisotropy =    41.1002

     12  C    Isotropic =   151.5946   Anisotropy =    19.4003

     13  C    Isotropic =   159.0374   Anisotropy =    33.6067

     14  C    Isotropic =   156.7506   Anisotropy =    41.1029

     15  C    Isotropic =   161.5550   Anisotropy =    29.3587

     16  H    Isotropic =    24.5664   Anisotropy =     9.1417

     17  H    Isotropic =    24.9513   Anisotropy =     4.7751

     18  H    Isotropic =    24.9545   Anisotropy =     3.8510

     19  H    Isotropic =    24.9644   Anisotropy =     5.6902

     20  H    Isotropic =    24.3787   Anisotropy =     9.3292

     21  H    Isotropic =    30.4745   Anisotropy =     6.1996

     22  H    Isotropic =    30.8054   Anisotropy =     6.5529

     23  H    Isotropic =    31.3402   Anisotropy =     9.3479

     24  H    Isotropic =    30.6150   Anisotropy =     6.4105

     25  H    Isotropic =    31.0433   Anisotropy =     9.1287

     26  H    Isotropic =    30.6701   Anisotropy =     7.5187

     27  H    Isotropic =    31.3252   Anisotropy =     5.9566

     28  H    Isotropic =    30.8762   Anisotropy =     8.6532

     29  H    Isotropic =    31.5756   Anisotropy =     9.4746

     30  H    Isotropic =    31.1781   Anisotropy =     7.6639

     31  H    Isotropic =    31.2199   Anisotropy =     5.9332

     32  H    Isotropic =    31.5403   Anisotropy =     9.2443

     33  H    Isotropic =    30.6588   Anisotropy =     8.1876

     34  H    Isotropic =    31.2439   Anisotropy =     9.2642

     35  H    Isotropic =    30.5729   Anisotropy =     6.2192

     36  H    Isotropic =    30.3300   Anisotropy =     6.9974

     37  H    Isotropic =    30.3682   Anisotropy =     5.7191

     38  H    Isotropic =    31.0214   Anisotropy =     9.1673

  Exact polarizability: 207.025  -0.375 149.777  -0.532   5.832 150.135
 Approx polarizability: 292.887  -0.576 210.320  -2.268  14.822 256.811

                      1                      2                      3
                      A                      A                      A
 Frequencies --     38.6216                62.8825                69.2608
 Red. masses --      3.6486                 2.7744                 3.1957
 Frc consts  --      0.0032                 0.0065                 0.0090
 IR Inten    --      0.0412                 0.0372                 0.0259

                      4                      5                      6
                      A                      A                      A
 Frequencies --     90.3086               132.2916               159.5573
 Red. masses --      3.2675                 4.0122                 3.4987
 Frc consts  --      0.0157                 0.0414                 0.0525
 IR Inten    --      0.0389                 0.0404                 0.1294

                      7                      8                      9
                      A                      A                      A
 Frequencies --    223.3508               227.0604               234.0865
 Red. masses --      2.7358                 1.3475                 1.3644
 Frc consts  --      0.0804                 0.0409                 0.0441
 IR Inten    --      0.5880                 0.0133                 0.0984

                     10                     11                     12
                      A                      A                      A
 Frequencies --    241.6493               251.2952               255.6172
 Red. masses --      2.2095                 1.4859                 2.3963
 Frc consts  --      0.0760                 0.0553                 0.0923
 IR Inten    --      0.1560                 0.2296                 0.2097

                     13                     14                     15
                      A                      A                      A
 Frequencies --    261.5257               268.5103               296.8189
 Red. masses --      1.6780                 2.3505                 1.1724
 Frc consts  --      0.0676                 0.0998                 0.0609
 IR Inten    --      0.2079                 0.3819                 0.2488

                     16                     17                     18
                      A                      A                      A
 Frequencies --    300.0235               304.1832               310.4295
 Red. masses --      1.2384                 1.3699                 1.1696
 Frc consts  --      0.0657                 0.0747                 0.0664
 IR Inten    --      0.3384                 0.0858                 0.1111

                     19                     20                     21
                      A                      A                      A
 Frequencies --    364.2195               379.4412               390.0630
 Red. masses --      2.4658                 2.6594                 2.5120
 Frc consts  --      0.1927                 0.2256                 0.2252
 IR Inten    --      0.1160                 0.8383                 0.4908

                     22                     23                     24
                      A                      A                      A
 Frequencies --    396.5852               410.0645               420.3135
 Red. masses --      2.2931                 2.8609                 2.9603
 Frc consts  --      0.2125                 0.2834                 0.3081
 IR Inten    --      0.1237                 0.8238                 0.8808

                     25                     26                     27
                      A                      A                      A
 Frequencies --    463.8435               484.5719               503.2146
 Red. masses --      3.2183                 5.8371                 3.4861
 Frc consts  --      0.4080                 0.8075                 0.5201
 IR Inten    --      5.9769                 9.6638                 8.7577

                     28                     29                     30
                      A                      A                      A
 Frequencies --    558.8155               586.8358               634.1860
 Red. masses --      3.1542                 3.7574                 6.4351
 Frc consts  --      0.5803                 0.7624                 1.5249
 IR Inten    --      3.0247                11.2153                 0.0639

                     31                     32                     33
                      A                      A                      A
 Frequencies --    701.2083               716.1637               762.6566
 Red. masses --      6.6790                 2.0361                 1.6823
 Frc consts  --      1.9349                 0.6153                 0.5765
 IR Inten    --      2.5553                24.9152                18.7981

                     34                     35                     36
                      A                      A                      A
 Frequencies --    813.9440               814.9740               867.6469
 Red. masses --      2.9405                 2.9193                 1.2431
 Frc consts  --      1.1478                 1.1424                 0.5514
 IR Inten    --      6.8687                 6.8734                 0.0712

                     37                     38                     39
                      A                      A                      A
 Frequencies --    936.6990               943.3515               945.3825
 Red. masses --      1.3550                 1.8264                 1.8165
 Frc consts  --      0.7005                 0.9576                 0.9565
 IR Inten    --      0.4344                 1.8652                 0.8629

                     40                     41                     42
                      A                      A                      A
 Frequencies --    950.7384               953.6948               974.6099
 Red. masses --      1.7358                 1.7413                 1.2164
 Frc consts  --      0.9244                 0.9331                 0.6808
 IR Inten    --      0.6800                 1.9863                 0.0772

                     43                     44                     45
                      A                      A                      A
 Frequencies --    977.5388               979.3983              1001.5541
 Red. masses --      1.2014                 1.3351                 1.2525
 Frc consts  --      0.6764                 0.7546                 0.7403
 IR Inten    --      0.0137                 0.1226                 0.0781

                     46                     47                     48
                      A                      A                      A
 Frequencies --   1016.5723              1041.2675              1050.2416
 Red. masses --      6.2130                 1.3718                 1.3785
 Frc consts  --      3.7829                 0.8763                 0.8958
 IR Inten    --      2.8969                 0.7386                 1.7093

                     49                     50                     51
                      A                      A                      A
 Frequencies --   1050.8404              1052.3096              1056.8266
 Red. masses --      1.4121                 3.0221                 1.4359
 Frc consts  --      0.9188                 1.9717                 0.9449
 IR Inten    --      3.2488                 0.5972                 2.4633

                     52                     53                     54
                      A                      A                      A
 Frequencies --   1105.4814              1112.6954              1193.7435
 Red. masses --      1.8341                 2.2062                 1.0977
 Frc consts  --      1.3206                 1.6093                 0.9216
 IR Inten    --      2.3616                11.6633                 0.0673

                     55                     56                     57
                      A                      A                      A
 Frequencies --   1211.1635              1216.4390              1221.4392
 Red. masses --      2.0018                 1.8284                 1.2186
 Frc consts  --      1.7301                 1.5940                 1.0711
 IR Inten    --     43.7774                20.1640                 0.0903

                     58                     59                     60
                      A                      A                      A
 Frequencies --   1225.2046              1231.9494              1241.1000
 Red. masses --      2.4041                 2.4453                 2.5824
 Frc consts  --      2.1262                 2.1866                 2.3436
 IR Inten    --      0.4666                 1.0018                 0.3036

                     61                     62                     63
                      A                      A                      A
 Frequencies --   1245.2408              1321.5292              1362.6878
 Red. masses --      2.6377                 3.8359                 1.5990
 Frc consts  --      2.4098                 3.9470                 1.7494
 IR Inten    --      1.7707                 1.9957                 1.3071

                     64                     65                     66
                      A                      A                      A
 Frequencies --   1423.5281              1426.0435              1428.5401
 Red. masses --      1.2110                 1.2133                 1.2100
 Frc consts  --      1.4459                 1.4538                 1.4548
 IR Inten    --      1.7897                 0.0122                 7.4930

                     67                     68                     69
                      A                      A                      A
 Frequencies --   1429.2524              1454.5127              1460.6517
 Red. masses --      1.2128                 1.2095                 1.2122
 Frc consts  --      1.4597                 1.5077                 1.5238
 IR Inten    --      6.6773                 7.0903                 1.6151

                     70                     71                     72
                      A                      A                      A
 Frequencies --   1478.2993              1508.7643              1509.4926
 Red. masses --      2.0708                 1.0501                 1.0514
 Frc consts  --      2.6664                 1.4084                 1.4114
 IR Inten    --      8.3993                 0.3357                 0.1567

                     73                     74                     75
                      A                      A                      A
 Frequencies --   1515.3928              1517.6991              1519.8228
 Red. masses --      1.0471                 1.0488                 1.0529
 Frc consts  --      1.4167                 1.4233                 1.4330
 IR Inten    --      0.2961                 1.2868                 0.6881

                     76                     77                     78
                      A                      A                      A
 Frequencies --   1521.1964              1529.0908              1531.8183
 Red. masses --      1.0472                 1.5648                 1.1077
 Frc consts  --      1.4277                 2.1556                 1.5314
 IR Inten    --      0.9723                 2.6711                 5.6802

                     79                     80                     81
                      A                      A                      A
 Frequencies --   1533.7523              1536.7606              1542.3251
 Red. masses --      1.0910                 1.0878                 1.0573
 Frc consts  --      1.5122                 1.5136                 1.4819
 IR Inten    --      6.0627                 1.3356                 4.3697

                     82                     83                     84
                      A                      A                      A
 Frequencies --   1546.9779              1550.0470              1628.2291
 Red. masses --      1.0509                 1.0512                 5.0092
 Frc consts  --      1.4818                 1.4881                 7.8244
 IR Inten    --     12.0099                 9.0053                 0.7875

                     85                     86                     87
                      A                      A                      A
 Frequencies --   1645.8970              3030.8078              3031.3167
 Red. masses --      5.3120                 1.0468                 1.0469
 Frc consts  --      8.4784                 5.6652                 5.6681
 IR Inten    --      0.4517                 5.4204                33.5186

                     88                     89                     90
                      A                      A                      A
 Frequencies --   3032.5458              3034.0726              3038.9048
 Red. masses --      1.0389                 1.0412                 1.0419
 Frc consts  --      5.6293                 5.6475                 5.6692
 IR Inten    --     16.1362                16.9881               116.2062

                     91                     92                     93
                      A                      A                      A
 Frequencies --   3041.6803              3094.6820              3096.8396
 Red. masses --      1.0431                 1.0976                 1.0978
 Frc consts  --      5.6857                 6.1932                 6.2033
 IR Inten    --     53.1354                20.1253                17.9672

                     94                     95                     96
                      A                      A                      A
 Frequencies --   3099.6354              3101.8460              3106.9167
 Red. masses --      1.0936                 1.0895                 1.0923
 Frc consts  --      6.1907                 6.1764                 6.2122
 IR Inten    --      9.6980                53.3556                52.9977

                     97                     98                     99
                      A                      A                      A
 Frequencies --   3109.8392              3120.7230              3123.3845
 Red. masses --      1.0860                 1.1021                 1.1024
 Frc consts  --      6.1882                 6.3238                 6.3364
 IR Inten    --     17.5043                13.0818                27.9565

                    100                    101                    102
                      A                      A                      A
 Frequencies --   3132.6093              3134.2510              3138.5017
 Red. masses --      1.1007                 1.1008                 1.1012
 Frc consts  --      6.3638                 6.3710                 6.3911
 IR Inten    --      9.2762                19.9348                33.1273

                    103                    104                    105
                      A                      A                      A
 Frequencies --   3146.6459              3177.6417              3185.3224
 Red. masses --      1.1014                 1.0848                 1.0882
 Frc consts  --      6.4251                 6.4536                 6.5052
 IR Inten    --     30.1752                 0.7936                 5.7600

                    106                    107                    108
                      A                      A                      A
 Frequencies --   3195.3392              3205.6984              3222.9582
 Red. masses --      1.0922                 1.0967                 1.0914
 Frc consts  --      6.5705                 6.6405                 6.6795
 IR Inten    --     22.0647                35.5236                11.4133

 - Thermochemistry -
 -------------------
 Temperature   298.150 Kelvin.  Pressure   1.00000 Atm.
 Atom     1 has atomic number 15 and mass  30.97376

 Molecular mass:   222.15374 amu.
 Principal axes and moments of inertia in atomic units:
                           1         2         3
     Eigenvalues --  2494.138184229.332905226.91024
           X            0.99998  -0.00350  -0.00454
           Y            0.00351   0.99999   0.00082
           Z            0.00453  -0.00083   0.99999
 This molecule is an asymmetric top.
 Rotational symmetry number  1.
 Warning -- assumption of classical behavior for rotation
           may cause significant error
 Rotational temperatures (Kelvin)      0.03473     0.02048     0.01657
 Rotational constants (GHZ):           0.72359     0.42672     0.34528
 Zero-point vibrational energy     887965.1 (Joules/Mol)
                                  212.22876 (Kcal/Mol)
 Warning -- explicit consideration of  29 degrees of freedom as
           vibrations may cause significant error
 Vibrational temperatures:     55.57    90.47    99.65   129.93   190.34
          (Kelvin)            229.57   321.35   326.69   336.80   347.68
                              361.56   367.78   376.28   386.33   427.06
                              431.67   437.65   446.64   524.03   545.93
                              561.21   570.60   589.99   604.74   667.37
                              697.19   724.01   804.01   844.33   912.45
                             1008.88  1030.40  1097.29  1171.08  1172.57
                             1248.35  1347.70  1357.27  1360.19  1367.90
                             1372.15  1402.25  1406.46  1409.14  1441.01
                             1462.62  1498.15  1511.06  1511.92  1514.04
                             1520.54  1590.54  1600.92  1717.53  1742.59
                             1750.18  1757.38  1762.80  1772.50  1785.67
                             1791.62  1901.39  1960.60  2048.14  2051.76
                             2055.35  2056.38  2092.72  2101.55  2126.94
                             2170.78  2171.82  2180.31  2183.63  2186.69
                             2188.66  2200.02  2203.94  2206.73  2211.06
                             2219.06  2225.76  2230.17  2342.66  2368.08
                             4360.66  4361.39  4363.16  4365.35  4372.31
                             4376.30  4452.56  4455.66  4459.68  4462.86
                             4470.16  4474.36  4490.02  4493.85  4507.13
                             4509.49  4515.60  4527.32  4571.92  4582.97
                             4597.38  4612.28  4637.12

 Zero-point correction=                           0.338208 (Hartree/Particle)
 Thermal correction to Energy=                    0.355656
 Thermal correction to Enthalpy=                  0.356600
 Thermal correction to Gibbs Free Energy=         0.294737
 Sum of electronic and zero-point Energies=           -888.352971
 Sum of electronic and thermal Energies=              -888.335523
 Sum of electronic and thermal Enthalpies=            -888.334579
 Sum of electronic and thermal Free Energies=         -888.396442

                     E (Thermal)             CV                S
                      KCal/Mol        Cal/Mol-Kelvin    Cal/Mol-Kelvin
 Total                  223.177             68.242            130.201
 Electronic               0.000              0.000              0.000
 Translational            0.889              2.981             42.097
 Rotational               0.889              2.981             32.378
 Vibrational            221.400             62.280             55.726
 Vibration     1          0.594              1.981              5.329
 Vibration     2          0.597              1.972              4.365
 Vibration     3          0.598              1.969              4.174
 Vibration     4          0.602              1.956              3.653
 Vibration     5          0.612              1.921              2.912
 Vibration     6          0.621              1.892              2.555
 Vibration     7          0.649              1.806              1.932
 Vibration     8          0.651              1.800              1.902
 Vibration     9          0.654              1.789              1.847
 Vibration    10          0.658              1.777              1.791
 Vibration    11          0.663              1.761              1.721
 Vibration    12          0.666              1.753              1.692
 Vibration    13          0.669              1.743              1.652
 Vibration    14          0.673              1.731              1.606
 Vibration    15          0.690              1.680              1.435
 Vibration    16          0.693              1.674              1.417
 Vibration    17          0.695              1.666              1.394
 Vibration    18          0.699              1.654              1.360
 Vibration    19          0.738              1.546              1.104
 Vibration    20          0.749              1.514              1.041
 Vibration    21          0.758              1.491              1.000
 Vibration    22          0.763              1.477              0.975
 Vibration    23          0.774              1.448              0.926
 Vibration    24          0.783              1.426              0.891
 Vibration    25          0.821              1.330              0.755
 Vibration    26          0.841              1.284              0.698
 Vibration    27          0.859              1.243              0.650
 Vibration    28          0.914              1.120              0.526
 Vibration    29          0.944              1.060              0.473

 Optimization completed.
    -- Stationary point found.
 Normal termination of Gaussian 16 at Wed Feb 27 01:56:32 2019.
 Gaussian 16:  ES64L-G16RevA.03 25-Dec-2016

 ----------------------------------------------------------------------
 # TD(NStates=10, Root=1) B3LYP/6-31G* volume pop=NPA density=current G
 eom=AllCheck Guess=Read
 ----------------------------------------------------------------------

 Structure from the checkpoint file:  "direct_arylation_ligand_64_conf43.chk"
 -------------------
 Title Card Required
 -------------------
 Charge =  0 Multiplicity = 1

                         Standard orientation:
 ---------------------------------------------------------------------
 Center     Atomic      Atomic             Coordinates (Angstroms)
 Number     Number       Type             X           Y           Z
 ---------------------------------------------------------------------
      1         15           0       -0.596770   -0.038678   -0.781358
      2          6           0        1.186827    0.044371   -0.251939
      3          6           0        2.130369   -0.166321   -1.273002
      4          6           0        3.502936   -0.131534   -1.016473
      5          6           0        3.964987    0.129306    0.273008
      6          6           0        3.046083    0.349828    1.301307
      7          6           0        1.675560    0.303617    1.042287
      8          6           0       -1.226573   -1.631553    0.104803
      9          6           0       -0.870276   -1.808147    1.591052
     10          6           0       -2.754872   -1.721871   -0.074210
     11          6           0       -0.577122   -2.786881   -0.690679
     12          6           0       -1.423543    1.540928   -0.042329
     13          6           0       -0.491567    2.720169   -0.394697
     14          6           0       -2.741856    1.733852   -0.827193
     15          6           0       -1.736545    1.577246    1.463569
     16          1           0        1.778689   -0.355020   -2.284072
     17          1           0        4.208324   -0.301154   -1.826009
     18          1           0        5.032054    0.163452    0.476953
     19          1           0        3.396545    0.555835    2.309702
     20          1           0        0.985743    0.471040    1.862024
     21          1           0       -1.296600   -1.024519    2.223233
     22          1           0        0.212184   -1.824115    1.748033
     23          1           0       -1.266717   -2.768905    1.949603
     24          1           0       -3.288481   -0.991576    0.542894
     25          1           0       -3.102746   -2.718920    0.228626
     26          1           0       -3.052169   -1.569874   -1.118244
     27          1           0        0.515999   -2.762753   -0.622016
     28          1           0       -0.851138   -2.751225   -1.750693
     29          1           0       -0.914905   -3.750472   -0.285265
     30          1           0       -0.226560    2.722608   -1.458700
     31          1           0        0.437417    2.698880    0.182327
     32          1           0       -1.003147    3.667726   -0.177784
     33          1           0       -2.562352    1.765344   -1.907007
     34          1           0       -3.210822    2.683110   -0.533600
     35          1           0       -3.465120    0.936472   -0.631090
     36          1           0       -0.841321    1.467094    2.082461
     37          1           0       -2.451778    0.802537    1.756282
     38          1           0       -2.188004    2.546534    1.719700
 ---------------------------------------------------------------------

 SCF Done:  E(RB3LYP) =  -888.691179143     A.U. after    1 cycles

 Excitation energies and oscillator strengths:

 Excited State   1:      Singlet-A      4.4036 eV  281.55 nm  f=0.0135  <S**2>=0.000
      61 -> 62         0.70213
 This state for optimization and/or second-order correction.
 Total Energy, E(TD-HF/TD-DFT) =  -888.529351268
 Copying the excited state density for this state as the 1-particle RhoCI density.

 Excited State   2:      Singlet-A      4.8312 eV  256.63 nm  f=0.0008  <S**2>=0.000
      61 -> 63         0.70165

 Excited State   3:      Singlet-A      5.3397 eV  232.19 nm  f=0.0067  <S**2>=0.000
      59 -> 62         0.50754
      59 -> 63        -0.11213
      60 -> 62        -0.15856
      60 -> 63        -0.44207

 Excited State   4:      Singlet-A      5.8659 eV  211.37 nm  f=0.1022  <S**2>=0.000
      58 -> 62        -0.10423
      59 -> 62         0.14200
      59 -> 63         0.26309
      60 -> 62         0.61426
      60 -> 63        -0.11732

 Excited State   5:      Singlet-A      6.3076 eV  196.56 nm  f=0.0432  <S**2>=0.000
      58 -> 62         0.27047
      61 -> 64         0.63206

 Excited State   6:      Singlet-A      6.5606 eV  188.98 nm  f=0.2373  <S**2>=0.000
      58 -> 62         0.49207
      59 -> 63         0.40561
      60 -> 62        -0.13056
      61 -> 64        -0.24971

 Excited State   7:      Singlet-A      6.5971 eV  187.94 nm  f=0.0058  <S**2>=0.000
      57 -> 62         0.67549
      61 -> 65        -0.11132
      61 -> 66         0.10985

 Excited State   8:      Singlet-A      6.6641 eV  186.05 nm  f=0.1671  <S**2>=0.000
      58 -> 63        -0.37986
      59 -> 62         0.34173
      60 -> 63         0.45298
      61 -> 65        -0.10005

 Excited State   9:      Singlet-A      6.8331 eV  181.45 nm  f=0.0291  <S**2>=0.000
      61 -> 65         0.68190

 Excited State  10:      Singlet-A      6.9319 eV  178.86 nm  f=0.0007  <S**2>=0.000
      57 -> 63         0.69100

 The electronic state is 1-A.
 Alpha  occ. eigenvalues --  -77.06427 -10.20143 -10.20065 -10.19168 -10.19156
 Alpha  occ. eigenvalues --  -10.19090 -10.19032 -10.18924 -10.18833 -10.17543
 Alpha  occ. eigenvalues --  -10.17443 -10.17067 -10.17039 -10.16987 -10.16958
 Alpha  occ. eigenvalues --   -6.53164  -4.69444  -4.69391  -4.68904  -0.84993
 Alpha  occ. eigenvalues --   -0.81007  -0.79554  -0.74478  -0.74235  -0.68517
 Alpha  occ. eigenvalues --   -0.68250  -0.67668  -0.67618  -0.62954  -0.60039
 Alpha  occ. eigenvalues --   -0.58026  -0.54147  -0.52351  -0.49282  -0.45674
 Alpha  occ. eigenvalues --   -0.45351  -0.44585  -0.44114  -0.43268  -0.42900
 Alpha  occ. eigenvalues --   -0.42275  -0.41977  -0.41325  -0.39197  -0.38391
 Alpha  occ. eigenvalues --   -0.38060  -0.37452  -0.37200  -0.36385  -0.36064
 Alpha  occ. eigenvalues --   -0.35887  -0.34184  -0.33590  -0.33031  -0.32466
 Alpha  occ. eigenvalues --   -0.32172  -0.29458  -0.28208  -0.24887  -0.24490
 Alpha  occ. eigenvalues --   -0.20816
 Alpha virt. eigenvalues --   -0.01361  -0.00069   0.05871   0.07269   0.08165
 Alpha virt. eigenvalues --    0.08848   0.11424   0.11661   0.12487   0.13864
 Alpha virt. eigenvalues --    0.14296   0.14626   0.15027   0.15712   0.16215

 Mulliken charges:
               1
     1  P    0.600659
     2  C   -0.161301
     3  C   -0.183816
     4  C   -0.138976
     5  C   -0.201305
     6  C   -0.107767
     7  C   -0.225491
     8  C   -0.092314
     9  C   -0.459040
    10  C   -0.461143
    11  C   -0.467439
    12  C   -0.104969
    13  C   -0.453020
    14  C   -0.459214
    15  C   -0.464206
    16  H    0.083985
    17  H    0.088179
    18  H    0.080832
    19  H    0.096550
    20  H    0.081228
    21  H    0.151314
    22  H    0.203201
    23  H    0.157072
    24  H    0.154900
    25  H    0.153806
    26  H    0.150815
    27  H    0.199958
    28  H    0.146545
    29  H    0.151391
    30  H    0.157951
    31  H    0.203550
    32  H    0.144103
    33  H    0.154419
    34  H    0.152787
    35  H    0.155581
    36  H    0.188355
    37  H    0.156529
    38  H    0.166291
 Sum of Mulliken charges =  -0.00000

 Dipole moment (field-independent basis, Debye):
    X=             -7.6268    Y=             -0.1821    Z=             -0.3087  Tot=              7.6352
 Quadrupole moment (field-independent basis, Debye-Ang):
   XX=           -113.7406   YY=            -97.8246   ZZ=            -97.8443
   XY=             -1.1959   XZ=             -0.0894   YZ=              0.6574

 Summary of Natural Population Analysis:

                                       Natural Population
                Natural  -----------------------------------------------
    Atom  No    Charge         Core      Valence    Rydberg      Total
 -----------------------------------------------------------------------
      P    1    1.40308      9.99741     3.55779    0.04171    13.59692
      C    2   -0.59310      1.99883     4.57200    0.02226     6.59310
      C    3   -0.23933      1.99904     4.22429    0.01599     6.23933
      C    4   -0.27970      1.99910     4.26425    0.01636     6.27970
      C    5   -0.36179      1.99910     4.34456    0.01813     6.36179
      C    6   -0.21202      1.99907     4.19849    0.01445     6.21202
      C    7   -0.34672      1.99900     4.32665    0.02107     6.34672
      C    8   -0.35290      1.99911     4.33474    0.01904     6.35290
      C    9   -0.68087      1.99933     4.66922    0.01233     6.68087
      C   10   -0.68439      1.99937     4.67400    0.01102     6.68439
      C   11   -0.69160      1.99937     4.68022    0.01200     6.69160
      C   12   -0.34921      1.99911     4.33261    0.01749     6.34921
      C   13   -0.68470      1.99937     4.67321    0.01212     6.68470
      C   14   -0.68328      1.99938     4.67269    0.01121     6.68328
      C   15   -0.67680      1.99933     4.66543    0.01204     6.67680
      H   16    0.20603      0.00000     0.79327    0.00069     0.79397
      H   17    0.21824      0.00000     0.78090    0.00085     0.78176
      H   18    0.21368      0.00000     0.78559    0.00072     0.78632
      H   19    0.22248      0.00000     0.77666    0.00085     0.77752
      H   20    0.20302      0.00000     0.79610    0.00088     0.79698
      H   21    0.23342      0.00000     0.76566    0.00092     0.76658
      H   22    0.26864      0.00000     0.73021    0.00115     0.73136
      H   23    0.24514      0.00000     0.75361    0.00125     0.75486
      H   24    0.22897      0.00000     0.77012    0.00090     0.77103
      H   25    0.24064      0.00000     0.75764    0.00172     0.75936
      H   26    0.23262      0.00000     0.76659    0.00078     0.76738
      H   27    0.26489      0.00000     0.73410    0.00101     0.73511
      H   28    0.23070      0.00000     0.76847    0.00083     0.76930
      H   29    0.24028      0.00000     0.75859    0.00113     0.75972
      H   30    0.23891      0.00000     0.76033    0.00076     0.76109
      H   31    0.26814      0.00000     0.73064    0.00122     0.73186
      H   32    0.23542      0.00000     0.76331    0.00127     0.76458
      H   33    0.23532      0.00000     0.76380    0.00088     0.76468
      H   34    0.23899      0.00000     0.75941    0.00159     0.76101
      H   35    0.23365      0.00000     0.76543    0.00091     0.76635
      H   36    0.25114      0.00000     0.74807    0.00079     0.74886
      H   37    0.23150      0.00000     0.76759    0.00091     0.76850
      H   38    0.25147      0.00000     0.74737    0.00115     0.74853
 =======================================================================
   * Total *   -0.00000     37.98591    83.73365    0.28044   122.00000

 Normal termination of Gaussian 16 at Wed Feb 27 02:04:42 2019.
