 Gaussian 16, Revision A.03,

 ---------------------------------
 # opt=CalcFc B3LYP/6-31G* scf=xqc
 ---------------------------------

 -------------------
 Title Card Required
 -------------------
 Symbolic Z-matrix:
 Charge =  0 Multiplicity = 1

 SCF Done:  E(RB3LYP) =  -888.691179157     A.U. after   14 cycles
 Optimization completed.
    -- Stationary point found.
 Normal termination of Gaussian 16 at Thu Mar  7 11:53:36 2019.

 ----------------------------------------------------------------------
 # freq B3LYP/6-31G* volume NMR pop=NPA density=current Geom=AllCheck G
 uess=Read
 ----------------------------------------------------------------------

 Structure from the checkpoint file:  "direct_arylation_ligand_64_conf32.chk"
 -------------------
 Title Card Required
 -------------------
 Charge =  0 Multiplicity = 1

 SCF Done:  E(RB3LYP) =  -888.691179157     A.U. after    1 cycles

      1  P    Isotropic =   318.9524   Anisotropy =    62.1800

      2  C    Isotropic =    55.7845   Anisotropy =   180.3754

      3  C    Isotropic =    56.6360   Anisotropy =   159.0120

      4  C    Isotropic =    68.8097   Anisotropy =   163.7813

      5  C    Isotropic =    67.3891   Anisotropy =   168.8569

      6  C    Isotropic =    69.6404   Anisotropy =   162.3564

      7  C    Isotropic =    61.9138   Anisotropy =   165.2461

      8  C    Isotropic =   151.1414   Anisotropy =    17.6321

      9  C    Isotropic =   163.3738   Anisotropy =    30.1725

     10  C    Isotropic =   159.9192   Anisotropy =    33.5614

     11  C    Isotropic =   158.3351   Anisotropy =    41.0958

     12  C    Isotropic =   151.5978   Anisotropy =    19.3964

     13  C    Isotropic =   159.0330   Anisotropy =    33.6021

     14  C    Isotropic =   156.7591   Anisotropy =    41.0912

     15  C    Isotropic =   161.5535   Anisotropy =    29.3598

     16  H    Isotropic =    24.5663   Anisotropy =     9.1405

     17  H    Isotropic =    24.9512   Anisotropy =     4.7749

     18  H    Isotropic =    24.9544   Anisotropy =     3.8512

     19  H    Isotropic =    24.9645   Anisotropy =     5.6904

     20  H    Isotropic =    24.3778   Anisotropy =     9.3278

     21  H    Isotropic =    30.4748   Anisotropy =     6.1997

     22  H    Isotropic =    30.8044   Anisotropy =     6.5553

     23  H    Isotropic =    31.3403   Anisotropy =     9.3477

     24  H    Isotropic =    30.6151   Anisotropy =     6.4099

     25  H    Isotropic =    31.0430   Anisotropy =     9.1291

     26  H    Isotropic =    30.6701   Anisotropy =     7.5196

     27  H    Isotropic =    31.3258   Anisotropy =     5.9531

     28  H    Isotropic =    30.8765   Anisotropy =     8.6536

     29  H    Isotropic =    31.5761   Anisotropy =     9.4757

     30  H    Isotropic =    31.1781   Anisotropy =     7.6635

     31  H    Isotropic =    31.2206   Anisotropy =     5.9288

     32  H    Isotropic =    31.5402   Anisotropy =     9.2446

     33  H    Isotropic =    30.6587   Anisotropy =     8.1886

     34  H    Isotropic =    31.2440   Anisotropy =     9.2651

     35  H    Isotropic =    30.5727   Anisotropy =     6.2193

     36  H    Isotropic =    30.3292   Anisotropy =     6.9959

     37  H    Isotropic =    30.3683   Anisotropy =     5.7205

     38  H    Isotropic =    31.0213   Anisotropy =     9.1674

  Exact polarizability: 207.016  -0.377 149.769   0.535  -5.811 150.144
 Approx polarizability: 292.875  -0.580 210.301   2.273 -14.768 256.833

                      1                      2                      3
                      A                      A                      A
 Frequencies --     38.6213                62.8791                69.2181
 Red. masses --      3.6472                 2.7750                 3.1941
 Frc consts  --      0.0032                 0.0065                 0.0090
 IR Inten    --      0.0409                 0.0373                 0.0260

                      4                      5                      6
                      A                      A                      A
 Frequencies --     90.3111               132.3061               159.5609
 Red. masses --      3.2702                 4.0126                 3.4991
 Frc consts  --      0.0157                 0.0414                 0.0525
 IR Inten    --      0.0387                 0.0403                 0.1295

                      7                      8                      9
                      A                      A                      A
 Frequencies --    223.4072               227.1205               234.1180
 Red. masses --      2.7409                 1.3489                 1.3638
 Frc consts  --      0.0806                 0.0410                 0.0440
 IR Inten    --      0.5889                 0.0131                 0.0983

                     10                     11                     12
                      A                      A                      A
 Frequencies --    241.6659               251.3494               255.6354
 Red. masses --      2.2110                 1.4871                 2.3880
 Frc consts  --      0.0761                 0.0554                 0.0919
 IR Inten    --      0.1566                 0.2270                 0.2115

                     13                     14                     15
                      A                      A                      A
 Frequencies --    261.5542               268.5405               296.8452
 Red. masses --      1.6800                 2.3504                 1.1729
 Frc consts  --      0.0677                 0.0999                 0.0609
 IR Inten    --      0.2074                 0.3824                 0.2486

                     16                     17                     18
                      A                      A                      A
 Frequencies --    300.0598               304.2539               310.5015
 Red. masses --      1.2373                 1.3683                 1.1696
 Frc consts  --      0.0656                 0.0746                 0.0664
 IR Inten    --      0.3363                 0.0886                 0.1105

                     19                     20                     21
                      A                      A                      A
 Frequencies --    364.2379               379.4519               390.0658
 Red. masses --      2.4660                 2.6586                 2.5116
 Frc consts  --      0.1928                 0.2255                 0.2252
 IR Inten    --      0.1163                 0.8380                 0.4905

                     22                     23                     24
                      A                      A                      A
 Frequencies --    396.5735               410.0560               420.3475
 Red. masses --      2.2933                 2.8612                 2.9606
 Frc consts  --      0.2125                 0.2835                 0.3082
 IR Inten    --      0.1229                 0.8276                 0.8754

                     25                     26                     27
                      A                      A                      A
 Frequencies --    463.8242               484.5995               503.2053
 Red. masses --      3.2182                 5.8411                 3.4852
 Frc consts  --      0.4079                 0.8082                 0.5200
 IR Inten    --      5.9687                 9.6709                 8.7533

                     28                     29                     30
                      A                      A                      A
 Frequencies --    558.8277               586.8583               634.1922
 Red. masses --      3.1544                 3.7578                 6.4350
 Frc consts  --      0.5804                 0.7625                 1.5249
 IR Inten    --      3.0247                11.2177                 0.0639

                     31                     32                     33
                      A                      A                      A
 Frequencies --    701.2401               716.1918               762.6626
 Red. masses --      6.6808                 2.0367                 1.6818
 Frc consts  --      1.9356                 0.6155                 0.5763
 IR Inten    --      2.5568                24.9094                18.8086

                     34                     35                     36
                      A                      A                      A
 Frequencies --    813.9298               814.9904               867.6909
 Red. masses --      2.9406                 2.9191                 1.2431
 Frc consts  --      1.1478                 1.1424                 0.5514
 IR Inten    --      6.8554                 6.8852                 0.0720

                     37                     38                     39
                      A                      A                      A
 Frequencies --    936.7377               943.4089               945.3932
 Red. masses --      1.3549                 1.8268                 1.8161
 Frc consts  --      0.7005                 0.9580                 0.9563
 IR Inten    --      0.4372                 1.8589                 0.8712

                     40                     41                     42
                      A                      A                      A
 Frequencies --    950.7454               953.6870               974.6337
 Red. masses --      1.7357                 1.7413                 1.2164
 Frc consts  --      0.9244                 0.9331                 0.6808
 IR Inten    --      0.6781                 1.9846                 0.0769

                     43                     44                     45
                      A                      A                      A
 Frequencies --    977.5474               979.4366              1001.5656
 Red. masses --      1.2012                 1.3354                 1.2525
 Frc consts  --      0.6763                 0.7547                 0.7403
 IR Inten    --      0.0135                 0.1239                 0.0789

                     46                     47                     48
                      A                      A                      A
 Frequencies --   1016.5788              1041.2724              1050.2672
 Red. masses --      6.2128                 1.3718                 1.3786
 Frc consts  --      3.7829                 0.8763                 0.8960
 IR Inten    --      2.8943                 0.7399                 1.7063

                     49                     50                     51
                      A                      A                      A
 Frequencies --   1050.8381              1052.3235              1056.8401
 Red. masses --      1.4112                 3.0244                 1.4362
 Frc consts  --      0.9181                 1.9732                 0.9451
 IR Inten    --      3.2498                 0.6009                 2.4614

                     52                     53                     54
                      A                      A                      A
 Frequencies --   1105.4877              1112.7239              1193.7470
 Red. masses --      1.8324                 2.2088                 1.0977
 Frc consts  --      1.3194                 1.6113                 0.9217
 IR Inten    --      2.3451                11.6863                 0.0674

                     55                     56                     57
                      A                      A                      A
 Frequencies --   1211.1745              1216.4429              1221.4386
 Red. masses --      2.0019                 1.8269                 1.2192
 Frc consts  --      1.7302                 1.5927                 1.0717
 IR Inten    --     43.7816                20.1517                 0.0911

                     58                     59                     60
                      A                      A                      A
 Frequencies --   1225.2236              1231.9821              1241.1011
 Red. masses --      2.4039                 2.4459                 2.5823
 Frc consts  --      2.1262                 2.1872                 2.3435
 IR Inten    --      0.4719                 1.0004                 0.3033

                     61                     62                     63
                      A                      A                      A
 Frequencies --   1245.2516              1321.5699              1362.6962
 Red. masses --      2.6377                 3.8351                 1.5991
 Frc consts  --      2.4098                 3.9465                 1.7496
 IR Inten    --      1.7700                 1.9937                 1.3079

                     64                     65                     66
                      A                      A                      A
 Frequencies --   1423.5329              1426.0459              1428.5416
 Red. masses --      1.2110                 1.2134                 1.2099
 Frc consts  --      1.4459                 1.4538                 1.4548
 IR Inten    --      1.7898                 0.0116                 7.4748

                     67                     68                     69
                      A                      A                      A
 Frequencies --   1429.2550              1454.5122              1460.6510
 Red. masses --      1.2129                 1.2095                 1.2122
 Frc consts  --      1.4598                 1.5077                 1.5238
 IR Inten    --      6.7002                 7.0863                 1.6158

                     70                     71                     72
                      A                      A                      A
 Frequencies --   1478.3011              1508.7652              1509.4961
 Red. masses --      2.0707                 1.0501                 1.0514
 Frc consts  --      2.6662                 1.4084                 1.4115
 IR Inten    --      8.4020                 0.3369                 0.1571

                     73                     74                     75
                      A                      A                      A
 Frequencies --   1515.3897              1517.6992              1519.8284
 Red. masses --      1.0471                 1.0488                 1.0529
 Frc consts  --      1.4167                 1.4233                 1.4329
 IR Inten    --      0.2955                 1.2894                 0.6912

                     76                     77                     78
                      A                      A                      A
 Frequencies --   1521.2039              1529.1066              1531.8213
 Red. masses --      1.0472                 1.5637                 1.1077
 Frc consts  --      1.4277                 2.1542                 1.5314
 IR Inten    --      0.9709                 2.6636                 5.6490

                     79                     80                     81
                      A                      A                      A
 Frequencies --   1533.7609              1536.7575              1542.3365
 Red. masses --      1.0911                 1.0882                 1.0574
 Frc consts  --      1.5123                 1.5142                 1.4819
 IR Inten    --      6.1018                 1.3321                 4.3736

                     82                     83                     84
                      A                      A                      A
 Frequencies --   1546.9693              1550.0527              1628.2644
 Red. masses --      1.0509                 1.0512                 5.0101
 Frc consts  --      1.4818                 1.4881                 7.8261
 IR Inten    --     11.9974                 9.0107                 0.7880

                     85                     86                     87
                      A                      A                      A
 Frequencies --   1645.8891              3030.7863              3031.3201
 Red. masses --      5.3117                 1.0468                 1.0469
 Frc consts  --      8.4778                 5.6652                 5.6678
 IR Inten    --      0.4509                 6.2130                32.7446

                     88                     89                     90
                      A                      A                      A
 Frequencies --   3032.5439              3034.0653              3038.9037
 Red. masses --      1.0389                 1.0412                 1.0419
 Frc consts  --      5.6292                 5.6474                 5.6691
 IR Inten    --     16.0951                17.0399               116.3334

                     91                     92                     93
                      A                      A                      A
 Frequencies --   3041.6676              3094.6736              3096.8330
 Red. masses --      1.0430                 1.0976                 1.0978
 Frc consts  --      5.6856                 6.1932                 6.2033
 IR Inten    --     52.9154                20.1681                17.8898

                     94                     95                     96
                      A                      A                      A
 Frequencies --   3099.6111              3101.7811              3106.8979
 Red. masses --      1.0936                 1.0896                 1.0923
 Frc consts  --      6.1903                 6.1766                 6.2124
 IR Inten    --      9.3802                53.8975                52.7832

                     97                     98                     99
                      A                      A                      A
 Frequencies --   3109.8317              3120.6780              3123.3371
 Red. masses --      1.0860                 1.1021                 1.1024
 Frc consts  --      6.1882                 6.3237                 6.3362
 IR Inten    --     17.5983                13.0704                27.9724

                    100                    101                    102
                      A                      A                      A
 Frequencies --   3132.5555              3134.2183              3138.4093
 Red. masses --      1.1007                 1.1008                 1.1012
 Frc consts  --      6.3636                 6.3709                 6.3907
 IR Inten    --      9.2062                19.8883                33.3014

                    103                    104                    105
                      A                      A                      A
 Frequencies --   3146.6494              3177.6414              3185.3118
 Red. masses --      1.1014                 1.0848                 1.0882
 Frc consts  --      6.4251                 6.4536                 6.5052
 IR Inten    --     30.1026                 0.7970                 5.7389

                    106                    107                    108
                      A                      A                      A
 Frequencies --   3195.3276              3205.6952              3222.8745
 Red. masses --      1.0922                 1.0967                 1.0914
 Frc consts  --      6.5705                 6.6405                 6.6792
 IR Inten    --     22.0445                35.5520                11.4164

 - Thermochemistry -
 -------------------
 Temperature   298.150 Kelvin.  Pressure   1.00000 Atm.
 Atom     1 has atomic number 15 and mass  30.97376

 Molecular mass:   222.15374 amu.
 Principal axes and moments of inertia in atomic units:
                           1         2         3
     Eigenvalues --  2494.188164229.044205226.55559
           X            0.99998  -0.00351   0.00454
           Y            0.00351   0.99999  -0.00081
           Z           -0.00454   0.00083   0.99999
 This molecule is an asymmetric top.
 Rotational symmetry number  1.
 Warning -- assumption of classical behavior for rotation
           may cause significant error
 Rotational temperatures (Kelvin)      0.03473     0.02048     0.01657
 Rotational constants (GHZ):           0.72358     0.42675     0.34530
 Zero-point vibrational energy     887968.9 (Joules/Mol)
                                  212.22965 (Kcal/Mol)
 Warning -- explicit consideration of  29 degrees of freedom as
           vibrations may cause significant error
 Vibrational temperatures:     55.57    90.47    99.59   129.94   190.36
          (Kelvin)            229.57   321.43   326.78   336.84   347.70
                              361.64   367.80   376.32   386.37   427.09
                              431.72   437.75   446.74   524.06   545.95
                              561.22   570.58   589.98   604.79   667.34
                              697.23   724.00   804.03   844.36   912.46
                             1008.93  1030.44  1097.30  1171.06  1172.59
                             1248.41  1347.76  1357.35  1360.21  1367.91
                             1372.14  1402.28  1406.47  1409.19  1441.03
                             1462.63  1498.16  1511.10  1511.92  1514.06
                             1520.56  1590.55  1600.96  1717.54  1742.61
                             1750.19  1757.38  1762.82  1772.55  1785.67
                             1791.64  1901.44  1960.62  2048.15  2051.76
                             2055.35  2056.38  2092.72  2101.55  2126.95
                             2170.78  2171.83  2180.31  2183.63  2186.69
                             2188.67  2200.04  2203.95  2206.74  2211.05
                             2219.08  2225.74  2230.18  2342.71  2368.07
                             4360.63  4361.39  4363.15  4365.34  4372.30
                             4376.28  4452.55  4455.65  4459.65  4462.77
                             4470.13  4474.35  4489.96  4493.79  4507.05
                             4509.44  4515.47  4527.33  4571.92  4582.95
                             4597.36  4612.28  4637.00

 Zero-point correction=                           0.338209 (Hartree/Particle)
 Thermal correction to Energy=                    0.355656
 Thermal correction to Enthalpy=                  0.356601
 Thermal correction to Gibbs Free Energy=         0.294739
 Sum of electronic and zero-point Energies=           -888.352970
 Sum of electronic and thermal Energies=              -888.335523
 Sum of electronic and thermal Enthalpies=            -888.334579
 Sum of electronic and thermal Free Energies=         -888.396440

                     E (Thermal)             CV                S
                      KCal/Mol        Cal/Mol-Kelvin    Cal/Mol-Kelvin
 Total                  223.178             68.240            130.198
 Electronic               0.000              0.000              0.000
 Translational            0.889              2.981             42.097
 Rotational               0.889              2.981             32.378
 Vibrational            221.400             62.279             55.723
 Vibration     1          0.594              1.981              5.329
 Vibration     2          0.597              1.972              4.365
 Vibration     3          0.598              1.969              4.175
 Vibration     4          0.602              1.956              3.653
 Vibration     5          0.612              1.921              2.912
 Vibration     6          0.621              1.892              2.555
 Vibration     7          0.649              1.805              1.931
 Vibration     8          0.651              1.800              1.902
 Vibration     9          0.654              1.789              1.847
 Vibration    10          0.658              1.777              1.791
 Vibration    11          0.663              1.760              1.721
 Vibration    12          0.666              1.753              1.691
 Vibration    13          0.669              1.743              1.651
 Vibration    14          0.673              1.731              1.606
 Vibration    15          0.690              1.680              1.435
 Vibration    16          0.693              1.674              1.417
 Vibration    17          0.695              1.666              1.393
 Vibration    18          0.699              1.654              1.360
 Vibration    19          0.738              1.546              1.104
 Vibration    20          0.749              1.514              1.041
 Vibration    21          0.758              1.491              1.000
 Vibration    22          0.763              1.477              0.975
 Vibration    23          0.774              1.448              0.926
 Vibration    24          0.783              1.426              0.891
 Vibration    25          0.821              1.330              0.755
 Vibration    26          0.841              1.284              0.698
 Vibration    27          0.859              1.243              0.650
 Vibration    28          0.914              1.120              0.526
 Vibration    29          0.944              1.060              0.473

 Optimization completed.
    -- Stationary point found.
 Normal termination of Gaussian 16 at Thu Mar  7 11:59:49 2019.
 Gaussian 16:  ES64L-G16RevA.03 25-Dec-2016

 ----------------------------------------------------------------------
 # TD(NStates=10, Root=1) B3LYP/6-31G* volume pop=NPA density=current G
 eom=AllCheck Guess=Read
 ----------------------------------------------------------------------

 Structure from the checkpoint file:  "direct_arylation_ligand_64_conf33.chk"
 -------------------
 Title Card Required
 -------------------
 Charge =  0 Multiplicity = 1

                         Standard orientation:
 ---------------------------------------------------------------------
 Center     Atomic      Atomic             Coordinates (Angstroms)
 Number     Number       Type             X           Y           Z
 ---------------------------------------------------------------------
      1         15           0        0.596873    0.038532   -0.781344
      2          6           0       -1.186704   -0.044732   -0.252075
      3          6           0       -2.130282    0.165331   -1.273218
      4          6           0       -3.502841    0.130663   -1.016566
      5          6           0       -3.964784   -0.129250    0.273134
      6          6           0       -3.045813   -0.348970    1.301538
      7          6           0       -1.675301   -0.302988    1.042376
      8          6           0        1.226386    1.631669    0.104522
      9          6           0        0.870298    1.808590    1.590772
     10          6           0        2.754671    1.722123   -0.074604
     11          6           0        0.576576    2.786670   -0.691159
     12          6           0        1.423632   -1.540947   -0.042122
     13          6           0        0.491626   -2.720203   -0.394412
     14          6           0        2.742097   -1.733940   -0.826649
     15          6           0        1.736128   -1.577039    1.463864
     16          1           0       -1.778635    0.353546   -2.284394
     17          1           0       -4.208300    0.299738   -1.826156
     18          1           0       -5.031833   -0.163224    0.477188
     19          1           0       -3.396214   -0.554146    2.310123
     20          1           0       -0.985383   -0.469700    1.862188
     21          1           0        1.297115    1.025372    2.223129
     22          1           0       -0.212137    1.824150    1.747955
     23          1           0        1.266374    2.769655    1.948896
     24          1           0        3.288329    0.991908    0.542563
     25          1           0        3.102516    2.719207    0.228149
     26          1           0        3.051940    1.570032   -1.118633
     27          1           0       -0.516552    2.762121   -0.622609
     28          1           0        0.850690    2.750963   -1.751148
     29          1           0        0.913960    3.750442   -0.285852
     30          1           0        0.226284   -2.722522   -1.458332
     31          1           0       -0.437187   -2.698991    0.182902
     32          1           0        1.003294   -3.667773   -0.177767
     33          1           0        2.562770   -1.765985   -1.906478
     34          1           0        3.211236   -2.682949   -0.532521
     35          1           0        3.465139   -0.936287   -0.630822
     36          1           0        0.840632   -1.466629    2.082342
     37          1           0        2.451415   -0.802408    1.756686
     38          1           0        2.187312   -2.546364    1.720346
 ---------------------------------------------------------------------

 SCF Done:  E(RB3LYP) =  -888.691179157     A.U. after    1 cycles

 Excitation energies and oscillator strengths:

 Excited State   1:      Singlet-A      4.4032 eV  281.58 nm  f=0.0134  <S**2>=0.000
      61 -> 62         0.70214
 This state for optimization and/or second-order correction.
 Total Energy, E(TD-HF/TD-DFT) =  -888.529363535
 Copying the excited state density for this state as the 1-particle RhoCI density.

 Excited State   2:      Singlet-A      4.8308 eV  256.66 nm  f=0.0008  <S**2>=0.000
      61 -> 63         0.70167

 Excited State   3:      Singlet-A      5.3397 eV  232.19 nm  f=0.0067  <S**2>=0.000
      59 -> 62         0.50747
      59 -> 63        -0.11235
      60 -> 62        -0.15879
      60 -> 63        -0.44204

 Excited State   4:      Singlet-A      5.8659 eV  211.36 nm  f=0.1021  <S**2>=0.000
      58 -> 62        -0.10424
      59 -> 62         0.14225
      59 -> 63         0.26310
      60 -> 62         0.61417
      60 -> 63        -0.11749

 Excited State   5:      Singlet-A      6.3074 eV  196.57 nm  f=0.0432  <S**2>=0.000
      58 -> 62        -0.27023
      61 -> 64         0.63217

 Excited State   6:      Singlet-A      6.5606 eV  188.98 nm  f=0.2372  <S**2>=0.000
      58 -> 62         0.49218
      59 -> 63         0.40562
      60 -> 62        -0.13063
      61 -> 64         0.24949

 Excited State   7:      Singlet-A      6.5971 eV  187.94 nm  f=0.0058  <S**2>=0.000
      57 -> 62         0.67552
      61 -> 65        -0.11123
      61 -> 66        -0.10986

 Excited State   8:      Singlet-A      6.6640 eV  186.05 nm  f=0.1671  <S**2>=0.000
      58 -> 63        -0.37997
      59 -> 62         0.34172
      60 -> 63         0.45291
      61 -> 65        -0.10026

 Excited State   9:      Singlet-A      6.8330 eV  181.45 nm  f=0.0292  <S**2>=0.000
      61 -> 65         0.68187

 Excited State  10:      Singlet-A      6.9317 eV  178.87 nm  f=0.0008  <S**2>=0.000
      57 -> 63         0.69100

 The electronic state is 1-A.
 Alpha  occ. eigenvalues --  -77.06425 -10.20142 -10.20065 -10.19168 -10.19156
 Alpha  occ. eigenvalues --  -10.19090 -10.19032 -10.18924 -10.18833 -10.17543
 Alpha  occ. eigenvalues --  -10.17443 -10.17067 -10.17039 -10.16987 -10.16959
 Alpha  occ. eigenvalues --   -6.53163  -4.69443  -4.69390  -4.68903  -0.84994
 Alpha  occ. eigenvalues --   -0.81008  -0.79554  -0.74478  -0.74236  -0.68516
 Alpha  occ. eigenvalues --   -0.68250  -0.67669  -0.67618  -0.62955  -0.60040
 Alpha  occ. eigenvalues --   -0.58026  -0.54147  -0.52352  -0.49282  -0.45674
 Alpha  occ. eigenvalues --   -0.45351  -0.44585  -0.44114  -0.43268  -0.42900
 Alpha  occ. eigenvalues --   -0.42276  -0.41977  -0.41325  -0.39197  -0.38391
 Alpha  occ. eigenvalues --   -0.38061  -0.37452  -0.37200  -0.36385  -0.36064
 Alpha  occ. eigenvalues --   -0.35887  -0.34184  -0.33590  -0.33031  -0.32466
 Alpha  occ. eigenvalues --   -0.32172  -0.29458  -0.28208  -0.24887  -0.24490
 Alpha  occ. eigenvalues --   -0.20815
 Alpha virt. eigenvalues --   -0.01360  -0.00070   0.05871   0.07270   0.08167
 Alpha virt. eigenvalues --    0.08849   0.11424   0.11661   0.12487   0.13864
 Alpha virt. eigenvalues --    0.14295   0.14626   0.15026   0.15713   0.16215

 Mulliken charges:
               1
     1  P    0.600664
     2  C   -0.161298
     3  C   -0.183815
     4  C   -0.138989
     5  C   -0.201305
     6  C   -0.107779
     7  C   -0.225501
     8  C   -0.092322
     9  C   -0.459040
    10  C   -0.461140
    11  C   -0.467454
    12  C   -0.104955
    13  C   -0.453023
    14  C   -0.459214
    15  C   -0.464206
    16  H    0.083984
    17  H    0.088174
    18  H    0.080826
    19  H    0.096545
    20  H    0.081239
    21  H    0.151308
    22  H    0.203199
    23  H    0.157073
    24  H    0.154899
    25  H    0.153807
    26  H    0.150813
    27  H    0.199990
    28  H    0.146544
    29  H    0.151397
    30  H    0.157968
    31  H    0.203545
    32  H    0.144103
    33  H    0.154421
    34  H    0.152790
    35  H    0.155580
    36  H    0.188364
    37  H    0.156513
    38  H    0.166294
 Sum of Mulliken charges =  -0.00000

 Dipole moment (field-independent basis, Debye):
    X=              7.6271    Y=              0.1830    Z=             -0.3089  Tot=              7.6355
 Quadrupole moment (field-independent basis, Debye-Ang):
   XX=           -113.7415   YY=            -97.8246   ZZ=            -97.8438
   XY=             -1.1973   XZ=              0.0890   YZ=             -0.6556

 Summary of Natural Population Analysis:

                                       Natural Population
                Natural  -----------------------------------------------
    Atom  No    Charge         Core      Valence    Rydberg      Total
 -----------------------------------------------------------------------
      P    1    1.40319      9.99741     3.55769    0.04171    13.59681
      C    2   -0.59315      1.99883     4.57205    0.02226     6.59315
      C    3   -0.23932      1.99904     4.22429    0.01599     6.23932
      C    4   -0.27971      1.99910     4.26426    0.01636     6.27971
      C    5   -0.36181      1.99910     4.34458    0.01813     6.36181
      C    6   -0.21201      1.99907     4.19848    0.01445     6.21201
      C    7   -0.34677      1.99900     4.32669    0.02108     6.34677
      C    8   -0.35290      1.99911     4.33474    0.01904     6.35290
      C    9   -0.68087      1.99933     4.66922    0.01233     6.68087
      C   10   -0.68439      1.99937     4.67401    0.01102     6.68439
      C   11   -0.69161      1.99937     4.68023    0.01200     6.69161
      C   12   -0.34923      1.99911     4.33263    0.01749     6.34923
      C   13   -0.68470      1.99937     4.67321    0.01212     6.68470
      C   14   -0.68328      1.99938     4.67269    0.01121     6.68328
      C   15   -0.67681      1.99933     4.66544    0.01204     6.67681
      H   16    0.20603      0.00000     0.79327    0.00069     0.79397
      H   17    0.21824      0.00000     0.78091    0.00085     0.78176
      H   18    0.21368      0.00000     0.78560    0.00072     0.78632
      H   19    0.22248      0.00000     0.77666    0.00085     0.77752
      H   20    0.20301      0.00000     0.79611    0.00088     0.79699
      H   21    0.23342      0.00000     0.76566    0.00092     0.76658
      H   22    0.26864      0.00000     0.73021    0.00115     0.73136
      H   23    0.24514      0.00000     0.75361    0.00125     0.75486
      H   24    0.22898      0.00000     0.77012    0.00090     0.77102
      H   25    0.24065      0.00000     0.75763    0.00172     0.75935
      H   26    0.23262      0.00000     0.76659    0.00078     0.76738
      H   27    0.26490      0.00000     0.73409    0.00101     0.73510
      H   28    0.23070      0.00000     0.76847    0.00083     0.76930
      H   29    0.24028      0.00000     0.75859    0.00113     0.75972
      H   30    0.23892      0.00000     0.76032    0.00076     0.76108
      H   31    0.26814      0.00000     0.73064    0.00122     0.73186
      H   32    0.23542      0.00000     0.76331    0.00127     0.76458
      H   33    0.23533      0.00000     0.76379    0.00088     0.76467
      H   34    0.23900      0.00000     0.75941    0.00159     0.76100
      H   35    0.23365      0.00000     0.76544    0.00091     0.76635
      H   36    0.25115      0.00000     0.74806    0.00079     0.74885
      H   37    0.23150      0.00000     0.76759    0.00091     0.76850
      H   38    0.25148      0.00000     0.74737    0.00115     0.74852
 =======================================================================
   * Total *   -0.00000     37.98591    83.73365    0.28044   122.00000

 Normal termination of Gaussian 16 at Thu Mar  7 12:06:58 2019.
