 Gaussian 16, Revision A.03,

 ---------------------------------
 # opt=CalcFc B3LYP/6-31G* scf=xqc
 ---------------------------------

 -------------------
 Title Card Required
 -------------------
 Symbolic Z-matrix:
 Charge =  0 Multiplicity = 1

 SCF Done:  E(RB3LYP) =  -888.644274705     A.U. after   14 cycles
 SCF Done:  E(RB3LYP) =  -888.664466393     A.U. after   13 cycles
 SCF Done:  E(RB3LYP) =  -888.671029082     A.U. after   12 cycles
 SCF Done:  E(RB3LYP) =  -888.671701841     A.U. after   12 cycles
 SCF Done:  E(RB3LYP) =  -888.683617958     A.U. after   14 cycles
 SCF Done:  E(RB3LYP) =  -888.676024297     A.U. after   13 cycles
 SCF Done:  E(RB3LYP) =  -888.684317989     A.U. after   12 cycles
 SCF Done:  E(RB3LYP) =  -888.687590273     A.U. after   12 cycles
 SCF Done:  E(RB3LYP) =  -888.688880853     A.U. after   12 cycles
 SCF Done:  E(RB3LYP) =  -888.686311569     A.U. after   13 cycles
 SCF Done:  E(RB3LYP) =  -888.690968111     A.U. after   11 cycles
 SCF Done:  E(RB3LYP) =  -888.691106967     A.U. after   11 cycles
 SCF Done:  E(RB3LYP) =  -888.691167516     A.U. after   11 cycles
 SCF Done:  E(RB3LYP) =  -888.691175178     A.U. after    8 cycles
 SCF Done:  E(RB3LYP) =  -888.691177921     A.U. after    9 cycles
 SCF Done:  E(RB3LYP) =  -888.691178461     A.U. after    9 cycles
 SCF Done:  E(RB3LYP) =  -888.691178782     A.U. after    8 cycles
 SCF Done:  E(RB3LYP) =  -888.691179145     A.U. after    7 cycles
 Optimization completed.
    -- Stationary point found.
 Normal termination of Gaussian 16 at Wed Feb 27 01:56:29 2019.

 ----------------------------------------------------------------------
 # freq B3LYP/6-31G* volume NMR pop=NPA density=current Geom=AllCheck G
 uess=Read
 ----------------------------------------------------------------------

 Structure from the checkpoint file:  "direct_arylation_ligand_64_conf12.chk"
 -------------------
 Title Card Required
 -------------------
 Charge =  0 Multiplicity = 1

 SCF Done:  E(RB3LYP) =  -888.691179145     A.U. after    1 cycles

      1  P    Isotropic =   318.9371   Anisotropy =    62.2090

      2  C    Isotropic =    55.7836   Anisotropy =   180.3752

      3  C    Isotropic =    56.6369   Anisotropy =   159.0134

      4  C    Isotropic =    68.8102   Anisotropy =   163.7806

      5  C    Isotropic =    67.3907   Anisotropy =   168.8551

      6  C    Isotropic =    69.6403   Anisotropy =   162.3565

      7  C    Isotropic =    61.9154   Anisotropy =   165.2450

      8  C    Isotropic =   151.5984   Anisotropy =    19.3973

      9  C    Isotropic =   161.5543   Anisotropy =    29.3623

     10  C    Isotropic =   156.7575   Anisotropy =    41.0957

     11  C    Isotropic =   159.0311   Anisotropy =    33.6093

     12  C    Isotropic =   151.1421   Anisotropy =    17.6295

     13  C    Isotropic =   158.3374   Anisotropy =    41.0927

     14  C    Isotropic =   159.9199   Anisotropy =    33.5643

     15  C    Isotropic =   163.3765   Anisotropy =    30.1737

     16  H    Isotropic =    24.5665   Anisotropy =     9.1410

     17  H    Isotropic =    24.9513   Anisotropy =     4.7750

     18  H    Isotropic =    24.9546   Anisotropy =     3.8510

     19  H    Isotropic =    24.9645   Anisotropy =     5.6902

     20  H    Isotropic =    24.3779   Anisotropy =     9.3285

     21  H    Isotropic =    30.3680   Anisotropy =     5.7207

     22  H    Isotropic =    30.3292   Anisotropy =     6.9974

     23  H    Isotropic =    31.0212   Anisotropy =     9.1675

     24  H    Isotropic =    30.5729   Anisotropy =     6.2204

     25  H    Isotropic =    31.2440   Anisotropy =     9.2646

     26  H    Isotropic =    30.6586   Anisotropy =     8.1879

     27  H    Isotropic =    31.2198   Anisotropy =     5.9304

     28  H    Isotropic =    31.1777   Anisotropy =     7.6638

     29  H    Isotropic =    31.5400   Anisotropy =     9.2441

     30  H    Isotropic =    30.8764   Anisotropy =     8.6531

     31  H    Isotropic =    31.3257   Anisotropy =     5.9541

     32  H    Isotropic =    31.5762   Anisotropy =     9.4759

     33  H    Isotropic =    30.6700   Anisotropy =     7.5193

     34  H    Isotropic =    31.0430   Anisotropy =     9.1293

     35  H    Isotropic =    30.6154   Anisotropy =     6.4109

     36  H    Isotropic =    30.8053   Anisotropy =     6.5539

     37  H    Isotropic =    30.4752   Anisotropy =     6.2003

     38  H    Isotropic =    31.3405   Anisotropy =     9.3484

  Exact polarizability: 207.016   0.379 149.780  -0.533  -5.830 150.134
 Approx polarizability: 292.875   0.584 210.325  -2.269 -14.817 256.809

                      1                      2                      3
                      A                      A                      A
 Frequencies --     38.5687                62.8604                69.1850
 Red. masses --      3.6465                 2.7748                 3.1932
 Frc consts  --      0.0032                 0.0065                 0.0090
 IR Inten    --      0.0410                 0.0373                 0.0259

                      4                      5                      6
                      A                      A                      A
 Frequencies --     90.2698               132.2896               159.5553
 Red. masses --      3.2713                 4.0123                 3.4992
 Frc consts  --      0.0157                 0.0414                 0.0525
 IR Inten    --      0.0389                 0.0403                 0.1295

                      7                      8                      9
                      A                      A                      A
 Frequencies --    223.3936               227.1005               234.0807
 Red. masses --      2.7391                 1.3483                 1.3638
 Frc consts  --      0.0805                 0.0410                 0.0440
 IR Inten    --      0.5886                 0.0131                 0.0984

                     10                     11                     12
                      A                      A                      A
 Frequencies --    241.6451               251.3153               255.6166
 Red. masses --      2.2110                 1.4859                 2.3901
 Frc consts  --      0.0761                 0.0553                 0.0920
 IR Inten    --      0.1570                 0.2274                 0.2103

                     13                     14                     15
                      A                      A                      A
 Frequencies --    261.5264               268.5368               296.8390
 Red. masses --      1.6796                 2.3512                 1.1722
 Frc consts  --      0.0677                 0.0999                 0.0609
 IR Inten    --      0.2079                 0.3822                 0.2497

                     16                     17                     18
                      A                      A                      A
 Frequencies --    300.0165               304.2333               310.4665
 Red. masses --      1.2382                 1.3686                 1.1703
 Frc consts  --      0.0657                 0.0746                 0.0665
 IR Inten    --      0.3347                 0.0878                 0.1112

                     19                     20                     21
                      A                      A                      A
 Frequencies --    364.2347               379.4376               390.0627
 Red. masses --      2.4660                 2.6583                 2.5115
 Frc consts  --      0.1928                 0.2255                 0.2251
 IR Inten    --      0.1161                 0.8370                 0.4906

                     22                     23                     24
                      A                      A                      A
 Frequencies --    396.5839               410.0558               420.3357
 Red. masses --      2.2932                 2.8617                 2.9605
 Frc consts  --      0.2125                 0.2835                 0.3082
 IR Inten    --      0.1226                 0.8264                 0.8783

                     25                     26                     27
                      A                      A                      A
 Frequencies --    463.8189               484.5899               503.2077
 Red. masses --      3.2184                 5.8390                 3.4857
 Frc consts  --      0.4079                 0.8079                 0.5200
 IR Inten    --      5.9720                 9.6628                 8.7560

                     28                     29                     30
                      A                      A                      A
 Frequencies --    558.8322               586.8706               634.1938
 Red. masses --      3.1544                 3.7580                 6.4351
 Frc consts  --      0.5804                 0.7626                 1.5249
 IR Inten    --      3.0254                11.2187                 0.0639

                     31                     32                     33
                      A                      A                      A
 Frequencies --    701.2348               716.1803               762.6603
 Red. masses --      6.6809                 2.0365                 1.6819
 Frc consts  --      1.9356                 0.6154                 0.5764
 IR Inten    --      2.5549                24.9112                18.8079

                     34                     35                     36
                      A                      A                      A
 Frequencies --    813.9225               815.0032               867.6783
 Red. masses --      2.9407                 2.9191                 1.2431
 Frc consts  --      1.1478                 1.1424                 0.5514
 IR Inten    --      6.8421                 6.9018                 0.0719

                     37                     38                     39
                      A                      A                      A
 Frequencies --    936.7229               943.4033               945.3887
 Red. masses --      1.3549                 1.8270                 1.8160
 Frc consts  --      0.7004                 0.9580                 0.9563
 IR Inten    --      0.4360                 1.8579                 0.8733

                     40                     41                     42
                      A                      A                      A
 Frequencies --    950.7477               953.6796               974.6330
 Red. masses --      1.7357                 1.7413                 1.2165
 Frc consts  --      0.9244                 0.9331                 0.6808
 IR Inten    --      0.6761                 1.9862                 0.0767

                     43                     44                     45
                      A                      A                      A
 Frequencies --    977.5395               979.4237              1001.5612
 Red. masses --      1.2012                 1.3353                 1.2525
 Frc consts  --      0.6763                 0.7547                 0.7403
 IR Inten    --      0.0135                 0.1242                 0.0787

                     46                     47                     48
                      A                      A                      A
 Frequencies --   1016.5810              1041.2695              1050.2656
 Red. masses --      6.2127                 1.3718                 1.3786
 Frc consts  --      3.7828                 0.8763                 0.8960
 IR Inten    --      2.8938                 0.7407                 1.7050

                     49                     50                     51
                      A                      A                      A
 Frequencies --   1050.8370              1052.3251              1056.8381
 Red. masses --      1.4108                 3.0254                 1.4363
 Frc consts  --      0.9179                 1.9740                 0.9452
 IR Inten    --      3.2512                 0.6027                 2.4597

                     52                     53                     54
                      A                      A                      A
 Frequencies --   1105.4833              1112.7243              1193.7474
 Red. masses --      1.8326                 2.2083                 1.0977
 Frc consts  --      1.3196                 1.6110                 0.9217
 IR Inten    --      2.3475                11.6776                 0.0674

                     55                     56                     57
                      A                      A                      A
 Frequencies --   1211.1759              1216.4428              1221.4393
 Red. masses --      2.0019                 1.8270                 1.2191
 Frc consts  --      1.7302                 1.5929                 1.0716
 IR Inten    --     43.7879                20.1481                 0.0913

                     58                     59                     60
                      A                      A                      A
 Frequencies --   1225.2135              1231.9819              1241.0931
 Red. masses --      2.4040                 2.4460                 2.5823
 Frc consts  --      2.1262                 2.1873                 2.3435
 IR Inten    --      0.4735                 1.0010                 0.3036

                     61                     62                     63
                      A                      A                      A
 Frequencies --   1245.2540              1321.5735              1362.6945
 Red. masses --      2.6377                 3.8345                 1.5993
 Frc consts  --      2.4098                 3.9458                 1.7497
 IR Inten    --      1.7704                 1.9946                 1.3071

                     64                     65                     66
                      A                      A                      A
 Frequencies --   1423.5329              1426.0460              1428.5423
 Red. masses --      1.2110                 1.2134                 1.2099
 Frc consts  --      1.4459                 1.4538                 1.4548
 IR Inten    --      1.7909                 0.0116                 7.4563

                     67                     68                     69
                      A                      A                      A
 Frequencies --   1429.2555              1454.5140              1460.6514
 Red. masses --      1.2129                 1.2095                 1.2122
 Frc consts  --      1.4598                 1.5077                 1.5238
 IR Inten    --      6.7190                 7.0864                 1.6167

                     70                     71                     72
                      A                      A                      A
 Frequencies --   1478.2992              1508.7652              1509.4937
 Red. masses --      2.0706                 1.0501                 1.0514
 Frc consts  --      2.6661                 1.4084                 1.4115
 IR Inten    --      8.4009                 0.3371                 0.1565

                     73                     74                     75
                      A                      A                      A
 Frequencies --   1515.3886              1517.7000              1519.8264
 Red. masses --      1.0471                 1.0488                 1.0529
 Frc consts  --      1.4167                 1.4233                 1.4330
 IR Inten    --      0.2966                 1.2880                 0.6926

                     76                     77                     78
                      A                      A                      A
 Frequencies --   1521.2016              1529.1051              1531.8233
 Red. masses --      1.0472                 1.5629                 1.1077
 Frc consts  --      1.4277                 2.1531                 1.5314
 IR Inten    --      0.9660                 2.6691                 5.6371

                     79                     80                     81
                      A                      A                      A
 Frequencies --   1533.7618              1536.7565              1542.3336
 Red. masses --      1.0915                 1.0883                 1.0574
 Frc consts  --      1.5128                 1.5143                 1.4819
 IR Inten    --      6.1078                 1.3381                 4.3750

                     82                     83                     84
                      A                      A                      A
 Frequencies --   1546.9715              1550.0485              1628.2694
 Red. masses --      1.0509                 1.0512                 5.0102
 Frc consts  --      1.4818                 1.4881                 7.8263
 IR Inten    --     12.0147                 8.9931                 0.7878

                     85                     86                     87
                      A                      A                      A
 Frequencies --   1645.8914              3030.7942              3031.3281
 Red. masses --      5.3117                 1.0468                 1.0469
 Frc consts  --      8.4779                 5.6653                 5.6678
 IR Inten    --      0.4513                 6.1755                32.7773

                     88                     89                     90
                      A                      A                      A
 Frequencies --   3032.5514              3034.0585              3038.9089
 Red. masses --      1.0389                 1.0412                 1.0419
 Frc consts  --      5.6292                 5.6474                 5.6692
 IR Inten    --     16.0476                17.0699               116.4202

                     91                     92                     93
                      A                      A                      A
 Frequencies --   3041.6677              3094.6791              3096.8317
 Red. masses --      1.0430                 1.0976                 1.0978
 Frc consts  --      5.6856                 6.1932                 6.2033
 IR Inten    --     52.8681                20.1413                17.9208

                     94                     95                     96
                      A                      A                      A
 Frequencies --   3099.6246              3101.8027              3106.8981
 Red. masses --      1.0936                 1.0896                 1.0923
 Frc consts  --      6.1904                 6.1766                 6.2123
 IR Inten    --      9.4036                53.7904                52.8643

                     97                     98                     99
                      A                      A                      A
 Frequencies --   3109.8440              3120.6895              3123.3541
 Red. masses --      1.0860                 1.1021                 1.1024
 Frc consts  --      6.1882                 6.3237                 6.3363
 IR Inten    --     17.5607                13.0952                27.9475

                    100                    101                    102
                      A                      A                      A
 Frequencies --   3132.5684              3134.2271              3138.4395
 Red. masses --      1.1007                 1.1008                 1.1012
 Frc consts  --      6.3637                 6.3710                 6.3908
 IR Inten    --      9.2644                19.8934                33.1833

                    103                    104                    105
                      A                      A                      A
 Frequencies --   3146.6420              3177.6392              3185.3112
 Red. masses --      1.1014                 1.0848                 1.0882
 Frc consts  --      6.4251                 6.4536                 6.5052
 IR Inten    --     30.1765                 0.7968                 5.7431

                    106                    107                    108
                      A                      A                      A
 Frequencies --   3195.3280              3205.6945              3222.8767
 Red. masses --      1.0922                 1.0967                 1.0914
 Frc consts  --      6.5705                 6.6405                 6.6792
 IR Inten    --     22.0465                35.5443                11.4187

 - Thermochemistry -
 -------------------
 Temperature   298.150 Kelvin.  Pressure   1.00000 Atm.
 Atom     1 has atomic number 15 and mass  30.97376

 Molecular mass:   222.15374 amu.
 Principal axes and moments of inertia in atomic units:
                           1         2         3
     Eigenvalues --  2494.246904228.936415226.63212
           X            0.99998   0.00352  -0.00454
           Y           -0.00352   0.99999  -0.00082
           Z            0.00453   0.00083   0.99999
 This molecule is an asymmetric top.
 Rotational symmetry number  1.
 Warning -- assumption of classical behavior for rotation
           may cause significant error
 Rotational temperatures (Kelvin)      0.03473     0.02048     0.01657
 Rotational constants (GHZ):           0.72356     0.42676     0.34530
 Zero-point vibrational energy     887966.3 (Joules/Mol)
                                  212.22905 (Kcal/Mol)
 Warning -- explicit consideration of  29 degrees of freedom as
           vibrations may cause significant error
 Vibrational temperatures:     55.49    90.44    99.54   129.88   190.34
          (Kelvin)            229.56   321.41   326.75   336.79   347.67
                              361.59   367.78   376.28   386.36   427.09
                              431.66   437.72   446.69   524.05   545.93
                              561.21   570.60   589.98   604.77   667.33
                              697.22   724.00   804.03   844.38   912.46
                             1008.92  1030.42  1097.30  1171.05  1172.61
                             1248.40  1347.74  1357.35  1360.20  1367.91
                             1372.13  1402.28  1406.46  1409.17  1441.02
                             1462.63  1498.15  1511.10  1511.92  1514.06
                             1520.55  1590.54  1600.96  1717.54  1742.61
                             1750.19  1757.38  1762.81  1772.55  1785.66
                             1791.64  1901.45  1960.61  2048.15  2051.76
                             2055.35  2056.38  2092.72  2101.55  2126.94
                             2170.78  2171.82  2180.31  2183.63  2186.69
                             2188.67  2200.04  2203.95  2206.74  2211.05
                             2219.07  2225.75  2230.17  2342.72  2368.07
                             4360.64  4361.41  4363.17  4365.33  4372.31
                             4376.28  4452.55  4455.65  4459.67  4462.80
                             4470.13  4474.37  4489.98  4493.81  4507.07
                             4509.45  4515.51  4527.32  4571.91  4582.95
                             4597.36  4612.28  4637.00

 Zero-point correction=                           0.338209 (Hartree/Particle)
 Thermal correction to Energy=                    0.355656
 Thermal correction to Enthalpy=                  0.356600
 Thermal correction to Gibbs Free Energy=         0.294736
 Sum of electronic and zero-point Energies=           -888.352971
 Sum of electronic and thermal Energies=              -888.335523
 Sum of electronic and thermal Enthalpies=            -888.334579
 Sum of electronic and thermal Free Energies=         -888.396444

                     E (Thermal)             CV                S
                      KCal/Mol        Cal/Mol-Kelvin    Cal/Mol-Kelvin
 Total                  223.178             68.241            130.205
 Electronic               0.000              0.000              0.000
 Translational            0.889              2.981             42.097
 Rotational               0.889              2.981             32.378
 Vibrational            221.400             62.279             55.730
 Vibration     1          0.594              1.981              5.331
 Vibration     2          0.597              1.972              4.365
 Vibration     3          0.598              1.969              4.176
 Vibration     4          0.602              1.956              3.654
 Vibration     5          0.612              1.921              2.912
 Vibration     6          0.621              1.892              2.555
 Vibration     7          0.649              1.805              1.931
 Vibration     8          0.651              1.800              1.902
 Vibration     9          0.654              1.789              1.847
 Vibration    10          0.658              1.777              1.791
 Vibration    11          0.663              1.761              1.721
 Vibration    12          0.666              1.753              1.692
 Vibration    13          0.669              1.743              1.652
 Vibration    14          0.673              1.731              1.606
 Vibration    15          0.690              1.680              1.435
 Vibration    16          0.693              1.674              1.417
 Vibration    17          0.695              1.666              1.394
 Vibration    18          0.699              1.654              1.360
 Vibration    19          0.738              1.546              1.104
 Vibration    20          0.749              1.514              1.041
 Vibration    21          0.758              1.491              1.000
 Vibration    22          0.763              1.477              0.975
 Vibration    23          0.774              1.448              0.926
 Vibration    24          0.783              1.426              0.891
 Vibration    25          0.821              1.330              0.755
 Vibration    26          0.841              1.284              0.698
 Vibration    27          0.859              1.243              0.650
 Vibration    28          0.914              1.120              0.526
 Vibration    29          0.944              1.060              0.473

 Optimization completed.
    -- Stationary point found.
 Normal termination of Gaussian 16 at Wed Feb 27 02:04:11 2019.
 Gaussian 16:  ES64L-G16RevA.03 25-Dec-2016

 ----------------------------------------------------------------------
 # TD(NStates=10, Root=1) B3LYP/6-31G* volume pop=NPA density=current G
 eom=AllCheck Guess=Read
 ----------------------------------------------------------------------

 Structure from the checkpoint file:  "direct_arylation_ligand_64_conf13.chk"
 -------------------
 Title Card Required
 -------------------
 Charge =  0 Multiplicity = 1

                         Standard orientation:
 ---------------------------------------------------------------------
 Center     Atomic      Atomic             Coordinates (Angstroms)
 Number     Number       Type             X           Y           Z
 ---------------------------------------------------------------------
      1         15           0       -0.596925    0.038678   -0.781285
      2          6           0        1.186655   -0.044905   -0.252055
      3          6           0        2.130216    0.165913   -1.273063
      4          6           0        3.502781    0.131163   -1.016454
      5          6           0        3.964760   -0.129616    0.273058
      6          6           0        3.045814   -0.350085    1.301318
      7          6           0        1.675296   -0.303990    1.042206
      8          6           0       -1.423907   -1.540802   -0.042340
      9          6           0       -1.736176   -1.577290    1.463682
     10          6           0       -2.742495   -1.733431   -0.826742
     11          6           0       -0.492166   -2.720122   -0.395125
     12          6           0       -1.226080    1.631828    0.104782
     13          6           0       -0.576059    2.786805   -0.690760
     14          6           0       -2.754350    1.722642   -0.074290
     15          6           0       -0.869935    1.808384    1.591069
     16          1           0        1.778557    0.354775   -2.284113
     17          1           0        4.208216    0.300836   -1.825939
     18          1           0        5.031814   -0.163680    0.477071
     19          1           0        3.396235   -0.555926    2.309762
     20          1           0        0.985408   -0.471243    1.861934
     21          1           0       -2.451033   -0.802423    1.756918
     22          1           0       -0.840526   -1.467548    2.082049
     23          1           0       -2.187792   -2.546488    1.719880
     24          1           0       -3.465520   -0.935890   -0.630409
     25          1           0       -3.211568   -2.682583   -0.532966
     26          1           0       -2.563355   -1.764983   -1.906616
     27          1           0        0.436834   -2.699153    0.181894
     28          1           0       -0.227174   -2.722290   -1.459132
     29          1           0       -1.003907   -3.667655   -0.178481
     30          1           0       -0.850112    2.751229   -1.750769
     31          1           0        0.517058    2.762113   -0.622144
     32          1           0       -0.913341    3.750588   -0.285396
     33          1           0       -3.051693    1.570677   -1.118317
     34          1           0       -3.101954    2.719788    0.228533
     35          1           0       -3.288151    0.992518    0.542855
     36          1           0        0.212496    1.823616    1.748294
     37          1           0       -1.296954    1.025133    2.223253
     38          1           0       -1.265779    2.769465    1.949406
 ---------------------------------------------------------------------

 SCF Done:  E(RB3LYP) =  -888.691179145     A.U. after    2 cycles

 Excitation energies and oscillator strengths:

 Excited State   1:      Singlet-A      4.4033 eV  281.57 nm  f=0.0134  <S**2>=0.000
      61 -> 62         0.70213
 This state for optimization and/or second-order correction.
 Total Energy, E(TD-HF/TD-DFT) =  -888.529360040
 Copying the excited state density for this state as the 1-particle RhoCI density.

 Excited State   2:      Singlet-A      4.8307 eV  256.66 nm  f=0.0008  <S**2>=0.000
      61 -> 63         0.70165

 Excited State   3:      Singlet-A      5.3398 eV  232.19 nm  f=0.0067  <S**2>=0.000
      59 -> 62         0.50748
      59 -> 63        -0.11229
      60 -> 62        -0.15869
      60 -> 63        -0.44206

 Excited State   4:      Singlet-A      5.8661 eV  211.36 nm  f=0.1020  <S**2>=0.000
      58 -> 62        -0.10420
      59 -> 62         0.14216
      59 -> 63         0.26319
      60 -> 62         0.61416
      60 -> 63        -0.11744

 Excited State   5:      Singlet-A      6.3072 eV  196.58 nm  f=0.0433  <S**2>=0.000
      58 -> 62         0.26985
      61 -> 64         0.63238

 Excited State   6:      Singlet-A      6.5606 eV  188.98 nm  f=0.2372  <S**2>=0.000
      58 -> 62         0.49237
      59 -> 63         0.40566
      60 -> 62        -0.13064
      61 -> 64        -0.24908

 Excited State   7:      Singlet-A      6.5972 eV  187.93 nm  f=0.0058  <S**2>=0.000
      57 -> 62         0.67550
      61 -> 65         0.11137
      61 -> 66         0.10989

 Excited State   8:      Singlet-A      6.6642 eV  186.05 nm  f=0.1669  <S**2>=0.000
      58 -> 63        -0.37994
      59 -> 62         0.34172
      60 -> 63         0.45292
      61 -> 65        -0.10047

 Excited State   9:      Singlet-A      6.8329 eV  181.45 nm  f=0.0293  <S**2>=0.000
      61 -> 65         0.68182

 Excited State  10:      Singlet-A      6.9317 eV  178.86 nm  f=0.0008  <S**2>=0.000
      57 -> 63         0.69100

 The electronic state is 1-A.
 Alpha  occ. eigenvalues --  -77.06425 -10.20142 -10.20065 -10.19168 -10.19156
 Alpha  occ. eigenvalues --  -10.19089 -10.19032 -10.18924 -10.18833 -10.17543
 Alpha  occ. eigenvalues --  -10.17443 -10.17068 -10.17039 -10.16987 -10.16959
 Alpha  occ. eigenvalues --   -6.53163  -4.69443  -4.69390  -4.68903  -0.84993
 Alpha  occ. eigenvalues --   -0.81008  -0.79554  -0.74478  -0.74235  -0.68517
 Alpha  occ. eigenvalues --   -0.68250  -0.67669  -0.67618  -0.62955  -0.60040
 Alpha  occ. eigenvalues --   -0.58026  -0.54147  -0.52351  -0.49282  -0.45674
 Alpha  occ. eigenvalues --   -0.45351  -0.44585  -0.44114  -0.43268  -0.42900
 Alpha  occ. eigenvalues --   -0.42276  -0.41977  -0.41325  -0.39198  -0.38391
 Alpha  occ. eigenvalues --   -0.38061  -0.37452  -0.37200  -0.36386  -0.36063
 Alpha  occ. eigenvalues --   -0.35887  -0.34184  -0.33590  -0.33031  -0.32467
 Alpha  occ. eigenvalues --   -0.32172  -0.29458  -0.28209  -0.24887  -0.24490
 Alpha  occ. eigenvalues --   -0.20814
 Alpha virt. eigenvalues --   -0.01360  -0.00069   0.05871   0.07270   0.08167
 Alpha virt. eigenvalues --    0.08848   0.11424   0.11661   0.12488   0.13863
 Alpha virt. eigenvalues --    0.14295   0.14626   0.15026   0.15712   0.16216

 Mulliken charges:
               1
     1  P    0.600675
     2  C   -0.161309
     3  C   -0.183816
     4  C   -0.138988
     5  C   -0.201305
     6  C   -0.107775
     7  C   -0.225497
     8  C   -0.104979
     9  C   -0.464201
    10  C   -0.459200
    11  C   -0.453033
    12  C   -0.092318
    13  C   -0.467459
    14  C   -0.461135
    15  C   -0.459043
    16  H    0.083987
    17  H    0.088175
    18  H    0.080828
    19  H    0.096545
    20  H    0.081233
    21  H    0.156517
    22  H    0.188372
    23  H    0.166290
    24  H    0.155582
    25  H    0.152792
    26  H    0.154421
    27  H    0.203553
    28  H    0.157960
    29  H    0.144103
    30  H    0.146546
    31  H    0.199993
    32  H    0.151397
    33  H    0.150811
    34  H    0.153805
    35  H    0.154890
    36  H    0.203204
    37  H    0.151304
    38  H    0.157074
 Sum of Mulliken charges =  -0.00000

 Dipole moment (field-independent basis, Debye):
    X=             -7.6269    Y=              0.1836    Z=             -0.3086  Tot=              7.6353
 Quadrupole moment (field-independent basis, Debye-Ang):
   XX=           -113.7404   YY=            -97.8236   ZZ=            -97.8450
   XY=              1.2007   XZ=             -0.0886   YZ=             -0.6575

 Summary of Natural Population Analysis:

                                       Natural Population
                Natural  -----------------------------------------------
    Atom  No    Charge         Core      Valence    Rydberg      Total
 -----------------------------------------------------------------------
      P    1    1.40317      9.99741     3.55771    0.04171    13.59683
      C    2   -0.59314      1.99883     4.57204    0.02226     6.59314
      C    3   -0.23933      1.99904     4.22430    0.01599     6.23933
      C    4   -0.27971      1.99910     4.26425    0.01636     6.27971
      C    5   -0.36181      1.99910     4.34458    0.01813     6.36181
      C    6   -0.21201      1.99907     4.19848    0.01445     6.21201
      C    7   -0.34675      1.99900     4.32667    0.02108     6.34675
      C    8   -0.34923      1.99911     4.33263    0.01749     6.34923
      C    9   -0.67680      1.99933     4.66543    0.01204     6.67680
      C   10   -0.68328      1.99938     4.67269    0.01121     6.68328
      C   11   -0.68470      1.99937     4.67321    0.01212     6.68470
      C   12   -0.35291      1.99911     4.33475    0.01904     6.35291
      C   13   -0.69161      1.99937     4.68023    0.01200     6.69161
      C   14   -0.68439      1.99937     4.67401    0.01102     6.68439
      C   15   -0.68087      1.99933     4.66921    0.01233     6.68087
      H   16    0.20604      0.00000     0.79327    0.00069     0.79396
      H   17    0.21824      0.00000     0.78090    0.00085     0.78176
      H   18    0.21368      0.00000     0.78559    0.00072     0.78632
      H   19    0.22248      0.00000     0.77666    0.00085     0.77752
      H   20    0.20301      0.00000     0.79611    0.00088     0.79699
      H   21    0.23150      0.00000     0.76759    0.00091     0.76850
      H   22    0.25115      0.00000     0.74806    0.00079     0.74885
      H   23    0.25147      0.00000     0.74737    0.00115     0.74853
      H   24    0.23365      0.00000     0.76543    0.00091     0.76635
      H   25    0.23900      0.00000     0.75941    0.00159     0.76100
      H   26    0.23533      0.00000     0.76379    0.00088     0.76467
      H   27    0.26814      0.00000     0.73063    0.00122     0.73186
      H   28    0.23891      0.00000     0.76033    0.00076     0.76109
      H   29    0.23542      0.00000     0.76331    0.00127     0.76458
      H   30    0.23070      0.00000     0.76847    0.00083     0.76930
      H   31    0.26490      0.00000     0.73409    0.00101     0.73510
      H   32    0.24028      0.00000     0.75859    0.00113     0.75972
      H   33    0.23262      0.00000     0.76659    0.00078     0.76738
      H   34    0.24064      0.00000     0.75764    0.00172     0.75936
      H   35    0.22898      0.00000     0.77012    0.00090     0.77102
      H   36    0.26865      0.00000     0.73021    0.00115     0.73135
      H   37    0.23341      0.00000     0.76567    0.00092     0.76659
      H   38    0.24514      0.00000     0.75361    0.00125     0.75486
 =======================================================================
   * Total *   -0.00000     37.98591    83.73365    0.28044   122.00000

 Normal termination of Gaussian 16 at Wed Feb 27 02:13:36 2019.
