 Gaussian 16, Revision A.03,

 ---------------------------------
 # opt=CalcFc B3LYP/6-31G* scf=xqc
 ---------------------------------

 -------------------
 Title Card Required
 -------------------
 Symbolic Z-matrix:
 Charge =  0 Multiplicity = 1

 SCF Done:  E(RB3LYP) =  -888.641246897     A.U. after   14 cycles
 SCF Done:  E(RB3LYP) =  -888.656755588     A.U. after   14 cycles
 SCF Done:  E(RB3LYP) =  -888.540720066     A.U. after   15 cycles
 SCF Done:  E(RB3LYP) =  -888.659510621     A.U. after   13 cycles
 SCF Done:  E(RB3LYP) =  -888.661937728     A.U. after   11 cycles
 SCF Done:  E(RB3LYP) =  -888.654212196     A.U. after   13 cycles
 SCF Done:  E(RB3LYP) =  -888.670060085     A.U. after   12 cycles
 SCF Done:  E(RB3LYP) =  -888.661777118     A.U. after   13 cycles
 SCF Done:  E(RB3LYP) =  -888.663906330     A.U. after   13 cycles
 SCF Done:  E(RB3LYP) =  -888.670301063     A.U. after    9 cycles
 SCF Done:  E(RB3LYP) =  -888.691129621     A.U. after   10 cycles
 SCF Done:  E(RB3LYP) =  -888.691163638     A.U. after   10 cycles
 SCF Done:  E(RB3LYP) =  -888.691171128     A.U. after    9 cycles
 SCF Done:  E(RB3LYP) =  -888.691175420     A.U. after    9 cycles
 SCF Done:  E(RB3LYP) =  -888.691177863     A.U. after    8 cycles
 SCF Done:  E(RB3LYP) =  -888.691178725     A.U. after    7 cycles
 SCF Done:  E(RB3LYP) =  -888.691178976     A.U. after    6 cycles
 SCF Done:  E(RB3LYP) =  -888.691179142     A.U. after    7 cycles
 Optimization completed.
    -- Stationary point found.
 Normal termination of Gaussian 16 at Wed Feb 27 02:08:36 2019.

 ----------------------------------------------------------------------
 # freq B3LYP/6-31G* volume NMR pop=NPA density=current Geom=AllCheck G
 uess=Read
 ----------------------------------------------------------------------

 Structure from the checkpoint file:  "direct_arylation_ligand_64_conf62.chk"
 -------------------
 Title Card Required
 -------------------
 Charge =  0 Multiplicity = 1

 SCF Done:  E(RB3LYP) =  -888.691179142     A.U. after    1 cycles

      1  P    Isotropic =   318.9354   Anisotropy =    62.2206

      2  C    Isotropic =    55.7828   Anisotropy =   180.3792

      3  C    Isotropic =    56.6387   Anisotropy =   159.0127

      4  C    Isotropic =    68.8108   Anisotropy =   163.7802

      5  C    Isotropic =    67.3915   Anisotropy =   168.8535

      6  C    Isotropic =    69.6405   Anisotropy =   162.3559

      7  C    Isotropic =    61.9138   Anisotropy =   165.2484

      8  C    Isotropic =   151.1432   Anisotropy =    17.6297

      9  C    Isotropic =   163.3789   Anisotropy =    30.1706

     10  C    Isotropic =   159.9231   Anisotropy =    33.5720

     11  C    Isotropic =   158.3348   Anisotropy =    41.0941

     12  C    Isotropic =   151.6000   Anisotropy =    19.3996

     13  C    Isotropic =   159.0322   Anisotropy =    33.5971

     14  C    Isotropic =   156.7542   Anisotropy =    41.1018

     15  C    Isotropic =   161.5506   Anisotropy =    29.3620

     16  H    Isotropic =    24.5667   Anisotropy =     9.1410

     17  H    Isotropic =    24.9513   Anisotropy =     4.7749

     18  H    Isotropic =    24.9546   Anisotropy =     3.8510

     19  H    Isotropic =    24.9645   Anisotropy =     5.6903

     20  H    Isotropic =    24.3780   Anisotropy =     9.3289

     21  H    Isotropic =    30.4753   Anisotropy =     6.2008

     22  H    Isotropic =    30.8058   Anisotropy =     6.5532

     23  H    Isotropic =    31.3408   Anisotropy =     9.3486

     24  H    Isotropic =    30.6158   Anisotropy =     6.4123

     25  H    Isotropic =    31.0430   Anisotropy =     9.1300

     26  H    Isotropic =    30.6699   Anisotropy =     7.5192

     27  H    Isotropic =    31.3257   Anisotropy =     5.9544

     28  H    Isotropic =    30.8766   Anisotropy =     8.6537

     29  H    Isotropic =    31.5764   Anisotropy =     9.4754

     30  H    Isotropic =    31.1777   Anisotropy =     7.6625

     31  H    Isotropic =    31.2191   Anisotropy =     5.9326

     32  H    Isotropic =    31.5401   Anisotropy =     9.2444

     33  H    Isotropic =    30.6582   Anisotropy =     8.1878

     34  H    Isotropic =    31.2439   Anisotropy =     9.2646

     35  H    Isotropic =    30.5735   Anisotropy =     6.2218

     36  H    Isotropic =    30.3292   Anisotropy =     6.9965

     37  H    Isotropic =    30.3682   Anisotropy =     5.7196

     38  H    Isotropic =    31.0209   Anisotropy =     9.1670

  Exact polarizability: 207.014  -0.381 149.784  -0.532   5.836 150.130
 Approx polarizability: 292.874  -0.587 210.334  -2.267  14.833 256.802

                      1                      2                      3
                      A                      A                      A
 Frequencies --     38.5811                62.8670                69.2217
 Red. masses --      3.6470                 2.7746                 3.1941
 Frc consts  --      0.0032                 0.0065                 0.0090
 IR Inten    --      0.0411                 0.0373                 0.0260

                      4                      5                      6
                      A                      A                      A
 Frequencies --     90.2819               132.2657               159.5418
 Red. masses --      3.2701                 4.0119                 3.4994
 Frc consts  --      0.0157                 0.0414                 0.0525
 IR Inten    --      0.0389                 0.0401                 0.1296

                      7                      8                      9
                      A                      A                      A
 Frequencies --    223.4009               227.1016               234.1083
 Red. masses --      2.7358                 1.3491                 1.3634
 Frc consts  --      0.0804                 0.0410                 0.0440
 IR Inten    --      0.5877                 0.0135                 0.0982

                     10                     11                     12
                      A                      A                      A
 Frequencies --    241.6501               251.2948               255.6147
 Red. masses --      2.2120                 1.4856                 2.3925
 Frc consts  --      0.0761                 0.0553                 0.0921
 IR Inten    --      0.1572                 0.2268                 0.2109

                     13                     14                     15
                      A                      A                      A
 Frequencies --    261.5300               268.5185               296.8408
 Red. masses --      1.6787                 2.3502                 1.1718
 Frc consts  --      0.0677                 0.0998                 0.0608
 IR Inten    --      0.2076                 0.3825                 0.2480

                     16                     17                     18
                      A                      A                      A
 Frequencies --    300.0234               304.1854               310.3950
 Red. masses --      1.2377                 1.3699                 1.1705
 Frc consts  --      0.0656                 0.0747                 0.0664
 IR Inten    --      0.3366                 0.0885                 0.1105

                     19                     20                     21
                      A                      A                      A
 Frequencies --    364.2276               379.4478               390.0709
 Red. masses --      2.4660                 2.6588                 2.5112
 Frc consts  --      0.1927                 0.2255                 0.2251
 IR Inten    --      0.1159                 0.8383                 0.4895

                     22                     23                     24
                      A                      A                      A
 Frequencies --    396.5733               410.0612               420.3337
 Red. masses --      2.2935                 2.8616                 2.9604
 Frc consts  --      0.2125                 0.2835                 0.3082
 IR Inten    --      0.1243                 0.8247                 0.8789

                     25                     26                     27
                      A                      A                      A
 Frequencies --    463.8144               484.5946               503.2103
 Red. masses --      3.2186                 5.8383                 3.4859
 Frc consts  --      0.4079                 0.8078                 0.5201
 IR Inten    --      5.9736                 9.6584                 8.7556

                     28                     29                     30
                      A                      A                      A
 Frequencies --    558.8264               586.8567               634.1946
 Red. masses --      3.1543                 3.7577                 6.4351
 Frc consts  --      0.5804                 0.7625                 1.5249
 IR Inten    --      3.0242                11.2159                 0.0640

                     31                     32                     33
                      A                      A                      A
 Frequencies --    701.2415               716.1783               762.6597
 Red. masses --      6.6816                 2.0364                 1.6819
 Frc consts  --      1.9358                 0.6154                 0.5764
 IR Inten    --      2.5538                24.9103                18.8073

                     34                     35                     36
                      A                      A                      A
 Frequencies --    813.9231               815.0068               867.6784
 Red. masses --      2.9407                 2.9191                 1.2431
 Frc consts  --      1.1478                 1.1424                 0.5514
 IR Inten    --      6.8462                 6.8969                 0.0716

                     37                     38                     39
                      A                      A                      A
 Frequencies --    936.7199               943.4114               945.3778
 Red. masses --      1.3548                 1.8270                 1.8162
 Frc consts  --      0.7004                 0.9580                 0.9563
 IR Inten    --      0.4349                 1.8566                 0.8749

                     40                     41                     42
                      A                      A                      A
 Frequencies --    950.7508               953.6841               974.6326
 Red. masses --      1.7357                 1.7412                 1.2164
 Frc consts  --      0.9244                 0.9331                 0.6808
 IR Inten    --      0.6773                 1.9862                 0.0765

                     43                     44                     45
                      A                      A                      A
 Frequencies --    977.5360               979.4192              1001.5602
 Red. masses --      1.2012                 1.3353                 1.2525
 Frc consts  --      0.6763                 0.7547                 0.7403
 IR Inten    --      0.0134                 0.1239                 0.0785

                     46                     47                     48
                      A                      A                      A
 Frequencies --   1016.5812              1041.2753              1050.2608
 Red. masses --      6.2130                 1.3718                 1.3787
 Frc consts  --      3.7830                 0.8763                 0.8960
 IR Inten    --      2.8932                 0.7402                 1.7034

                     49                     50                     51
                      A                      A                      A
 Frequencies --   1050.8351              1052.3292              1056.8372
 Red. masses --      1.4104                 3.0266                 1.4364
 Frc consts  --      0.9176                 1.9748                 0.9452
 IR Inten    --      3.2500                 0.6055                 2.4587

                     52                     53                     54
                      A                      A                      A
 Frequencies --   1105.4895              1112.7326              1193.7498
 Red. masses --      1.8324                 2.2088                 1.0977
 Frc consts  --      1.3194                 1.6113                 0.9217
 IR Inten    --      2.3445                11.6785                 0.0673

                     55                     56                     57
                      A                      A                      A
 Frequencies --   1211.1702              1216.4386              1221.4401
 Red. masses --      2.0019                 1.8278                 1.2188
 Frc consts  --      1.7302                 1.5935                 1.0713
 IR Inten    --     43.7863                20.1485                 0.0915

                     58                     59                     60
                      A                      A                      A
 Frequencies --   1225.2169              1231.9744              1241.0963
 Red. masses --      2.4040                 2.4459                 2.5823
 Frc consts  --      2.1262                 2.1872                 2.3436
 IR Inten    --      0.4769                 1.0028                 0.3027

                     61                     62                     63
                      A                      A                      A
 Frequencies --   1245.2540              1321.5805              1362.7003
 Red. masses --      2.6376                 3.8343                 1.5993
 Frc consts  --      2.4098                 3.9457                 1.7497
 IR Inten    --      1.7697                 1.9941                 1.3066

                     64                     65                     66
                      A                      A                      A
 Frequencies --   1423.5355              1426.0450              1428.5384
 Red. masses --      1.2110                 1.2134                 1.2099
 Frc consts  --      1.4459                 1.4538                 1.4548
 IR Inten    --      1.7903                 0.0115                 7.4667

                     67                     68                     69
                      A                      A                      A
 Frequencies --   1429.2596              1454.5162              1460.6517
 Red. masses --      1.2129                 1.2095                 1.2122
 Frc consts  --      1.4598                 1.5077                 1.5238
 IR Inten    --      6.7072                 7.0863                 1.6165

                     70                     71                     72
                      A                      A                      A
 Frequencies --   1478.3011              1508.7618              1509.4988
 Red. masses --      2.0707                 1.0501                 1.0514
 Frc consts  --      2.6661                 1.4083                 1.4115
 IR Inten    --      8.4007                 0.3363                 0.1563

                     73                     74                     75
                      A                      A                      A
 Frequencies --   1515.3807              1517.6950              1519.8204
 Red. masses --      1.0471                 1.0488                 1.0529
 Frc consts  --      1.4167                 1.4233                 1.4329
 IR Inten    --      0.2978                 1.2874                 0.6957

                     76                     77                     78
                      A                      A                      A
 Frequencies --   1521.2026              1529.1086              1531.8248
 Red. masses --      1.0472                 1.5624                 1.1080
 Frc consts  --      1.4277                 2.1524                 1.5319
 IR Inten    --      0.9614                 2.6670                 5.6503

                     79                     80                     81
                      A                      A                      A
 Frequencies --   1533.7632              1536.7592              1542.3248
 Red. masses --      1.0914                 1.0883                 1.0574
 Frc consts  --      1.5127                 1.5143                 1.4820
 IR Inten    --      6.1044                 1.3356                 4.3784

                     82                     83                     84
                      A                      A                      A
 Frequencies --   1546.9646              1550.0442              1628.2759
 Red. masses --      1.0509                 1.0512                 5.0102
 Frc consts  --      1.4818                 1.4881                 7.8264
 IR Inten    --     12.0109                 8.9954                 0.7873

                     85                     86                     87
                      A                      A                      A
 Frequencies --   1645.8931              3030.7998              3031.3319
 Red. masses --      5.3117                 1.0468                 1.0469
 Frc consts  --      8.4779                 5.6653                 5.6678
 IR Inten    --      0.4517                 6.1336                32.7913

                     88                     89                     90
                      A                      A                      A
 Frequencies --   3032.5480              3034.0577              3038.9089
 Red. masses --      1.0389                 1.0412                 1.0419
 Frc consts  --      5.6292                 5.6474                 5.6692
 IR Inten    --     16.0578                17.0629               116.4372

                     91                     92                     93
                      A                      A                      A
 Frequencies --   3041.6678              3094.6786              3096.8292
 Red. masses --      1.0430                 1.0976                 1.0978
 Frc consts  --      5.6856                 6.1932                 6.2033
 IR Inten    --     52.8757                20.0948                17.9376

                     94                     95                     96
                      A                      A                      A
 Frequencies --   3099.6165              3101.7986              3106.8956
 Red. masses --      1.0936                 1.0896                 1.0923
 Frc consts  --      6.1905                 6.1766                 6.2123
 IR Inten    --      9.4954                53.6911                52.9030

                     97                     98                     99
                      A                      A                      A
 Frequencies --   3109.8522              3120.7072              3123.3431
 Red. masses --      1.0860                 1.1021                 1.1024
 Frc consts  --      6.1882                 6.3238                 6.3362
 IR Inten    --     17.5420                13.0399                28.0170

                    100                    101                    102
                      A                      A                      A
 Frequencies --   3132.5983              3134.2163              3138.4411
 Red. masses --      1.1007                 1.1007                 1.1012
 Frc consts  --      6.3640                 6.3708                 6.3908
 IR Inten    --      9.0740                20.0644                33.2381

                    103                    104                    105
                      A                      A                      A
 Frequencies --   3146.6399              3177.6380              3185.3083
 Red. masses --      1.1014                 1.0848                 1.0882
 Frc consts  --      6.4251                 6.4536                 6.5052
 IR Inten    --     30.1540                 0.7970                 5.7335

                    106                    107                    108
                      A                      A                      A
 Frequencies --   3195.3233              3205.6922              3222.8413
 Red. masses --      1.0922                 1.0967                 1.0914
 Frc consts  --      6.5705                 6.6404                 6.6790
 IR Inten    --     22.0443                35.5515                11.4233

 - Thermochemistry -
 -------------------
 Temperature   298.150 Kelvin.  Pressure   1.00000 Atm.
 Atom     1 has atomic number 15 and mass  30.97376

 Molecular mass:   222.15374 amu.
 Principal axes and moments of inertia in atomic units:
                           1         2         3
     Eigenvalues --  2494.256214228.790135226.54290
           X            0.99998  -0.00352  -0.00454
           Y            0.00353   0.99999   0.00082
           Z            0.00453  -0.00084   0.99999
 This molecule is an asymmetric top.
 Rotational symmetry number  1.
 Warning -- assumption of classical behavior for rotation
           may cause significant error
 Rotational temperatures (Kelvin)      0.03473     0.02048     0.01657
 Rotational constants (GHZ):           0.72356     0.42677     0.34530
 Zero-point vibrational energy     887965.7 (Joules/Mol)
                                  212.22890 (Kcal/Mol)
 Warning -- explicit consideration of  29 degrees of freedom as
           vibrations may cause significant error
 Vibrational temperatures:     55.51    90.45    99.59   129.90   190.30
          (Kelvin)            229.55   321.42   326.75   336.83   347.68
                              361.56   367.77   376.28   386.34   427.09
                              431.67   437.65   446.59   524.04   545.94
                              561.22   570.58   589.99   604.77   667.33
                              697.22   724.01   804.03   844.36   912.46
                             1008.93  1030.42  1097.30  1171.05  1172.61
                             1248.40  1347.73  1357.36  1360.19  1367.92
                             1372.14  1402.28  1406.46  1409.17  1441.02
                             1462.63  1498.16  1511.09  1511.92  1514.07
                             1520.55  1590.55  1600.97  1717.54  1742.60
                             1750.18  1757.38  1762.81  1772.54  1785.66
                             1791.64  1901.46  1960.62  2048.15  2051.76
                             2055.35  2056.39  2092.72  2101.55  2126.95
                             2170.77  2171.83  2180.29  2183.62  2186.68
                             2188.67  2200.05  2203.95  2206.74  2211.05
                             2219.06  2225.74  2230.17  2342.73  2368.07
                             4360.64  4361.41  4363.16  4365.33  4372.31
                             4376.28  4452.55  4455.65  4459.66  4462.80
                             4470.13  4474.38  4490.00  4493.79  4507.11
                             4509.44  4515.52  4527.31  4571.91  4582.95
                             4597.36  4612.28  4636.95

 Zero-point correction=                           0.338208 (Hartree/Particle)
 Thermal correction to Energy=                    0.355656
 Thermal correction to Enthalpy=                  0.356600
 Thermal correction to Gibbs Free Energy=         0.294736
 Sum of electronic and zero-point Energies=           -888.352971
 Sum of electronic and thermal Energies=              -888.335523
 Sum of electronic and thermal Enthalpies=            -888.334579
 Sum of electronic and thermal Free Energies=         -888.396443

                     E (Thermal)             CV                S
                      KCal/Mol        Cal/Mol-Kelvin    Cal/Mol-Kelvin
 Total                  223.178             68.241            130.204
 Electronic               0.000              0.000              0.000
 Translational            0.889              2.981             42.097
 Rotational               0.889              2.981             32.378
 Vibrational            221.400             62.280             55.729
 Vibration     1          0.594              1.981              5.331
 Vibration     2          0.597              1.972              4.365
 Vibration     3          0.598              1.969              4.175
 Vibration     4          0.602              1.956              3.654
 Vibration     5          0.612              1.921              2.913
 Vibration     6          0.621              1.892              2.555
 Vibration     7          0.649              1.805              1.931
 Vibration     8          0.651              1.800              1.902
 Vibration     9          0.654              1.789              1.847
 Vibration    10          0.658              1.777              1.791
 Vibration    11          0.663              1.761              1.721
 Vibration    12          0.666              1.753              1.692
 Vibration    13          0.669              1.743              1.652
 Vibration    14          0.673              1.731              1.606
 Vibration    15          0.690              1.680              1.435
 Vibration    16          0.693              1.674              1.417
 Vibration    17          0.695              1.666              1.394
 Vibration    18          0.699              1.654              1.360
 Vibration    19          0.738              1.546              1.104
 Vibration    20          0.749              1.514              1.041
 Vibration    21          0.758              1.491              1.000
 Vibration    22          0.763              1.477              0.975
 Vibration    23          0.774              1.448              0.926
 Vibration    24          0.783              1.426              0.891
 Vibration    25          0.821              1.330              0.755
 Vibration    26          0.841              1.284              0.698
 Vibration    27          0.859              1.243              0.650
 Vibration    28          0.914              1.120              0.526
 Vibration    29          0.944              1.060              0.473

 Optimization completed.
    -- Stationary point found.
 Normal termination of Gaussian 16 at Wed Feb 27 02:16:29 2019.
 Gaussian 16:  ES64L-G16RevA.03 25-Dec-2016

 ----------------------------------------------------------------------
 # TD(NStates=10, Root=1) B3LYP/6-31G* volume pop=NPA density=current G
 eom=AllCheck Guess=Read
 ----------------------------------------------------------------------

 Structure from the checkpoint file:  "direct_arylation_ligand_64_conf63.chk"
 -------------------
 Title Card Required
 -------------------
 Charge =  0 Multiplicity = 1

                         Standard orientation:
 ---------------------------------------------------------------------
 Center     Atomic      Atomic             Coordinates (Angstroms)
 Number     Number       Type             X           Y           Z
 ---------------------------------------------------------------------
      1         15           0       -0.596948   -0.038716   -0.781369
      2          6           0        1.186601    0.045091   -0.252128
      3          6           0        2.130192   -0.166007   -1.273042
      4          6           0        3.502749   -0.131228   -1.016386
      5          6           0        3.964675    0.129840    0.273084
      6          6           0        3.045693    0.350563    1.301258
      7          6           0        1.675184    0.304446    1.042101
      8          6           0       -1.225837   -1.631880    0.104880
      9          6           0       -0.869549   -1.808311    1.591145
     10          6           0       -2.754091   -1.723005   -0.074183
     11          6           0       -0.575696   -2.786849   -0.690589
     12          6           0       -1.424083    1.540713   -0.042422
     13          6           0       -0.492264    2.720081   -0.394806
     14          6           0       -2.742501    1.733469   -0.827068
     15          6           0       -1.736764    1.576919    1.463525
     16          1           0        1.778555   -0.355125   -2.284053
     17          1           0        4.208216   -0.301115   -1.825799
     18          1           0        5.031721    0.163930    0.477135
     19          1           0        3.396081    0.556623    2.309667
     20          1           0        0.985271    0.471920    1.861767
     21          1           0       -1.296615   -1.025090    2.223336
     22          1           0        0.212898   -1.823386    1.748268
     23          1           0       -1.265232   -2.769427    1.949562
     24          1           0       -3.288068   -0.993111    0.543075
     25          1           0       -3.101465   -2.720280    0.228482
     26          1           0       -3.051476   -1.570945   -1.118185
     27          1           0        0.517433   -2.761902   -0.622210
     28          1           0       -0.849989   -2.751544   -1.750546
     29          1           0       -0.912674   -3.750629   -0.284965
     30          1           0       -0.226851    2.722311   -1.458709
     31          1           0        0.436500    2.699109    0.182583
     32          1           0       -1.004121    3.667587   -0.178318
     33          1           0       -2.563220    1.764793   -1.906923
     34          1           0       -3.211444    2.682755   -0.533518
     35          1           0       -3.465699    0.936098   -0.630662
     36          1           0       -0.841303    1.467044    2.082144
     37          1           0       -2.451714    0.801998    1.756389
     38          1           0       -2.188441    2.546069    1.719797
 ---------------------------------------------------------------------

 SCF Done:  E(RB3LYP) =  -888.691179142     A.U. after    1 cycles

 Excitation energies and oscillator strengths:

 Excited State   1:      Singlet-A      4.4035 eV  281.56 nm  f=0.0135  <S**2>=0.000
      61 -> 62         0.70213
 This state for optimization and/or second-order correction.
 Total Energy, E(TD-HF/TD-DFT) =  -888.529352565
 Copying the excited state density for this state as the 1-particle RhoCI density.

 Excited State   2:      Singlet-A      4.8308 eV  256.65 nm  f=0.0008  <S**2>=0.000
      61 -> 63         0.70165

 Excited State   3:      Singlet-A      5.3398 eV  232.19 nm  f=0.0067  <S**2>=0.000
      59 -> 62         0.50749
      59 -> 63        -0.11223
      60 -> 62        -0.15862
      60 -> 63        -0.44208

 Excited State   4:      Singlet-A      5.8661 eV  211.36 nm  f=0.1020  <S**2>=0.000
      58 -> 62        -0.10419
      59 -> 62         0.14208
      59 -> 63         0.26319
      60 -> 62         0.61419
      60 -> 63        -0.11740

 Excited State   5:      Singlet-A      6.3072 eV  196.58 nm  f=0.0433  <S**2>=0.000
      58 -> 62         0.26984
      61 -> 64         0.63239

 Excited State   6:      Singlet-A      6.5606 eV  188.98 nm  f=0.2372  <S**2>=0.000
      58 -> 62         0.49236
      59 -> 63         0.40568
      60 -> 62        -0.13064
      61 -> 64        -0.24901

 Excited State   7:      Singlet-A      6.5972 eV  187.93 nm  f=0.0058  <S**2>=0.000
      57 -> 62         0.67546
      61 -> 65        -0.11157
      61 -> 66         0.10984

 Excited State   8:      Singlet-A      6.6642 eV  186.05 nm  f=0.1670  <S**2>=0.000
      58 -> 63        -0.37993
      59 -> 62         0.34173
      60 -> 63         0.45293
      61 -> 65        -0.10031

 Excited State   9:      Singlet-A      6.8330 eV  181.45 nm  f=0.0293  <S**2>=0.000
      61 -> 65         0.68181

 Excited State  10:      Singlet-A      6.9317 eV  178.86 nm  f=0.0008  <S**2>=0.000
      57 -> 63         0.69100

 The electronic state is 1-A.
 Alpha  occ. eigenvalues --  -77.06426 -10.20142 -10.20065 -10.19168 -10.19156
 Alpha  occ. eigenvalues --  -10.19089 -10.19032 -10.18924 -10.18833 -10.17543
 Alpha  occ. eigenvalues --  -10.17443 -10.17068 -10.17039 -10.16987 -10.16958
 Alpha  occ. eigenvalues --   -6.53164  -4.69443  -4.69391  -4.68903  -0.84994
 Alpha  occ. eigenvalues --   -0.81008  -0.79554  -0.74478  -0.74235  -0.68516
 Alpha  occ. eigenvalues --   -0.68250  -0.67669  -0.67619  -0.62955  -0.60040
 Alpha  occ. eigenvalues --   -0.58026  -0.54147  -0.52351  -0.49281  -0.45674
 Alpha  occ. eigenvalues --   -0.45351  -0.44585  -0.44114  -0.43268  -0.42900
 Alpha  occ. eigenvalues --   -0.42276  -0.41977  -0.41325  -0.39197  -0.38391
 Alpha  occ. eigenvalues --   -0.38061  -0.37452  -0.37200  -0.36386  -0.36064
 Alpha  occ. eigenvalues --   -0.35887  -0.34184  -0.33589  -0.33031  -0.32467
 Alpha  occ. eigenvalues --   -0.32172  -0.29458  -0.28209  -0.24887  -0.24490
 Alpha  occ. eigenvalues --   -0.20815
 Alpha virt. eigenvalues --   -0.01360  -0.00069   0.05870   0.07269   0.08166
 Alpha virt. eigenvalues --    0.08848   0.11424   0.11661   0.12487   0.13863
 Alpha virt. eigenvalues --    0.14295   0.14627   0.15026   0.15711   0.16216

 Mulliken charges:
               1
     1  P    0.600656
     2  C   -0.161300
     3  C   -0.183809
     4  C   -0.138995
     5  C   -0.201300
     6  C   -0.107776
     7  C   -0.225495
     8  C   -0.092309
     9  C   -0.459039
    10  C   -0.461138
    11  C   -0.467466
    12  C   -0.104976
    13  C   -0.453021
    14  C   -0.459191
    15  C   -0.464209
    16  H    0.083991
    17  H    0.088176
    18  H    0.080830
    19  H    0.096547
    20  H    0.081234
    21  H    0.151297
    22  H    0.203210
    23  H    0.157069
    24  H    0.154885
    25  H    0.153806
    26  H    0.150809
    27  H    0.199991
    28  H    0.146539
    29  H    0.151397
    30  H    0.157976
    31  H    0.203537
    32  H    0.144097
    33  H    0.154425
    34  H    0.152796
    35  H    0.155574
    36  H    0.188367
    37  H    0.156522
    38  H    0.166294
 Sum of Mulliken charges =   0.00000

 Dipole moment (field-independent basis, Debye):
    X=             -7.6264    Y=             -0.1841    Z=             -0.3086  Tot=              7.6349
 Quadrupole moment (field-independent basis, Debye-Ang):
   XX=           -113.7388   YY=            -97.8243   ZZ=            -97.8451
   XY=             -1.2034   XZ=             -0.0882   YZ=              0.6580

 Summary of Natural Population Analysis:

                                       Natural Population
                Natural  -----------------------------------------------
    Atom  No    Charge         Core      Valence    Rydberg      Total
 -----------------------------------------------------------------------
      P    1    1.40314      9.99741     3.55774    0.04171    13.59686
      C    2   -0.59312      1.99883     4.57203    0.02226     6.59312
      C    3   -0.23932      1.99904     4.22429    0.01599     6.23932
      C    4   -0.27972      1.99910     4.26426    0.01636     6.27972
      C    5   -0.36180      1.99910     4.34457    0.01813     6.36180
      C    6   -0.21200      1.99907     4.19847    0.01445     6.21200
      C    7   -0.34676      1.99900     4.32669    0.02108     6.34676
      C    8   -0.35292      1.99911     4.33476    0.01904     6.35292
      C    9   -0.68087      1.99933     4.66921    0.01233     6.68087
      C   10   -0.68439      1.99937     4.67401    0.01102     6.68439
      C   11   -0.69161      1.99937     4.68023    0.01200     6.69161
      C   12   -0.34921      1.99911     4.33261    0.01749     6.34921
      C   13   -0.68469      1.99937     4.67320    0.01212     6.68469
      C   14   -0.68328      1.99938     4.67269    0.01121     6.68328
      C   15   -0.67680      1.99933     4.66543    0.01204     6.67680
      H   16    0.20604      0.00000     0.79327    0.00069     0.79396
      H   17    0.21824      0.00000     0.78090    0.00085     0.78176
      H   18    0.21368      0.00000     0.78559    0.00072     0.78632
      H   19    0.22248      0.00000     0.77666    0.00085     0.77752
      H   20    0.20301      0.00000     0.79611    0.00088     0.79699
      H   21    0.23341      0.00000     0.76567    0.00092     0.76659
      H   22    0.26865      0.00000     0.73020    0.00115     0.73135
      H   23    0.24513      0.00000     0.75361    0.00125     0.75487
      H   24    0.22898      0.00000     0.77012    0.00090     0.77102
      H   25    0.24064      0.00000     0.75764    0.00172     0.75936
      H   26    0.23262      0.00000     0.76660    0.00078     0.76738
      H   27    0.26490      0.00000     0.73409    0.00101     0.73510
      H   28    0.23070      0.00000     0.76847    0.00083     0.76930
      H   29    0.24028      0.00000     0.75859    0.00113     0.75972
      H   30    0.23893      0.00000     0.76032    0.00076     0.76107
      H   31    0.26813      0.00000     0.73064    0.00122     0.73187
      H   32    0.23542      0.00000     0.76331    0.00127     0.76458
      H   33    0.23533      0.00000     0.76380    0.00088     0.76467
      H   34    0.23900      0.00000     0.75941    0.00159     0.76100
      H   35    0.23366      0.00000     0.76543    0.00091     0.76634
      H   36    0.25114      0.00000     0.74807    0.00079     0.74886
      H   37    0.23150      0.00000     0.76759    0.00091     0.76850
      H   38    0.25148      0.00000     0.74737    0.00115     0.74852
 =======================================================================
   * Total *   -0.00000     37.98591    83.73365    0.28044   122.00000

 Normal termination of Gaussian 16 at Wed Feb 27 02:25:03 2019.
