 Gaussian 16, Revision A.03,

 ---------------------------------
 # opt=CalcFc B3LYP/6-31G* scf=xqc
 ---------------------------------

 -------------------
 Title Card Required
 -------------------
 Symbolic Z-matrix:
 Charge =  0 Multiplicity = 1

 SCF Done:  E(RB3LYP) =  -888.671883878     A.U. after   14 cycles
 SCF Done:  E(RB3LYP) =  -888.685393315     A.U. after   14 cycles
 SCF Done:  E(RB3LYP) =  -888.678206592     A.U. after   13 cycles
 SCF Done:  E(RB3LYP) =  -888.688318675     A.U. after   12 cycles
 SCF Done:  E(RB3LYP) =  -888.689812791     A.U. after   12 cycles
 SCF Done:  E(RB3LYP) =  -888.690466932     A.U. after   12 cycles
 SCF Done:  E(RB3LYP) =  -888.690787746     A.U. after   11 cycles
 SCF Done:  E(RB3LYP) =  -888.690995364     A.U. after   11 cycles
 SCF Done:  E(RB3LYP) =  -888.691102415     A.U. after   11 cycles
 SCF Done:  E(RB3LYP) =  -888.691140421     A.U. after   10 cycles
 SCF Done:  E(RB3LYP) =  -888.691158579     A.U. after   10 cycles
 SCF Done:  E(RB3LYP) =  -888.691174504     A.U. after   10 cycles
 SCF Done:  E(RB3LYP) =  -888.691177458     A.U. after    9 cycles
 SCF Done:  E(RB3LYP) =  -888.691178772     A.U. after    8 cycles
 SCF Done:  E(RB3LYP) =  -888.691179076     A.U. after    7 cycles
 SCF Done:  E(RB3LYP) =  -888.691179150     A.U. after    7 cycles
 Optimization completed.
    -- Stationary point found.
 Normal termination of Gaussian 16 at Wed Feb 27 01:42:36 2019.

 ----------------------------------------------------------------------
 # freq B3LYP/6-31G* volume NMR pop=NPA density=current Geom=AllCheck G
 uess=Read
 ----------------------------------------------------------------------

 Structure from the checkpoint file:  "direct_arylation_ligand_64_conf52.chk"
 -------------------
 Title Card Required
 -------------------
 Charge =  0 Multiplicity = 1

 SCF Done:  E(RB3LYP) =  -888.691179150     A.U. after    1 cycles

      1  P    Isotropic =   318.9138   Anisotropy =    62.2462

      2  C    Isotropic =    55.7799   Anisotropy =   180.3811

      3  C    Isotropic =    61.9169   Anisotropy =   165.2451

      4  C    Isotropic =    69.6399   Anisotropy =   162.3572

      5  C    Isotropic =    67.3906   Anisotropy =   168.8543

      6  C    Isotropic =    68.8101   Anisotropy =   163.7807

      7  C    Isotropic =    56.6381   Anisotropy =   159.0106

      8  C    Isotropic =   151.5965   Anisotropy =    19.4034

      9  C    Isotropic =   161.5495   Anisotropy =    29.3670

     10  C    Isotropic =   156.7555   Anisotropy =    41.1020

     11  C    Isotropic =   159.0317   Anisotropy =    33.6004

     12  C    Isotropic =   151.1408   Anisotropy =    17.6349

     13  C    Isotropic =   158.3320   Anisotropy =    41.0943

     14  C    Isotropic =   159.9209   Anisotropy =    33.5791

     15  C    Isotropic =   163.3776   Anisotropy =    30.1780

     16  H    Isotropic =    24.3779   Anisotropy =     9.3286

     17  H    Isotropic =    24.9645   Anisotropy =     5.6901

     18  H    Isotropic =    24.9545   Anisotropy =     3.8510

     19  H    Isotropic =    24.9513   Anisotropy =     4.7750

     20  H    Isotropic =    24.5666   Anisotropy =     9.1409

     21  H    Isotropic =    30.3683   Anisotropy =     5.7206

     22  H    Isotropic =    30.3289   Anisotropy =     6.9969

     23  H    Isotropic =    31.0209   Anisotropy =     9.1669

     24  H    Isotropic =    30.5737   Anisotropy =     6.2223

     25  H    Isotropic =    31.2438   Anisotropy =     9.2642

     26  H    Isotropic =    30.6581   Anisotropy =     8.1874

     27  H    Isotropic =    31.2193   Anisotropy =     5.9322

     28  H    Isotropic =    31.1776   Anisotropy =     7.6630

     29  H    Isotropic =    31.5404   Anisotropy =     9.2442

     30  H    Isotropic =    30.8762   Anisotropy =     8.6526

     31  H    Isotropic =    31.3259   Anisotropy =     5.9533

     32  H    Isotropic =    31.5764   Anisotropy =     9.4751

     33  H    Isotropic =    30.6696   Anisotropy =     7.5184

     34  H    Isotropic =    31.0432   Anisotropy =     9.1299

     35  H    Isotropic =    30.6162   Anisotropy =     6.4136

     36  H    Isotropic =    30.8060   Anisotropy =     6.5528

     37  H    Isotropic =    30.4753   Anisotropy =     6.2013

     38  H    Isotropic =    31.3404   Anisotropy =     9.3480

  Exact polarizability: 207.013   0.381 149.786  -0.532  -5.834 150.131
 Approx polarizability: 292.873   0.589 210.335  -2.267 -14.827 256.803

                      1                      2                      3
                      A                      A                      A
 Frequencies --     38.5761                62.8435                69.1615
 Red. masses --      3.6462                 2.7747                 3.1920
 Frc consts  --      0.0032                 0.0065                 0.0090
 IR Inten    --      0.0410                 0.0373                 0.0260

                      4                      5                      6
                      A                      A                      A
 Frequencies --     90.2407               132.2416               159.5221
 Red. masses --      3.2730                 4.0115                 3.4996
 Frc consts  --      0.0157                 0.0413                 0.0525
 IR Inten    --      0.0390                 0.0401                 0.1296

                      7                      8                      9
                      A                      A                      A
 Frequencies --    223.4021               227.1161               234.0809
 Red. masses --      2.7387                 1.3487                 1.3637
 Frc consts  --      0.0805                 0.0410                 0.0440
 IR Inten    --      0.5884                 0.0133                 0.0983

                     10                     11                     12
                      A                      A                      A
 Frequencies --    241.6297               251.2630               255.5990
 Red. masses --      2.2122                 1.4842                 2.3942
 Frc consts  --      0.0761                 0.0552                 0.0922
 IR Inten    --      0.1574                 0.2261                 0.2108

                     13                     14                     15
                      A                      A                      A
 Frequencies --    261.5227               268.5196               296.8416
 Red. masses --      1.6788                 2.3502                 1.1714
 Frc consts  --      0.0677                 0.0998                 0.0608
 IR Inten    --      0.2068                 0.3828                 0.2484

                     16                     17                     18
                      A                      A                      A
 Frequencies --    300.0184               304.1916               310.3854
 Red. masses --      1.2380                 1.3691                 1.1711
 Frc consts  --      0.0657                 0.0746                 0.0665
 IR Inten    --      0.3356                 0.0882                 0.1111

                     19                     20                     21
                      A                      A                      A
 Frequencies --    364.2269               379.4521               390.0739
 Red. masses --      2.4660                 2.6585                 2.5112
 Frc consts  --      0.1927                 0.2255                 0.2251
 IR Inten    --      0.1158                 0.8386                 0.4901

                     22                     23                     24
                      A                      A                      A
 Frequencies --    396.5646               410.0596               420.3318
 Red. masses --      2.2935                 2.8619                 2.9605
 Frc consts  --      0.2125                 0.2835                 0.3082
 IR Inten    --      0.1242                 0.8243                 0.8799

                     25                     26                     27
                      A                      A                      A
 Frequencies --    463.8047               484.5907               503.2138
 Red. masses --      3.2190                 5.8382                 3.4856
 Frc consts  --      0.4080                 0.8078                 0.5200
 IR Inten    --      5.9756                 9.6576                 8.7573

                     28                     29                     30
                      A                      A                      A
 Frequencies --    558.8267               586.8606               634.1928
 Red. masses --      3.1541                 3.7577                 6.4351
 Frc consts  --      0.5803                 0.7625                 1.5249
 IR Inten    --      3.0239                11.2174                 0.0639

                     31                     32                     33
                      A                      A                      A
 Frequencies --    701.2353               716.1756               762.6598
 Red. masses --      6.6811                 2.0363                 1.6821
 Frc consts  --      1.9357                 0.6154                 0.5764
 IR Inten    --      2.5540                24.9136                18.8043

                     34                     35                     36
                      A                      A                      A
 Frequencies --    813.9284               815.0086               867.6699
 Red. masses --      2.9407                 2.9191                 1.2431
 Frc consts  --      1.1478                 1.1424                 0.5514
 IR Inten    --      6.8288                 6.9138                 0.0717

                     37                     38                     39
                      A                      A                      A
 Frequencies --    936.7098               943.4290               945.3794
 Red. masses --      1.3547                 1.8272                 1.8161
 Frc consts  --      0.7003                 0.9582                 0.9563
 IR Inten    --      0.4351                 1.8549                 0.8754

                     40                     41                     42
                      A                      A                      A
 Frequencies --    950.7417               953.6823               974.6333
 Red. masses --      1.7358                 1.7414                 1.2165
 Frc consts  --      0.9244                 0.9332                 0.6808
 IR Inten    --      0.6769                 1.9870                 0.0764

                     43                     44                     45
                      A                      A                      A
 Frequencies --    977.5380               979.4134              1001.5579
 Red. masses --      1.2012                 1.3352                 1.2525
 Frc consts  --      0.6763                 0.7546                 0.7403
 IR Inten    --      0.0134                 0.1240                 0.0785

                     46                     47                     48
                      A                      A                      A
 Frequencies --   1016.5788              1041.2793              1050.2633
 Red. masses --      6.2129                 1.3717                 1.3787
 Frc consts  --      3.7829                 0.8763                 0.8960
 IR Inten    --      2.8935                 0.7396                 1.7030

                     49                     50                     51
                      A                      A                      A
 Frequencies --   1050.8427              1052.3204              1056.8381
 Red. masses --      1.4111                 3.0245                 1.4361
 Frc consts  --      0.9181                 1.9733                 0.9451
 IR Inten    --      3.2542                 0.6016                 2.4601

                     52                     53                     54
                      A                      A                      A
 Frequencies --   1105.4831              1112.7237              1193.7445
 Red. masses --      1.8328                 2.2082                 1.0977
 Frc consts  --      1.3197                 1.6109                 0.9217
 IR Inten    --      2.3494                11.6739                 0.0673

                     55                     56                     57
                      A                      A                      A
 Frequencies --   1211.1743              1216.4381              1221.4349
 Red. masses --      2.0019                 1.8273                 1.2190
 Frc consts  --      1.7302                 1.5931                 1.0715
 IR Inten    --     43.7980                20.1436                 0.0923

                     58                     59                     60
                      A                      A                      A
 Frequencies --   1225.2163              1231.9767              1241.0874
 Red. masses --      2.4040                 2.4460                 2.5822
 Frc consts  --      2.1262                 2.1873                 2.3434
 IR Inten    --      0.4791                 1.0026                 0.3029

                     61                     62                     63
                      A                      A                      A
 Frequencies --   1245.2480              1321.5643              1362.6889
 Red. masses --      2.6375                 3.8346                 1.5992
 Frc consts  --      2.4097                 3.9459                 1.7497
 IR Inten    --      1.7698                 1.9948                 1.3066

                     64                     65                     66
                      A                      A                      A
 Frequencies --   1423.5329              1426.0415              1428.5360
 Red. masses --      1.2110                 1.2134                 1.2099
 Frc consts  --      1.4459                 1.4538                 1.4548
 IR Inten    --      1.7920                 0.0116                 7.4555

                     67                     68                     69
                      A                      A                      A
 Frequencies --   1429.2530              1454.5138              1460.6452
 Red. masses --      1.2129                 1.2095                 1.2122
 Frc consts  --      1.4598                 1.5077                 1.5238
 IR Inten    --      6.7193                 7.0840                 1.6170

                     70                     71                     72
                      A                      A                      A
 Frequencies --   1478.3023              1508.7631              1509.4940
 Red. masses --      2.0707                 1.0501                 1.0514
 Frc consts  --      2.6662                 1.4083                 1.4115
 IR Inten    --      8.4003                 0.3362                 0.1555

                     73                     74                     75
                      A                      A                      A
 Frequencies --   1515.3777              1517.6963              1519.8190
 Red. masses --      1.0471                 1.0487                 1.0529
 Frc consts  --      1.4167                 1.4233                 1.4330
 IR Inten    --      0.2988                 1.2864                 0.6960

                     76                     77                     78
                      A                      A                      A
 Frequencies --   1521.1959              1529.0987              1531.8218
 Red. masses --      1.0472                 1.5634                 1.1076
 Frc consts  --      1.4277                 2.1537                 1.5312
 IR Inten    --      0.9590                 2.6723                 5.6378

                     79                     80                     81
                      A                      A                      A
 Frequencies --   1533.7586              1536.7568              1542.3197
 Red. masses --      1.0914                 1.0882                 1.0574
 Frc consts  --      1.5127                 1.5142                 1.4819
 IR Inten    --      6.1157                 1.3385                 4.3774

                     82                     83                     84
                      A                      A                      A
 Frequencies --   1546.9655              1550.0382              1628.2555
 Red. masses --      1.0509                 1.0512                 5.0100
 Frc consts  --      1.4818                 1.4881                 7.8259
 IR Inten    --     12.0311                 8.9765                 0.7877

                     85                     86                     87
                      A                      A                      A
 Frequencies --   1645.8931              3030.7862              3031.3240
 Red. masses --      5.3118                 1.0468                 1.0469
 Frc consts  --      8.4781                 5.6652                 5.6678
 IR Inten    --      0.4519                 6.2795                32.6938

                     88                     89                     90
                      A                      A                      A
 Frequencies --   3032.5469              3034.0582              3038.9064
 Red. masses --      1.0389                 1.0412                 1.0419
 Frc consts  --      5.6292                 5.6474                 5.6692
 IR Inten    --     16.0597                17.0553               116.3799

                     91                     92                     93
                      A                      A                      A
 Frequencies --   3041.6653              3094.6822              3096.8323
 Red. masses --      1.0430                 1.0976                 1.0978
 Frc consts  --      5.6856                 6.1932                 6.2033
 IR Inten    --     52.8727                20.1274                17.9184

                     94                     95                     96
                      A                      A                      A
 Frequencies --   3099.6220              3101.7909              3106.8948
 Red. masses --      1.0936                 1.0896                 1.0923
 Frc consts  --      6.1902                 6.1768                 6.2123
 IR Inten    --      9.2897                53.9307                52.8672

                     97                     98                     99
                      A                      A                      A
 Frequencies --   3109.8374              3120.6871              3123.3586
 Red. masses --      1.0860                 1.1021                 1.1024
 Frc consts  --      6.1882                 6.3237                 6.3363
 IR Inten    --     17.5384                13.1166                27.9257

                    100                    101                    102
                      A                      A                      A
 Frequencies --   3132.5720              3134.2017              3138.4184
 Red. masses --      1.1007                 1.1008                 1.1012
 Frc consts  --      6.3638                 6.3708                 6.3907
 IR Inten    --      9.1246                20.0314                33.2139

                    103                    104                    105
                      A                      A                      A
 Frequencies --   3146.6197              3177.6389              3185.3133
 Red. masses --      1.1014                 1.0848                 1.0882
 Frc consts  --      6.4250                 6.4536                 6.5052
 IR Inten    --     30.1831                 0.7963                 5.7518

                    106                    107                    108
                      A                      A                      A
 Frequencies --   3195.3316              3205.6944              3222.8882
 Red. masses --      1.0922                 1.0967                 1.0914
 Frc consts  --      6.5705                 6.6405                 6.6792
 IR Inten    --     22.0474                35.5364                11.4180

 - Thermochemistry -
 -------------------
 Temperature   298.150 Kelvin.  Pressure   1.00000 Atm.
 Atom     1 has atomic number 15 and mass  30.97376

 Molecular mass:   222.15374 amu.
 Principal axes and moments of inertia in atomic units:
                           1         2         3
     Eigenvalues --  2494.402104228.756155226.64960
           X            0.99998   0.00352  -0.00454
           Y           -0.00352   0.99999  -0.00082
           Z            0.00454   0.00083   0.99999
 This molecule is an asymmetric top.
 Rotational symmetry number  1.
 Warning -- assumption of classical behavior for rotation
           may cause significant error
 Rotational temperatures (Kelvin)      0.03472     0.02048     0.01657
 Rotational constants (GHZ):           0.72352     0.42678     0.34530
 Zero-point vibrational energy     887962.7 (Joules/Mol)
                                  212.22818 (Kcal/Mol)
 Warning -- explicit consideration of  29 degrees of freedom as
           vibrations may cause significant error
 Vibrational temperatures:     55.50    90.42    99.51   129.84   190.27
          (Kelvin)            229.52   321.43   326.77   336.79   347.65
                              361.51   367.75   376.27   386.34   427.09
                              431.66   437.66   446.58   524.04   545.95
                              561.23   570.57   589.98   604.76   667.31
                              697.22   724.01   804.03   844.36   912.46
                             1008.92  1030.42  1097.30  1171.06  1172.62
                             1248.38  1347.72  1357.38  1360.19  1367.91
                             1372.14  1402.28  1406.46  1409.16  1441.02
                             1462.63  1498.17  1511.09  1511.93  1514.05
                             1520.55  1590.54  1600.96  1717.53  1742.61
                             1750.18  1757.37  1762.81  1772.54  1785.65
                             1791.63  1901.44  1960.61  2048.15  2051.76
                             2055.34  2056.38  2092.72  2101.54  2126.95
                             2170.77  2171.83  2180.29  2183.63  2186.68
                             2188.66  2200.03  2203.95  2206.74  2211.05
                             2219.05  2225.74  2230.16  2342.70  2368.07
                             4360.63  4361.40  4363.16  4365.33  4372.31
                             4376.28  4452.56  4455.65  4459.66  4462.79
                             4470.13  4474.36  4489.97  4493.82  4507.07
                             4509.42  4515.48  4527.28  4571.91  4582.96
                             4597.37  4612.28  4637.02

 Zero-point correction=                           0.338207 (Hartree/Particle)
 Thermal correction to Energy=                    0.355655
 Thermal correction to Enthalpy=                  0.356600
 Thermal correction to Gibbs Free Energy=         0.294733
 Sum of electronic and zero-point Energies=           -888.352972
 Sum of electronic and thermal Energies=              -888.335524
 Sum of electronic and thermal Enthalpies=            -888.334580
 Sum of electronic and thermal Free Energies=         -888.396446

                     E (Thermal)             CV                S
                      KCal/Mol        Cal/Mol-Kelvin    Cal/Mol-Kelvin
 Total                  223.177             68.242            130.209
 Electronic               0.000              0.000              0.000
 Translational            0.889              2.981             42.097
 Rotational               0.889              2.981             32.378
 Vibrational            221.400             62.280             55.734
 Vibration     1          0.594              1.981              5.331
 Vibration     2          0.597              1.972              4.366
 Vibration     3          0.598              1.969              4.177
 Vibration     4          0.602              1.956              3.655
 Vibration     5          0.612              1.921              2.913
 Vibration     6          0.621              1.892              2.555
 Vibration     7          0.649              1.805              1.931
 Vibration     8          0.651              1.800              1.902
 Vibration     9          0.654              1.789              1.847
 Vibration    10          0.658              1.777              1.791
 Vibration    11          0.663              1.761              1.722
 Vibration    12          0.666              1.753              1.692
 Vibration    13          0.669              1.743              1.652
 Vibration    14          0.673              1.731              1.606
 Vibration    15          0.690              1.680              1.435
 Vibration    16          0.693              1.674              1.417
 Vibration    17          0.695              1.666              1.394
 Vibration    18          0.699              1.654              1.360
 Vibration    19          0.738              1.546              1.104
 Vibration    20          0.749              1.514              1.041
 Vibration    21          0.758              1.491              1.000
 Vibration    22          0.763              1.477              0.975
 Vibration    23          0.774              1.448              0.926
 Vibration    24          0.783              1.426              0.891
 Vibration    25          0.821              1.330              0.755
 Vibration    26          0.841              1.284              0.698
 Vibration    27          0.859              1.243              0.650
 Vibration    28          0.914              1.120              0.526
 Vibration    29          0.944              1.060              0.473

 Optimization completed.
    -- Stationary point found.
 Normal termination of Gaussian 16 at Wed Feb 27 01:50:02 2019.
 Gaussian 16:  ES64L-G16RevA.03 25-Dec-2016

 ----------------------------------------------------------------------
 # TD(NStates=10, Root=1) B3LYP/6-31G* volume pop=NPA density=current G
 eom=AllCheck Guess=Read
 ----------------------------------------------------------------------

 Structure from the checkpoint file:  "direct_arylation_ligand_64_conf53.chk"
 -------------------
 Title Card Required
 -------------------
 Charge =  0 Multiplicity = 1

                         Standard orientation:
 ---------------------------------------------------------------------
 Center     Atomic      Atomic             Coordinates (Angstroms)
 Number     Number       Type             X           Y           Z
 ---------------------------------------------------------------------
      1         15           0       -0.596994    0.038694   -0.781292
      2          6           0        1.186580   -0.044989   -0.252064
      3          6           0        1.675210   -0.304247    1.042169
      4          6           0        3.045727   -0.350320    1.301282
      5          6           0        3.964677   -0.129651    0.273063
      6          6           0        3.502697    0.131285   -1.016424
      7          6           0        2.130138    0.166001   -1.273041
      8          6           0       -1.423923   -1.540876   -0.042403
      9          6           0       -1.736340   -1.577229    1.463603
     10          6           0       -2.742454   -1.733736   -0.826805
     11          6           0       -0.492023   -2.720116   -0.395011
     12          6           0       -1.225997    1.631886    0.104837
     13          6           0       -0.575707    2.786784   -0.690608
     14          6           0       -2.754222    1.723045   -0.074486
     15          6           0       -0.869997    1.808492    1.591160
     16          1           0        0.985314   -0.471688    1.861849
     17          1           0        3.396147   -0.556302    2.309697
     18          1           0        5.031731   -0.163684    0.477086
     19          1           0        4.208134    0.301113   -1.825876
     20          1           0        1.778470    0.354992   -2.284063
     21          1           0       -2.451287   -0.802367    1.756638
     22          1           0       -0.840771   -1.467343    2.082067
     23          1           0       -2.187913   -2.546427    1.719882
     24          1           0       -3.465790   -0.936584   -0.630009
     25          1           0       -3.211095   -2.683202   -0.533357
     26          1           0       -2.563425   -1.764755   -1.906710
     27          1           0        0.436897   -2.699031    0.182130
     28          1           0       -0.226884   -2.722310   -1.458982
     29          1           0       -1.003714   -3.667681   -0.178390
     30          1           0       -0.849605    2.751254   -1.750660
     31          1           0        0.517395    2.761978   -0.621825
     32          1           0       -0.912972    3.750580   -0.285258
     33          1           0       -3.051489    1.570605   -1.118466
     34          1           0       -3.101553    2.720459    0.227764
     35          1           0       -3.288325    0.993422    0.542988
     36          1           0        0.212417    1.823743    1.748495
     37          1           0       -1.297089    1.025267    2.223334
     38          1           0       -1.265884    2.769586    1.949413
 ---------------------------------------------------------------------

 SCF Done:  E(RB3LYP) =  -888.691179150     A.U. after    1 cycles

 Excitation energies and oscillator strengths:

 Excited State   1:      Singlet-A      4.4034 eV  281.56 nm  f=0.0134  <S**2>=0.000
      61 -> 62         0.70213
 This state for optimization and/or second-order correction.
 Total Energy, E(TD-HF/TD-DFT) =  -888.529355701
 Copying the excited state density for this state as the 1-particle RhoCI density.

 Excited State   2:      Singlet-A      4.8308 eV  256.65 nm  f=0.0008  <S**2>=0.000
      61 -> 63         0.70165

 Excited State   3:      Singlet-A      5.3398 eV  232.19 nm  f=0.0067  <S**2>=0.000
      59 -> 62         0.50747
      59 -> 63        -0.11229
      60 -> 62        -0.15870
      60 -> 63        -0.44207

 Excited State   4:      Singlet-A      5.8661 eV  211.36 nm  f=0.1020  <S**2>=0.000
      58 -> 62        -0.10419
      59 -> 62         0.14217
      59 -> 63         0.26319
      60 -> 62         0.61415
      60 -> 63        -0.11744

 Excited State   5:      Singlet-A      6.3069 eV  196.59 nm  f=0.0435  <S**2>=0.000
      58 -> 62         0.26948
      61 -> 64         0.63257

 Excited State   6:      Singlet-A      6.5606 eV  188.98 nm  f=0.2371  <S**2>=0.000
      58 -> 62         0.49258
      59 -> 63         0.40567
      60 -> 62        -0.13060
      61 -> 64        -0.24869

 Excited State   7:      Singlet-A      6.5972 eV  187.93 nm  f=0.0058  <S**2>=0.000
      57 -> 62         0.67548
      61 -> 65         0.11149
      61 -> 66         0.10985

 Excited State   8:      Singlet-A      6.6642 eV  186.04 nm  f=0.1668  <S**2>=0.000
      58 -> 63        -0.37991
      59 -> 62         0.34175
      60 -> 63         0.45293
      61 -> 65        -0.10054

 Excited State   9:      Singlet-A      6.8329 eV  181.45 nm  f=0.0294  <S**2>=0.000
      61 -> 65         0.68179

 Excited State  10:      Singlet-A      6.9317 eV  178.86 nm  f=0.0008  <S**2>=0.000
      57 -> 63         0.69100

 The electronic state is 1-A.
 Alpha  occ. eigenvalues --  -77.06426 -10.20142 -10.20065 -10.19168 -10.19156
 Alpha  occ. eigenvalues --  -10.19089 -10.19032 -10.18924 -10.18833 -10.17543
 Alpha  occ. eigenvalues --  -10.17443 -10.17068 -10.17039 -10.16988 -10.16958
 Alpha  occ. eigenvalues --   -6.53164  -4.69443  -4.69391  -4.68903  -0.84993
 Alpha  occ. eigenvalues --   -0.81007  -0.79555  -0.74478  -0.74235  -0.68516
 Alpha  occ. eigenvalues --   -0.68249  -0.67669  -0.67619  -0.62955  -0.60040
 Alpha  occ. eigenvalues --   -0.58026  -0.54148  -0.52351  -0.49281  -0.45674
 Alpha  occ. eigenvalues --   -0.45351  -0.44585  -0.44113  -0.43268  -0.42900
 Alpha  occ. eigenvalues --   -0.42276  -0.41977  -0.41325  -0.39197  -0.38391
 Alpha  occ. eigenvalues --   -0.38061  -0.37452  -0.37201  -0.36386  -0.36063
 Alpha  occ. eigenvalues --   -0.35887  -0.34184  -0.33589  -0.33031  -0.32466
 Alpha  occ. eigenvalues --   -0.32173  -0.29458  -0.28209  -0.24887  -0.24490
 Alpha  occ. eigenvalues --   -0.20814
 Alpha virt. eigenvalues --   -0.01360  -0.00069   0.05869   0.07269   0.08167
 Alpha virt. eigenvalues --    0.08847   0.11424   0.11661   0.12487   0.13862
 Alpha virt. eigenvalues --    0.14295   0.14627   0.15027   0.15712   0.16216

 Mulliken charges:
               1
     1  P    0.600665
     2  C   -0.161318
     3  C   -0.225496
     4  C   -0.107775
     5  C   -0.201306
     6  C   -0.138994
     7  C   -0.183808
     8  C   -0.104983
     9  C   -0.464200
    10  C   -0.459174
    11  C   -0.453029
    12  C   -0.092321
    13  C   -0.467463
    14  C   -0.461126
    15  C   -0.459030
    16  H    0.081231
    17  H    0.096544
    18  H    0.080828
    19  H    0.088174
    20  H    0.083987
    21  H    0.156510
    22  H    0.188373
    23  H    0.166293
    24  H    0.155571
    25  H    0.152797
    26  H    0.154421
    27  H    0.203556
    28  H    0.157968
    29  H    0.144099
    30  H    0.146546
    31  H    0.200003
    32  H    0.151393
    33  H    0.150811
    34  H    0.153807
    35  H    0.154879
    36  H    0.203196
    37  H    0.151300
    38  H    0.157072
 Sum of Mulliken charges =  -0.00000

 Dipole moment (field-independent basis, Debye):
    X=             -7.6269    Y=              0.1838    Z=             -0.3086  Tot=              7.6353
 Quadrupole moment (field-independent basis, Debye-Ang):
   XX=           -113.7399   YY=            -97.8227   ZZ=            -97.8453
   XY=              1.2018   XZ=             -0.0884   YZ=             -0.6577

 Summary of Natural Population Analysis:

                                       Natural Population
                Natural  -----------------------------------------------
    Atom  No    Charge         Core      Valence    Rydberg      Total
 -----------------------------------------------------------------------
      P    1    1.40314      9.99741     3.55774    0.04171    13.59686
      C    2   -0.59313      1.99883     4.57203    0.02226     6.59313
      C    3   -0.34676      1.99900     4.32668    0.02108     6.34676
      C    4   -0.21201      1.99907     4.19848    0.01445     6.21201
      C    5   -0.36181      1.99910     4.34458    0.01813     6.36181
      C    6   -0.27972      1.99910     4.26426    0.01636     6.27972
      C    7   -0.23933      1.99904     4.22430    0.01599     6.23933
      C    8   -0.34920      1.99911     4.33260    0.01749     6.34920
      C    9   -0.67680      1.99933     4.66543    0.01204     6.67680
      C   10   -0.68327      1.99938     4.67268    0.01121     6.68327
      C   11   -0.68470      1.99937     4.67321    0.01212     6.68470
      C   12   -0.35292      1.99911     4.33476    0.01904     6.35292
      C   13   -0.69161      1.99937     4.68023    0.01200     6.69161
      C   14   -0.68439      1.99937     4.67401    0.01102     6.68439
      C   15   -0.68086      1.99933     4.66921    0.01233     6.68086
      H   16    0.20301      0.00000     0.79612    0.00088     0.79699
      H   17    0.22248      0.00000     0.77667    0.00085     0.77752
      H   18    0.21368      0.00000     0.78559    0.00072     0.78632
      H   19    0.21824      0.00000     0.78091    0.00085     0.78176
      H   20    0.20604      0.00000     0.79327    0.00069     0.79396
      H   21    0.23150      0.00000     0.76759    0.00091     0.76850
      H   22    0.25114      0.00000     0.74806    0.00079     0.74886
      H   23    0.25148      0.00000     0.74737    0.00115     0.74852
      H   24    0.23366      0.00000     0.76543    0.00091     0.76634
      H   25    0.23900      0.00000     0.75941    0.00159     0.76100
      H   26    0.23532      0.00000     0.76380    0.00088     0.76468
      H   27    0.26815      0.00000     0.73063    0.00122     0.73185
      H   28    0.23892      0.00000     0.76032    0.00076     0.76108
      H   29    0.23542      0.00000     0.76331    0.00127     0.76458
      H   30    0.23070      0.00000     0.76847    0.00083     0.76930
      H   31    0.26491      0.00000     0.73408    0.00101     0.73509
      H   32    0.24028      0.00000     0.75859    0.00113     0.75972
      H   33    0.23262      0.00000     0.76660    0.00078     0.76738
      H   34    0.24064      0.00000     0.75764    0.00172     0.75936
      H   35    0.22899      0.00000     0.77011    0.00090     0.77101
      H   36    0.26864      0.00000     0.73021    0.00115     0.73136
      H   37    0.23341      0.00000     0.76567    0.00092     0.76659
      H   38    0.24513      0.00000     0.75361    0.00125     0.75487
 =======================================================================
   * Total *   -0.00000     37.98591    83.73365    0.28044   122.00000

 Normal termination of Gaussian 16 at Wed Feb 27 01:58:49 2019.
