 Gaussian 16, Revision A.03,

 --------------------------
 # opt=CalcAll B3LYP/genecp
 --------------------------

 -------------------
 Title Card Required
 -------------------
 Symbolic Z-matrix:
 Charge =  0 Multiplicity = 1

 SCF Done:  E(RB3LYP) =  -248.405728572     A.U. after   13 cycles
 SCF Done:  E(RB3LYP) =  -248.406246049     A.U. after   11 cycles
 SCF Done:  E(RB3LYP) =  -248.406257212     A.U. after    9 cycles
 SCF Done:  E(RB3LYP) =  -248.405980209     A.U. after   12 cycles
 SCF Done:  E(RB3LYP) =  -248.406156109     A.U. after   11 cycles
 SCF Done:  E(RB3LYP) =  -248.406257388     A.U. after    8 cycles
 SCF Done:  E(RB3LYP) =  -248.406254887     A.U. after    9 cycles
 SCF Done:  E(RB3LYP) =  -248.406199660     A.U. after   12 cycles
 SCF Done:  E(RB3LYP) =  -248.406261168     A.U. after   11 cycles
 SCF Done:  E(RB3LYP) =  -248.406255264     A.U. after   10 cycles
 SCF Done:  E(RB3LYP) =  -248.406260636     A.U. after    9 cycles
 SCF Done:  E(RB3LYP) =  -248.406263942     A.U. after    9 cycles
 SCF Done:  E(RB3LYP) =  -248.406264028     A.U. after    8 cycles
 SCF Done:  E(RB3LYP) =  -248.406264045     A.U. after    7 cycles
 Optimization completed.
    -- Stationary point found.
 Normal termination of Gaussian 16 at Tue Dec 10 13:06:13 2019.

 ----------------------------------------------------------------------
 # freq B3LYP/genecp volume NMR pop=NPA density=current Geom=AllCheck G
 uess=Read
 ----------------------------------------------------------------------

 Structure from the checkpoint file:  "base_32.chk"
 -------------------
 Title Card Required
 -------------------
 Charge =  0 Multiplicity = 1

 SCF Done:  E(RB3LYP) =  -248.406264045     A.U. after    1 cycles

      1  O    Isotropic =    37.0240   Anisotropy =   325.6241

      2  C    Isotropic =    23.9298   Anisotropy =   101.6692

      3  O    Isotropic =    12.2909   Anisotropy =   315.3062

      4  C    Isotropic =   166.0084   Anisotropy =    40.1431

      5  Cs   Isotropic =    77.7746   Anisotropy =     4.3447

      6  H    Isotropic =    30.6277   Anisotropy =     5.1498

      7  H    Isotropic =    30.6281   Anisotropy =     5.1504

      8  H    Isotropic =    31.0951   Anisotropy =     6.1401

  Exact polarizability:  80.549  -0.677  42.694  -0.000   0.000  30.079
 Approx polarizability:  79.721  -1.021  66.946  -0.000   0.000  36.768

                      1                      2                      3
                      A                      A                      A
 Frequencies --     25.9289                59.3043               154.4334
 Red. masses --      1.0867                 4.5813                 6.7284
 Frc consts  --      0.0004                 0.0095                 0.0945
 IR Inten    --      0.7242                21.3883                13.0959

                      4                      5                      6
                      A                      A                      A
 Frequencies --    174.0146               443.7324               618.7872
 Red. masses --     11.1396                 3.3238                 2.4510
 Frc consts  --      0.1987                 0.3856                 0.5529
 IR Inten    --     30.3309                 0.9706                 7.6617

                      7                      8                      9
                      A                      A                      A
 Frequencies --    646.4370               916.3218              1027.1507
 Red. masses --      6.0553                 7.2493                 1.4579
 Frc consts  --      1.4909                 3.5863                 0.9063
 IR Inten    --     18.1353                16.7246                 6.8743

                     10                     11                     12
                      A                      A                      A
 Frequencies --   1063.8484              1377.1441              1428.8053
 Red. masses --      1.8673                 1.4156                 5.1995
 Frc consts  --      1.2451                 1.5818                 6.2540
 IR Inten    --      6.1805                25.4311               180.9276

                     13                     14                     15
                      A                      A                      A
 Frequencies --   1500.0180              1513.7912              1677.2563
 Red. masses --      1.0934                 1.0508                 8.6498
 Frc consts  --      1.4496                 1.4187                14.3368
 IR Inten    --     27.6163                 2.4892               430.3053

                     16                     17                     18
                      A                      A                      A
 Frequencies --   3046.2504              3105.8072              3141.6592
 Red. masses --      1.0352                 1.1001                 1.1037
 Frc consts  --      5.6600                 6.2523                 6.4185
 IR Inten    --     32.3730                32.5518                37.4940

 - Thermochemistry -
 -------------------
 Temperature   298.150 Kelvin.  Pressure   1.00000 Atm.
 Atom     1 has atomic number  8 and mass  15.99491

 Molecular mass:   191.91873 amu.
 Principal axes and moments of inertia in atomic units:
                           1         2         3
     Eigenvalues --   157.221851826.629561972.70460
           X            1.00000  -0.00074  -0.00000
           Y            0.00074   1.00000   0.00000
           Z            0.00000  -0.00000   1.00000
 This molecule is an asymmetric top.
 Rotational symmetry number  1.
 Rotational temperatures (Kelvin)      0.55090     0.04742     0.04391
 Rotational constants (GHZ):          11.47895     0.98802     0.91486
 Zero-point vibrational energy     131114.8 (Joules/Mol)
                                   31.33720 (Kcal/Mol)
 Warning -- explicit consideration of   6 degrees of freedom as
           vibrations may cause significant error
 Vibrational temperatures:     37.31    85.33   222.20   250.37   638.43
          (Kelvin)            890.30   930.08  1318.38  1477.84  1530.64
                             1981.40  2055.73  2158.19  2178.01  2413.20
                             4382.87  4468.56  4520.15

 Zero-point correction=                           0.049939 (Hartree/Particle)
 Thermal correction to Energy=                    0.056406
 Thermal correction to Enthalpy=                  0.057350
 Thermal correction to Gibbs Free Energy=         0.015986
 Sum of electronic and zero-point Energies=           -248.356325
 Sum of electronic and thermal Energies=              -248.349858
 Sum of electronic and thermal Enthalpies=            -248.348914
 Sum of electronic and thermal Free Energies=         -248.390278

                     E (Thermal)             CV                S
                      KCal/Mol        Cal/Mol-Kelvin    Cal/Mol-Kelvin
 Total                   35.395             18.530             87.058
 Electronic               0.000              0.000              0.000
 Translational            0.889              2.981             41.661
 Rotational               0.889              2.981             27.829
 Vibrational             33.618             12.568             17.568
 Vibration     1          0.593              1.985              6.119
 Vibration     2          0.597              1.974              4.480
 Vibration     3          0.620              1.898              2.617
 Vibration     4          0.627              1.874              2.392
 Vibration     5          0.803              1.375              0.815
 Vibration     6          0.979              0.992              0.418

 Optimization completed.
    -- Stationary point found.
 Normal termination of Gaussian 16 at Tue Dec 10 13:07:16 2019.
 Gaussian 16:  ES64L-G16RevA.03 25-Dec-2016

 ----------------------------------------------------------------------
 # TD(NStates=10, Root=1) B3LYP/genecp volume pop=NPA density=current G
 eom=AllCheck Guess=Read
 ----------------------------------------------------------------------

 Structure from the checkpoint file:  "base_33.chk"
 -------------------
 Title Card Required
 -------------------
 Charge =  0 Multiplicity = 1

                         Standard orientation:
 ---------------------------------------------------------------------
 Center     Atomic      Atomic             Coordinates (Angstroms)
 Number     Number       Type             X           Y           Z
 ---------------------------------------------------------------------
      1          8           0        1.443815   -1.121443    0.000000
      2          6           0        2.013618    0.010201    0.000013
      3          8           0        1.439803    1.138104   -0.000000
      4          6           0        3.554151   -0.004168    0.000002
      5         55           0       -1.241404   -0.001505   -0.000000
      6          1           0        3.918426   -0.547519   -0.880128
      7          1           0        3.918458   -0.548099    0.879755
      8          1           0        3.964807    1.008902    0.000306
 ---------------------------------------------------------------------

 SCF Done:  E(RB3LYP) =  -248.406264045     A.U. after    1 cycles

 Excitation energies and oscillator strengths:

 Excited State   1:      Singlet-A      2.4849 eV  498.95 nm  f=0.0037  <S**2>=0.000
      20 -> 21         0.70489
 This state for optimization and/or second-order correction.
 Total Energy, E(TD-HF/TD-DFT) =  -248.314944882
 Copying the excited state density for this state as the 1-particle RhoCI density.

 Excited State   2:      Singlet-A      2.8667 eV  432.49 nm  f=0.1696  <S**2>=0.000
      19 -> 21         0.70449

 Excited State   3:      Singlet-A      2.8899 eV  429.03 nm  f=0.0000  <S**2>=0.000
      18 -> 21         0.70557

 Excited State   4:      Singlet-A      3.8193 eV  324.62 nm  f=0.0000  <S**2>=0.000
      20 -> 22         0.70359

 Excited State   5:      Singlet-A      3.9630 eV  312.85 nm  f=0.0122  <S**2>=0.000
      20 -> 23         0.69999

 Excited State   6:      Singlet-A      4.0231 eV  308.18 nm  f=0.0425  <S**2>=0.000
      19 -> 22         0.70372

 Excited State   7:      Singlet-A      4.1448 eV  299.13 nm  f=0.0286  <S**2>=0.000
      19 -> 23         0.64560
      20 -> 24        -0.27433

 Excited State   8:      Singlet-A      4.2638 eV  290.79 nm  f=0.0138  <S**2>=0.000
      19 -> 23         0.27827
      20 -> 24         0.64154

 Excited State   9:      Singlet-A      4.2731 eV  290.15 nm  f=0.0014  <S**2>=0.000
      18 -> 22         0.70171

 Excited State  10:      Singlet-A      4.4023 eV  281.64 nm  f=0.0007  <S**2>=0.000
      18 -> 23         0.70314

 The electronic state is 1-A.
 Alpha  occ. eigenvalues --  -19.02062 -19.01845 -10.20667 -10.11036  -1.02158
 Alpha  occ. eigenvalues --   -0.53021  -0.52693  -0.51975  -0.95363  -0.86347
 Alpha  occ. eigenvalues --   -0.65357  -0.43158  -0.36908  -0.36387  -0.35563
 Alpha  occ. eigenvalues --   -0.31510  -0.29129  -0.18312  -0.17493  -0.16646
 Alpha virt. eigenvalues --   -0.05377  -0.00434   0.00021   0.01258   0.04638
 Alpha virt. eigenvalues --    0.05056   0.06505   0.12038   0.19082   0.22389
 Alpha virt. eigenvalues --    0.23997   0.30167   0.41132   0.46033   0.56931

 Mulliken charges:
               1
     1  O   -0.367329
     2  C    0.597363
     3  O   -0.370284
     4  C   -0.553723
     5  Cs   0.102280
     6  H    0.200247
     7  H    0.200241
     8  H    0.191205
 Sum of Mulliken charges =  -0.00000

 Dipole moment (field-independent basis, Debye):
    X=              8.2546    Y=             -0.0241    Z=             -0.0000  Tot=              8.2546
 Quadrupole moment (field-independent basis, Debye-Ang):
   XX=            -66.1187   YY=            -58.8698   ZZ=            -55.3433
   XY=             -0.3668   XZ=             -0.0002   YZ=              0.0000

 Summary of Natural Population Analysis:

                                       Natural Population
                Natural  -----------------------------------------------
    Atom  No    Charge         Core      Valence    Rydberg      Total
 -----------------------------------------------------------------------
      O    1   -0.45721      1.99977     6.44316    0.01428     8.45721
      C    2    0.80166      1.99946     3.14820    0.05067     5.19834
      O    3   -0.45523      1.99977     6.44127    0.01419     8.45523
      C    4   -0.80695      1.99924     4.80035    0.00735     6.80695
     Cs    5    0.12092     54.00014     0.75463    0.12431    54.87908
      H    6    0.26466      0.00000     0.73509    0.00025     0.73534
      H    7    0.26466      0.00000     0.73509    0.00025     0.73534
      H    8    0.25969      0.00000     0.74015    0.00016     0.74031
 =======================================================================
   * Total *   -0.00780     61.99839    23.79793    0.21148    86.00780

 Normal termination of Gaussian 16 at Tue Dec 10 13:09:02 2019.
