 Gaussian 16, Revision A.03,

 ---------------------------------
 # opt=CalcFc B3LYP/genecp scf=xqc
 ---------------------------------

 -------------------
 Title Card Required
 -------------------
 Symbolic Z-matrix:
 Charge =  0 Multiplicity = 1

 SCF Done:  E(RB3LYP) =  -366.233784440     A.U. after   15 cycles
 SCF Done:  E(RB3LYP) =  -366.287257551     A.U. after   12 cycles
 SCF Done:  E(RB3LYP) =  -366.340459809     A.U. after   12 cycles
 SCF Done:  E(RB3LYP) =  -366.291527733     A.U. after   13 cycles
 SCF Done:  E(RB3LYP) =  -366.344640771     A.U. after   12 cycles
 SCF Done:  E(RB3LYP) =  -366.345371734     A.U. after   13 cycles
 SCF Done:  E(RB3LYP) =  -366.211204926     A.U. after   13 cycles
 SCF Done:  E(RB3LYP) =  -366.318918831     A.U. after   11 cycles
 SCF Done:  E(RB3LYP) =  -366.329785584     A.U. after   10 cycles
 SCF Done:  E(RB3LYP) =  -366.337509766     A.U. after   10 cycles
 SCF Done:  E(RB3LYP) =  -366.347996574     A.U. after   10 cycles
 SCF Done:  E(RB3LYP) =  -366.348013706     A.U. after   12 cycles
 SCF Done:  E(RB3LYP) =  -366.348185164     A.U. after   10 cycles
 SCF Done:  E(RB3LYP) =  -366.348202812     A.U. after   11 cycles
 SCF Done:  E(RB3LYP) =  -366.348236556     A.U. after   12 cycles
 SCF Done:  E(RB3LYP) =  -366.348290436     A.U. after   11 cycles
 SCF Done:  E(RB3LYP) =  -366.348292978     A.U. after    9 cycles
 SCF Done:  E(RB3LYP) =  -366.348293098     A.U. after    8 cycles
 Optimization completed.
    -- Stationary point found.
 Normal termination of Gaussian 16 at Sun Dec  8 18:07:54 2019.

 ----------------------------------------------------------------------
 # freq B3LYP/genecp volume NMR pop=NPA density=current Geom=AllCheck G
 uess=Read
 ----------------------------------------------------------------------

 Structure from the checkpoint file:  "base_42.chk"
 -------------------
 Title Card Required
 -------------------
 Charge =  0 Multiplicity = 1

 SCF Done:  E(RB3LYP) =  -366.348293098     A.U. after    1 cycles

      1  O    Isotropic =    36.4140   Anisotropy =   345.8849

      2  C    Isotropic =    16.0679   Anisotropy =   110.6588

      3  O    Isotropic =    56.9329   Anisotropy =   339.6416

      4  C    Isotropic =   145.4607   Anisotropy =    26.5627

      5  C    Isotropic =   160.6987   Anisotropy =    31.5109

      6  C    Isotropic =   158.9783   Anisotropy =    40.4951

      7  C    Isotropic =   158.9789   Anisotropy =    40.4821

      8  Cs   Isotropic =    77.7495   Anisotropy =     5.0811

      9  H    Isotropic =    30.8456   Anisotropy =     7.0306

     10  H    Isotropic =    30.8470   Anisotropy =     7.0311

     11  H    Isotropic =    31.7675   Anisotropy =     7.2730

     12  H    Isotropic =    31.2382   Anisotropy =     7.4442

     13  H    Isotropic =    31.6299   Anisotropy =     7.3246

     14  H    Isotropic =    30.4806   Anisotropy =     6.3059

     15  H    Isotropic =    31.2386   Anisotropy =     7.4446

     16  H    Isotropic =    30.4792   Anisotropy =     6.3057

     17  H    Isotropic =    31.6304   Anisotropy =     7.3243

  Exact polarizability: 112.119   0.248  71.445   0.002   0.000  62.368
 Approx polarizability: 121.877   0.757 107.032   0.001   0.000  80.701

                      1                      2                      3
                      A                      A                      A
 Frequencies --     33.3712                39.8026               109.8988
 Red. masses --      5.5141                 7.1306                 5.4720
 Frc consts  --      0.0036                 0.0067                 0.0389
 IR Inten    --     10.9278                 4.4524                11.0599

                      4                      5                      6
                      A                      A                      A
 Frequencies --    139.0617               217.9414               242.0899
 Red. masses --      8.5254                 1.0804                 1.5209
 Frc consts  --      0.0971                 0.0302                 0.0525
 IR Inten    --     18.8627                 0.7392                 4.8998

                      7                      8                      9
                      A                      A                      A
 Frequencies --    274.7615               277.7982               290.1235
 Red. masses --      1.0869                 1.4753                 2.9935
 Frc consts  --      0.0483                 0.0671                 0.1485
 IR Inten    --      1.3533                 3.6589                 2.9573

                     10                     11                     12
                      A                      A                      A
 Frequencies --    359.9493               370.0028               379.1982
 Red. masses --      2.8481                 3.1146                 2.2402
 Frc consts  --      0.2174                 0.2512                 0.1898
 IR Inten    --      0.2121                23.3736                 1.3033

                     13                     14                     15
                      A                      A                      A
 Frequencies --    526.2167               588.2970               794.1344
 Red. masses --      4.8044                 3.5036                 6.9049
 Frc consts  --      0.7838                 0.7144                 2.5656
 IR Inten    --      4.3367                10.1352                 5.4827

                     16                     17                     18
                      A                      A                      A
 Frequencies --    799.4562               888.0265               946.8545
 Red. masses --      4.5950                 3.3860                 1.7261
 Frc consts  --      1.7303                 1.5732                 0.9118
 IR Inten    --      4.8584                30.4925                 0.5946

                     19                     20                     21
                      A                      A                      A
 Frequencies --    949.9715               970.5567              1057.5585
 Red. masses --      1.6040                 1.2017                 1.4365
 Frc consts  --      0.8529                 0.6670                 0.9466
 IR Inten    --      0.7952                 0.2708                 0.5276

                     22                     23                     24
                      A                      A                      A
 Frequencies --   1059.5097              1243.8906              1257.1071
 Red. masses --      1.4077                 2.7116                 2.4936
 Frc consts  --      0.9311                 2.4719                 2.3217
 IR Inten    --      0.7714                 4.8660                28.4438

                     25                     26                     27
                      A                      A                      A
 Frequencies --   1270.2600              1395.7311              1407.8451
 Red. masses --      2.9025                 2.9236                 1.2307
 Frc consts  --      2.7593                 3.3556                 1.4372
 IR Inten    --     21.1769                87.7367                 3.5650

                     28                     29                     30
                      A                      A                      A
 Frequencies --   1419.7545              1456.5100              1505.5731
 Red. masses --      1.3884                 1.5233                 1.0522
 Frc consts  --      1.6489                 1.9040                 1.4052
 IR Inten    --     24.2138                45.7368                 0.1284

                     31                     32                     33
                      A                      A                      A
 Frequencies --   1512.4293              1521.9337              1526.7856
 Red. masses --      1.0521                 1.0459                 1.0521
 Frc consts  --      1.4180                 1.4273                 1.4450
 IR Inten    --      1.9510                 0.0287                 2.4718

                     34                     35                     36
                      A                      A                      A
 Frequencies --   1529.6622              1550.7229              1661.3087
 Red. masses --      1.0627                 1.0695                11.2165
 Frc consts  --      1.4650                 1.5153                18.2392
 IR Inten    --     11.5288                17.9918               378.2250

                     37                     38                     39
                      A                      A                      A
 Frequencies --   3024.9529              3026.4773              3035.8063
 Red. masses --      1.0379                 1.0403                 1.0419
 Frc consts  --      5.5957                 5.6143                 5.6573
 IR Inten    --     49.6811                15.6803                85.0888

                     40                     41                     42
                      A                      A                      A
 Frequencies --   3080.3982              3083.2705              3103.5599
 Red. masses --      1.1017                 1.1003                 1.0926
 Frc consts  --      6.1594                 6.1628                 6.2003
 IR Inten    --     28.1356                52.1586                56.7891

                     43                     44                     45
                      A                      A                      A
 Frequencies --   3126.0763              3128.9118              3132.9652
 Red. masses --      1.1017                 1.0989                 1.0978
 Frc consts  --      6.3433                 6.3385                 6.3487
 IR Inten    --     30.0059                11.2216                45.5972

 - Thermochemistry -
 -------------------
 Temperature   298.150 Kelvin.  Pressure   1.00000 Atm.
 Atom     1 has atomic number  8 and mass  15.99491

 Molecular mass:   233.96568 amu.
 Principal axes and moments of inertia in atomic units:
                           1         2         3
     Eigenvalues --   543.161774367.388924514.49922
           X            1.00000   0.00020   0.00000
           Y           -0.00020   1.00000  -0.00000
           Z           -0.00000   0.00000   1.00000
 This molecule is an asymmetric top.
 Rotational symmetry number  1.
 Warning -- assumption of classical behavior for rotation
           may cause significant error
 Rotational temperatures (Kelvin)      0.15946     0.01983     0.01919
 Rotational constants (GHZ):           3.32266     0.41323     0.39977
 Zero-point vibrational energy     354791.5 (Joules/Mol)
                                   84.79721 (Kcal/Mol)
 Warning -- explicit consideration of  14 degrees of freedom as
           vibrations may cause significant error
 Vibrational temperatures:     48.01    57.27   158.12   200.08   313.57
          (Kelvin)            348.31   395.32   399.69   417.42   517.89
                              532.35   545.58   757.11   846.43  1142.58
                             1150.24  1277.67  1362.31  1366.80  1396.41
                             1521.59  1524.40  1789.68  1808.70  1827.62
                             2008.15  2025.58  2042.71  2095.59  2166.18
                             2176.05  2189.72  2196.70  2200.84  2231.14
                             2390.25  4352.23  4354.43  4367.85  4432.01
                             4436.14  4465.33  4497.73  4501.81  4507.64

 Zero-point correction=                           0.135133 (Hartree/Particle)
 Thermal correction to Energy=                    0.145329
 Thermal correction to Enthalpy=                  0.146273
 Thermal correction to Gibbs Free Energy=         0.096898
 Sum of electronic and zero-point Energies=           -366.213160
 Sum of electronic and thermal Energies=              -366.202964
 Sum of electronic and thermal Enthalpies=            -366.202020
 Sum of electronic and thermal Free Energies=         -366.251395

                     E (Thermal)             CV                S
                      KCal/Mol        Cal/Mol-Kelvin    Cal/Mol-Kelvin
 Total                   91.195             34.462            103.920
 Electronic               0.000              0.000              0.000
 Translational            0.889              2.981             42.252
 Rotational               0.889              2.981             30.750
 Vibrational             89.418             28.501             30.919
 Vibration     1          0.594              1.983              5.618
 Vibration     2          0.594              1.981              5.269
 Vibration     3          0.606              1.941              3.271
 Vibration     4          0.615              1.914              2.817
 Vibration     5          0.646              1.814              1.976
 Vibration     6          0.658              1.776              1.787
 Vibration     7          0.677              1.720              1.566
 Vibration     8          0.679              1.715              1.547
 Vibration     9          0.686              1.692              1.473
 Vibration    10          0.734              1.555              1.122
 Vibration    11          0.742              1.534              1.080
 Vibration    12          0.749              1.514              1.042
 Vibration    13          0.881              1.192              0.596
 Vibration    14          0.946              1.057              0.470

 Optimization completed.
    -- Stationary point found.
 Normal termination of Gaussian 16 at Sun Dec  8 18:11:17 2019.
 Gaussian 16:  ES64L-G16RevA.03 25-Dec-2016

 ----------------------------------------------------------------------
 # TD(NStates=10, Root=1) B3LYP/genecp volume pop=NPA density=current G
 eom=AllCheck Guess=Read
 ----------------------------------------------------------------------

 Structure from the checkpoint file:  "base_43.chk"
 -------------------
 Title Card Required
 -------------------
 Charge =  0 Multiplicity = 1

                         Standard orientation:
 ---------------------------------------------------------------------
 Center     Atomic      Atomic             Coordinates (Angstroms)
 Number     Number       Type             X           Y           Z
 ---------------------------------------------------------------------
      1          8           0        0.530095   -1.150674   -0.000186
      2          6           0        1.114950   -0.028735   -0.000130
      3          8           0        0.545995    1.104519   -0.000193
      4          6           0        2.677068   -0.012249    0.000071
      5          6           0        3.250436   -1.435778    0.001189
      6          6           0        3.147388    0.748444   -1.256179
      7          6           0        3.147194    0.750398    1.255188
      8         55           0       -2.152663   -0.000012    0.000028
      9          1           0        2.915841   -1.994050   -0.879035
     10          1           0        2.915716   -1.992725    0.882215
     11          1           0        4.349343   -1.411804    0.001275
     12          1           0        2.849459    0.219369   -2.171037
     13          1           0        4.241573    0.847836   -1.269750
     14          1           0        2.701665    1.747127   -1.281021
     15          1           0        2.849195    0.222706    2.170827
     16          1           0        2.701367    1.749061    1.278464
     17          1           0        4.241373    0.849885    1.268719
 ---------------------------------------------------------------------

 SCF Done:  E(RB3LYP) =  -366.348293098     A.U. after    1 cycles

 Excitation energies and oscillator strengths:

 Excited State   1:      Singlet-A      2.6418 eV  469.32 nm  f=0.0031  <S**2>=0.000
      32 -> 33         0.70133
 This state for optimization and/or second-order correction.
 Total Energy, E(TD-HF/TD-DFT) =  -366.251208514
 Copying the excited state density for this state as the 1-particle RhoCI density.

 Excited State   2:      Singlet-A      2.8540 eV  434.42 nm  f=0.1679  <S**2>=0.000
      31 -> 33         0.70218

 Excited State   3:      Singlet-A      3.0312 eV  409.02 nm  f=0.0000  <S**2>=0.000
      30 -> 33         0.70532

 Excited State   4:      Singlet-A      3.9797 eV  311.54 nm  f=0.0012  <S**2>=0.000
      32 -> 34         0.70293

 Excited State   5:      Singlet-A      4.0358 eV  307.21 nm  f=0.0401  <S**2>=0.000
      31 -> 34         0.70313

 Excited State   6:      Singlet-A      4.1117 eV  301.54 nm  f=0.0076  <S**2>=0.000
      32 -> 35         0.69672

 Excited State   7:      Singlet-A      4.1648 eV  297.70 nm  f=0.0363  <S**2>=0.000
      31 -> 35         0.69447

 Excited State   8:      Singlet-A      4.4114 eV  281.05 nm  f=0.0009  <S**2>=0.000
      30 -> 34         0.70174

 Excited State   9:      Singlet-A      4.4192 eV  280.56 nm  f=0.0077  <S**2>=0.000
      31 -> 35         0.10339
      32 -> 36         0.68874
      32 -> 39         0.10091

 Excited State  10:      Singlet-A      4.4994 eV  275.55 nm  f=0.0018  <S**2>=0.000
      31 -> 36         0.69655

 The electronic state is 1-A.
 Alpha  occ. eigenvalues --  -19.02854 -19.02664 -10.20785 -10.13642 -10.12011
 Alpha  occ. eigenvalues --  -10.12008 -10.11362  -1.02518  -0.53372  -0.53053
 Alpha  occ. eigenvalues --   -0.51644  -0.96132  -0.87067  -0.75257  -0.63609
 Alpha  occ. eigenvalues --   -0.63162  -0.54237  -0.43122  -0.39500  -0.38796
 Alpha  occ. eigenvalues --   -0.38621  -0.35088  -0.34891  -0.33205  -0.31768
 Alpha  occ. eigenvalues --   -0.31222  -0.30941  -0.27330  -0.27288  -0.18982
 Alpha  occ. eigenvalues --   -0.17661  -0.17387
 Alpha virt. eigenvalues --   -0.05538  -0.00613  -0.00168   0.01007   0.04396
 Alpha virt. eigenvalues --    0.04888   0.06107   0.11323   0.14649   0.18148
 Alpha virt. eigenvalues --    0.19845   0.20057   0.21001   0.21407   0.23894

 Mulliken charges:
               1
     1  O   -0.363461
     2  C    0.611765
     3  O   -0.390175
     4  C   -0.011194
     5  C   -0.458376
     6  C   -0.458671
     7  C   -0.458670
     8  Cs   0.075126
     9  H    0.160168
    10  H    0.160149
    11  H    0.160242
    12  H    0.155683
    13  H    0.161508
    14  H    0.169357
    15  H    0.155675
    16  H    0.169374
    17  H    0.161502
 Sum of Mulliken charges =  -0.00000

 Dipole moment (field-independent basis, Debye):
    X=              8.9444    Y=             -0.0255    Z=             -0.0005  Tot=              8.9444
 Quadrupole moment (field-independent basis, Debye-Ang):
   XX=            -99.8080   YY=            -78.5089   ZZ=            -75.1722
   XY=              0.0363   XZ=              0.0023   YZ=              0.0001

 Summary of Natural Population Analysis:

                                       Natural Population
                Natural  -----------------------------------------------
    Atom  No    Charge         Core      Valence    Rydberg      Total
 -----------------------------------------------------------------------
      O    1   -0.43354      1.99977     6.41981    0.01396     8.43354
      C    2    0.82753      1.99928     3.11710    0.05610     5.17247
      O    3   -0.47421      1.99977     6.46010    0.01434     8.47421
      C    4   -0.17502      1.99894     4.16449    0.01159     6.17502
      C    5   -0.68195      1.99925     4.67245    0.01026     6.68195
      C    6   -0.67175      1.99924     4.66231    0.01019     6.67175
      C    7   -0.67176      1.99924     4.66232    0.01019     6.67176
     Cs    8    0.10338     53.99940     0.78274    0.11448    54.89662
      H    9    0.24056      0.00000     0.75850    0.00094     0.75944
      H   10    0.24055      0.00000     0.75851    0.00094     0.75945
      H   11    0.24645      0.00000     0.75311    0.00044     0.75355
      H   12    0.23559      0.00000     0.76325    0.00116     0.76441
      H   13    0.24348      0.00000     0.75579    0.00073     0.75652
      H   14    0.24337      0.00000     0.75593    0.00070     0.75663
      H   15    0.23559      0.00000     0.76325    0.00116     0.76441
      H   16    0.24338      0.00000     0.75592    0.00070     0.75662
      H   17    0.24348      0.00000     0.75579    0.00073     0.75652
 =======================================================================
   * Total *   -0.00488     67.99490    41.76136    0.24861   110.00488

 Normal termination of Gaussian 16 at Sun Dec  8 18:15:12 2019.
