 Gaussian 16, Revision A.03,

 -----------------------------------------
 # opt=CalcFc B3LYP/6-31G* scf=xqc scf=xqc
 -----------------------------------------

 -------------------
 Title Card Required
 -------------------
 Symbolic Z-matrix:
 Charge =  0 Multiplicity = 1

 SCF Done:  E(RB3LYP) =  -828.331355449     A.U. after   14 cycles
 SCF Done:  E(RB3LYP) =  -828.384063252     A.U. after   11 cycles
 SCF Done:  E(RB3LYP) =  -828.439039073     A.U. after   12 cycles
 SCF Done:  E(RB3LYP) =  -828.441225016     A.U. after   12 cycles
 SCF Done:  E(RB3LYP) =  -828.442058446     A.U. after   12 cycles
 SCF Done:  E(RB3LYP) =  -828.440684652     A.U. after   12 cycles
 SCF Done:  E(RB3LYP) =  -828.442571102     A.U. after   10 cycles
 SCF Done:  E(RB3LYP) =  -828.444032733     A.U. after   10 cycles
 SCF Done:  E(RB3LYP) =  -828.445072987     A.U. after   11 cycles
 SCF Done:  E(RB3LYP) =  -828.445265579     A.U. after   10 cycles
 SCF Done:  E(RB3LYP) =  -828.445317449     A.U. after    8 cycles
 SCF Done:  E(RB3LYP) =  -828.445317583     A.U. after    7 cycles
 SCF Done:  E(RB3LYP) =  -828.445318175     A.U. after    9 cycles
 SCF Done:  E(RB3LYP) =  -828.445319076     A.U. after    9 cycles
 SCF Done:  E(RB3LYP) =  -828.445319744     A.U. after    9 cycles
 SCF Done:  E(RB3LYP) =  -828.445320097     A.U. after    9 cycles
 SCF Done:  E(RB3LYP) =  -828.445320269     A.U. after    8 cycles
 SCF Done:  E(RB3LYP) =  -828.445320274     A.U. after    7 cycles
 Optimization completed.
    -- Stationary point found.
 Normal termination of Gaussian 16 at Sun Dec  8 17:59:24 2019.

 ----------------------------------------------------------------------
 # freq B3LYP/6-31G* scf=xqc volume NMR pop=NPA density=current Geom=Al
 lCheck Guess=Read
 ----------------------------------------------------------------------

 Structure from the checkpoint file:  "base_12.chk"
 -------------------
 Title Card Required
 -------------------
 Charge =  0 Multiplicity = 1

 SCF Done:  E(RB3LYP) =  -828.445320274     A.U. after    1 cycles

      1  O    Isotropic =    30.0644   Anisotropy =   310.1108

      2  C    Isotropic =    19.4377   Anisotropy =   106.5248

      3  O    Isotropic =     6.9248   Anisotropy =   303.5098

      4  C    Isotropic =   163.7382   Anisotropy =    42.4769

      5  K    Isotropic =  1286.0105   Anisotropy =    40.8048

      6  H    Isotropic =    30.4957   Anisotropy =     5.1775

      7  H    Isotropic =    30.9023   Anisotropy =     5.9359

      8  H    Isotropic =    30.4973   Anisotropy =     5.1801

  Exact polarizability:  58.369   0.468  39.545  -0.001  -0.000  27.886
 Approx polarizability:  63.695   0.909  64.262  -0.001  -0.000  37.074

                      1                      2                      3
                      A                      A                      A
 Frequencies --     24.9022                76.0227               199.5756
 Red. masses --      1.0961                 4.9451                 6.9995
 Frc consts  --      0.0004                 0.0168                 0.1643
 IR Inten    --      1.4665                27.0883                19.9736

                      4                      5                      6
                      A                      A                      A
 Frequencies --    262.2321               451.4808               616.9335
 Red. masses --     14.1074                 3.5090                 2.5135
 Frc consts  --      0.5716                 0.4214                 0.5637
 IR Inten    --     43.0635                 0.5519                 7.6394

                      7                      8                      9
                      A                      A                      A
 Frequencies --    659.7903               925.2324              1031.7256
 Red. masses --      6.1973                 7.2377                 1.4605
 Frc consts  --      1.5895                 3.6505                 0.9160
 IR Inten    --     29.1201                12.1374                 7.6401

                     10                     11                     12
                      A                      A                      A
 Frequencies --   1069.0842              1383.2540              1439.3398
 Red. masses --      1.8415                 1.4120                 4.9649
 Frc consts  --      1.2401                 1.5918                 6.0602
 IR Inten    --      5.4846                21.8732               223.0332

                     13                     14                     15
                      A                      A                      A
 Frequencies --   1498.0098              1510.7128              1644.7032
 Red. masses --      1.1183                 1.0498                 7.7060
 Frc consts  --      1.4786                 1.4116                12.2816
 IR Inten    --     40.8643                 4.0665               409.2433

                     16                     17                     18
                      A                      A                      A
 Frequencies --   3053.9905              3114.9875              3152.7001
 Red. masses --      1.0355                 1.1002                 1.1039
 Frc consts  --      5.6905                 6.2898                 6.4644
 IR Inten    --     18.0128                23.7491                27.9332

 - Thermochemistry -
 -------------------
 Temperature   298.150 Kelvin.  Pressure   1.00000 Atm.
 Atom     1 has atomic number  8 and mass  15.99491

 Molecular mass:    97.97701 amu.
 Principal axes and moments of inertia in atomic units:
                           1         2         3
     Eigenvalues --   156.44312 900.533171045.81847
           X            1.00000   0.00090  -0.00000
           Y           -0.00090   1.00000  -0.00000
           Z            0.00000   0.00000   1.00000
 This molecule is an asymmetric top.
 Rotational symmetry number  1.
 Rotational temperatures (Kelvin)      0.55364     0.09618     0.08282
 Rotational constants (GHZ):          11.53609     2.00408     1.72567
 Zero-point vibrational energy     132275.1 (Joules/Mol)
                                   31.61452 (Kcal/Mol)
 Warning -- explicit consideration of   6 degrees of freedom as
           vibrations may cause significant error
 Vibrational temperatures:     35.83   109.38   287.14   377.29   649.58
          (Kelvin)            887.63   949.29  1331.20  1484.42  1538.17
                             1990.19  2070.89  2155.30  2173.58  2366.36
                             4394.01  4481.77  4536.03

 Zero-point correction=                           0.050381 (Hartree/Particle)
 Thermal correction to Energy=                    0.056594
 Thermal correction to Enthalpy=                  0.057539
 Thermal correction to Gibbs Free Energy=         0.018561
 Sum of electronic and zero-point Energies=           -828.394939
 Sum of electronic and thermal Energies=              -828.388726
 Sum of electronic and thermal Enthalpies=            -828.387782
 Sum of electronic and thermal Free Energies=         -828.426759

                     E (Thermal)             CV                S
                      KCal/Mol        Cal/Mol-Kelvin    Cal/Mol-Kelvin
 Total                   35.513             18.271             82.035
 Electronic               0.000              0.000              0.000
 Translational            0.889              2.981             39.657
 Rotational               0.889              2.981             26.491
 Vibrational             33.736             12.309             15.887
 Vibration     1          0.593              1.985              6.199
 Vibration     2          0.599              1.965              3.991
 Vibration     3          0.638              1.840              2.137
 Vibration     4          0.670              1.742              1.647
 Vibration     5          0.810              1.358              0.791
 Vibration     6          0.977              0.996              0.421

 Optimization completed on the basis of negligible forces.
    -- Stationary point found.
 Normal termination of Gaussian 16 at Sun Dec  8 18:00:46 2019.
 Gaussian 16:  ES64L-G16RevA.03 25-Dec-2016

 ----------------------------------------------------------------------
 # TD(NStates=10, Root=1) B3LYP/6-31G* scf=xqc volume pop=NPA density=c
 urrent Geom=AllCheck Guess=Read
 ----------------------------------------------------------------------

 Structure from the checkpoint file:  "base_13.chk"
 -------------------
 Title Card Required
 -------------------
 Charge =  0 Multiplicity = 1

                         Standard orientation:
 ---------------------------------------------------------------------
 Center     Atomic      Atomic             Coordinates (Angstroms)
 Number     Number       Type             X           Y           Z
 ---------------------------------------------------------------------
      1          8           0        0.384103    1.119738    0.000021
      2          6           0        0.965806   -0.009712    0.000081
      3          8           0        0.377122   -1.133726    0.000019
      4          6           0        2.498067    0.001513   -0.000010
      5         19           0       -1.868306    0.004505   -0.000016
      6          1           0        2.860720    0.542619   -0.881435
      7          1           0        2.903109   -1.012953    0.001675
      8          1           0        2.860946    0.545840    0.879314
 ---------------------------------------------------------------------

 SCF Done:  E(RB3LYP) =  -828.445320274     A.U. after    1 cycles

 Excitation energies and oscillator strengths:

 Excited State   1:      Singlet-A      3.4125 eV  363.32 nm  f=0.0031  <S**2>=0.000
      25 -> 26         0.70383
 This state for optimization and/or second-order correction.
 Total Energy, E(TD-HF/TD-DFT) =  -828.319912100
 Copying the excited state density for this state as the 1-particle RhoCI density.

 Excited State   2:      Singlet-A      3.7898 eV  327.15 nm  f=0.0000  <S**2>=0.000
      23 -> 26         0.70431

 Excited State   3:      Singlet-A      3.8555 eV  321.58 nm  f=0.1037  <S**2>=0.000
      24 -> 26         0.70366

 Excited State   4:      Singlet-A      4.7502 eV  261.01 nm  f=0.0000  <S**2>=0.000
      25 -> 27         0.70266

 Excited State   5:      Singlet-A      4.9383 eV  251.07 nm  f=0.0078  <S**2>=0.000
      25 -> 28         0.70033

 Excited State   6:      Singlet-A      5.0740 eV  244.35 nm  f=0.0107  <S**2>=0.000
      24 -> 27         0.70288

 Excited State   7:      Singlet-A      5.1312 eV  241.63 nm  f=0.0001  <S**2>=0.000
      24 -> 28         0.28989
      25 -> 29         0.62848
      25 -> 30         0.12634

 Excited State   8:      Singlet-A      5.1733 eV  239.66 nm  f=0.0025  <S**2>=0.000
      23 -> 27         0.70309

 Excited State   9:      Singlet-A      5.2863 eV  234.54 nm  f=0.0124  <S**2>=0.000
      24 -> 28         0.64121
      25 -> 29        -0.28982

 Excited State  10:      Singlet-A      5.3428 eV  232.06 nm  f=0.0018  <S**2>=0.000
      23 -> 28         0.70398

 The electronic state is 1-A.
 Alpha  occ. eigenvalues -- -129.76792 -19.05504 -19.05269 -13.20421 -10.54609
 Alpha  occ. eigenvalues --  -10.54571 -10.54530 -10.23849 -10.13894  -1.37309
 Alpha  occ. eigenvalues --   -0.98600  -0.89292  -0.74215  -0.73785  -0.73482
 Alpha  occ. eigenvalues --   -0.67531  -0.46059  -0.39260  -0.38985  -0.38386
 Alpha  occ. eigenvalues --   -0.33973  -0.31687  -0.21260  -0.20946  -0.19743
 Alpha virt. eigenvalues --   -0.04683   0.00303   0.00866   0.01943   0.04119
 Alpha virt. eigenvalues --    0.06683   0.07340   0.09337   0.09635   0.19084
 Alpha virt. eigenvalues --    0.20702   0.22241   0.27632   0.29180   0.29717

 Mulliken charges:
               1
     1  O   -0.363511
     2  C    0.659809
     3  O   -0.370326
     4  C   -0.553857
     5  K    0.001831
     6  H    0.211933
     7  H    0.202231
     8  H    0.211889
 Sum of Mulliken charges =   0.00000

 Dipole moment (field-independent basis, Debye):
    X=              8.5244    Y=              0.0401    Z=             -0.0002  Tot=              8.5245
 Quadrupole moment (field-independent basis, Debye-Ang):
   XX=            -61.8956   YY=            -47.1120   ZZ=            -44.1058
   XY=              0.2936   XZ=             -0.0013   YZ=             -0.0000

 Summary of Natural Population Analysis:

                                       Natural Population
                Natural  -----------------------------------------------
    Atom  No    Charge         Core      Valence    Rydberg      Total
 -----------------------------------------------------------------------
      O    1   -0.43458      1.99983     6.41968    0.01507     8.43458
      C    2    0.78899      1.99960     3.15956    0.05185     5.21101
      O    3   -0.43362      1.99983     6.41864    0.01515     8.43362
      C    4   -0.80342      1.99936     4.79690    0.00716     6.80342
      K    5    0.05032     18.00078     0.85275    0.09615    18.94968
      H    6    0.27237      0.00000     0.72756    0.00007     0.72763
      H    7    0.26650      0.00000     0.73340    0.00011     0.73350
      H    8    0.27235      0.00000     0.72758    0.00007     0.72765
 =======================================================================
   * Total *   -0.02110     25.99940    23.83608    0.18562    50.02110

 Normal termination of Gaussian 16 at Sun Dec  8 18:03:02 2019.
