 Gaussian 16, Revision A.03,

 -----------------------------------------
 # opt=CalcFc B3LYP/6-31G* scf=xqc scf=xqc
 -----------------------------------------

 -------------------
 Title Card Required
 -------------------
 Symbolic Z-matrix:
 Charge =  0 Multiplicity = 1

 SCF Done:  E(RB3LYP) =  -946.319768846     A.U. after   13 cycles
 SCF Done:  E(RB3LYP) =  -946.367724894     A.U. after   12 cycles
 SCF Done:  E(RB3LYP) =  -946.377457549     A.U. after   13 cycles
 SCF Done:  E(RB3LYP) =  -946.348127274     A.U. after   13 cycles
 SCF Done:  E(RB3LYP) =  -946.381946891     A.U. after   12 cycles
 SCF Done:  E(RB3LYP) =  -946.386970415     A.U. after   13 cycles
 SCF Done:  E(RB3LYP) =  -946.384878364     A.U. after   13 cycles
 SCF Done:  E(RB3LYP) =  -946.387686249     A.U. after   11 cycles
 SCF Done:  E(RB3LYP) =  -946.387740529     A.U. after   10 cycles
 SCF Done:  E(RB3LYP) =  -946.387763499     A.U. after   10 cycles
 SCF Done:  E(RB3LYP) =  -946.387774450     A.U. after   10 cycles
 SCF Done:  E(RB3LYP) =  -946.387791278     A.U. after   10 cycles
 SCF Done:  E(RB3LYP) =  -946.387800440     A.U. after   10 cycles
 SCF Done:  E(RB3LYP) =  -946.387800696     A.U. after    8 cycles
 SCF Done:  E(RB3LYP) =  -946.387800763     A.U. after    8 cycles
 Optimization completed.
    -- Stationary point found.
 Normal termination of Gaussian 16 at Sun Dec  8 18:01:14 2019.

 ----------------------------------------------------------------------
 # freq B3LYP/6-31G* scf=xqc volume NMR pop=NPA density=current Geom=Al
 lCheck Guess=Read
 ----------------------------------------------------------------------

 Structure from the checkpoint file:  "base_22.chk"
 -------------------
 Title Card Required
 -------------------
 Charge =  0 Multiplicity = 1

 SCF Done:  E(RB3LYP) =  -946.387800763     A.U. after    1 cycles

      1  O    Isotropic =    27.8484   Anisotropy =   331.9497

      2  C    Isotropic =    11.3401   Anisotropy =   114.6019

      3  O    Isotropic =    46.0592   Anisotropy =   327.5974

      4  C    Isotropic =   147.4831   Anisotropy =    22.6286

      5  C    Isotropic =   161.7083   Anisotropy =    31.0214

      6  C    Isotropic =   159.8125   Anisotropy =    40.1322

      7  C    Isotropic =   159.8159   Anisotropy =    40.1191

      8  K    Isotropic =  1287.9448   Anisotropy =    39.1010

      9  H    Isotropic =    30.8348   Anisotropy =     7.3597

     10  H    Isotropic =    30.8357   Anisotropy =     7.3603

     11  H    Isotropic =    31.7041   Anisotropy =     7.1916

     12  H    Isotropic =    31.1749   Anisotropy =     7.8235

     13  H    Isotropic =    31.5250   Anisotropy =     7.2604

     14  H    Isotropic =    30.4881   Anisotropy =     6.7774

     15  H    Isotropic =    31.1752   Anisotropy =     7.8241

     16  H    Isotropic =    30.4874   Anisotropy =     6.7777

     17  H    Isotropic =    31.5255   Anisotropy =     7.2602

  Exact polarizability:  93.582   0.419  68.452   0.000  -0.000  59.970
 Approx polarizability: 110.180   0.973 104.784   0.001  -0.000  80.643

                      1                      2                      3
                      A                      A                      A
 Frequencies --     34.7316                50.7910               144.2023
 Red. masses --      6.4105                 7.1797                 5.3262
 Frc consts  --      0.0046                 0.0109                 0.0653
 IR Inten    --      2.5713                19.4446                15.3861

                      4                      5                      6
                      A                      A                      A
 Frequencies --    215.6744               218.6806               243.3961
 Red. masses --      1.0784                 8.5328                 1.5223
 Frc consts  --      0.0296                 0.2404                 0.0531
 IR Inten    --      0.8085                24.1338                 4.7076

                      7                      8                      9
                      A                      A                      A
 Frequencies --    273.4251               278.2659               300.9190
 Red. masses --      1.0479                 1.4863                 3.3798
 Frc consts  --      0.0462                 0.0678                 0.1803
 IR Inten    --      0.6151                 3.4953                 5.6382

                     10                     11                     12
                      A                      A                      A
 Frequencies --    364.5365               378.8523               384.6715
 Red. masses --      3.0515                 2.2548                 3.3593
 Frc consts  --      0.2389                 0.1907                 0.2929
 IR Inten    --      0.2158                 1.2707                33.8728

                     13                     14                     15
                      A                      A                      A
 Frequencies --    527.5200               595.6456               791.4536
 Red. masses --      4.9286                 3.6165                 6.8855
 Frc consts  --      0.8081                 0.7560                 2.5412
 IR Inten    --      3.5889                15.9905                 5.0505

                     16                     17                     18
                      A                      A                      A
 Frequencies --    803.9497               893.1298               947.1105
 Red. masses --      4.3702                 3.5163                 1.7358
 Frc consts  --      1.6642                 1.6526                 0.9174
 IR Inten    --      5.9209                27.9244                 0.8712

                     19                     20                     21
                      A                      A                      A
 Frequencies --    951.1066               972.5641              1058.0628
 Red. masses --      1.6110                 1.2005                 1.4380
 Frc consts  --      0.8586                 0.6690                 0.9485
 IR Inten    --      0.8881                 0.1803                 0.4867

                     22                     23                     24
                      A                      A                      A
 Frequencies --   1060.0869              1242.9392              1257.1863
 Red. masses --      1.4056                 2.7008                 2.5159
 Frc consts  --      0.9307                 2.4583                 2.3428
 IR Inten    --      0.9054                 3.9264                29.0967

                     25                     26                     27
                      A                      A                      A
 Frequencies --   1269.0856              1402.2129              1410.8501
 Red. masses --      2.9092                 2.5663                 1.2258
 Frc consts  --      2.7606                 2.9730                 1.4376
 IR Inten    --     25.1196                97.2858                 3.4726

                     28                     29                     30
                      A                      A                      A
 Frequencies --   1422.9436              1460.0476              1506.0292
 Red. masses --      1.4349                 1.5532                 1.0513
 Frc consts  --      1.7117                 1.9507                 1.4049
 IR Inten    --     31.2663                61.3992                 0.0716

                     31                     32                     33
                      A                      A                      A
 Frequencies --   1512.5252              1521.8295              1526.6807
 Red. masses --      1.0556                 1.0454                 1.0516
 Frc consts  --      1.4229                 1.4264                 1.4441
 IR Inten    --      2.5216                 0.0090                 3.0932

                     34                     35                     36
                      A                      A                      A
 Frequencies --   1530.0589              1550.9982              1625.8494
 Red. masses --      1.0624                 1.0753                10.5985
 Frc consts  --      1.4654                 1.5240                16.5065
 IR Inten    --     12.2899                24.7193               357.3476

                     37                     38                     39
                      A                      A                      A
 Frequencies --   3031.5704              3033.4173              3042.5375
 Red. masses --      1.0369                 1.0385                 1.0405
 Frc consts  --      5.6149                 5.6302                 5.6750
 IR Inten    --     48.0110                13.3733                57.8811

                     40                     41                     42
                      A                      A                      A
 Frequencies --   3088.3590              3090.9391              3108.5780
 Red. masses --      1.1025                 1.1010                 1.0955
 Frc consts  --      6.1955                 6.1973                 6.2371
 IR Inten    --     23.5138                44.7228                56.1865

                     43                     44                     45
                      A                      A                      A
 Frequencies --   3128.8349              3131.4627              3135.5186
 Red. masses --      1.1020                 1.0996                 1.0986
 Frc consts  --      6.3562                 6.3530                 6.3637
 IR Inten    --     28.1584                 9.7503                43.1308

 - Thermochemistry -
 -------------------
 Temperature   298.150 Kelvin.  Pressure   1.00000 Atm.
 Atom     1 has atomic number  8 and mass  15.99491

 Molecular mass:   140.02396 amu.
 Principal axes and moments of inertia in atomic units:
                           1         2         3
     Eigenvalues --   542.738292174.784222320.62092
           X            1.00000  -0.00023   0.00000
           Y            0.00023   1.00000  -0.00000
           Z           -0.00000   0.00000   1.00000
 This molecule is an asymmetric top.
 Rotational symmetry number  1.
 Warning -- assumption of classical behavior for rotation
           may cause significant error
 Rotational temperatures (Kelvin)      0.15959     0.03983     0.03732
 Rotational constants (GHZ):           3.32525     0.82985     0.77770
 Zero-point vibrational energy     356004.1 (Joules/Mol)
                                   85.08701 (Kcal/Mol)
 Warning -- explicit consideration of  14 degrees of freedom as
           vibrations may cause significant error
 Vibrational temperatures:     49.97    73.08   207.47   310.31   314.63
          (Kelvin)            350.19   393.40   400.36   432.96   524.49
                              545.08   553.46   758.98   857.00  1138.73
                             1156.70  1285.01  1362.68  1368.43  1399.30
                             1522.32  1525.23  1788.31  1808.81  1825.93
                             2017.47  2029.90  2047.30  2100.68  2166.84
                             2176.19  2189.57  2196.55  2201.41  2231.54
                             2339.23  4361.75  4364.41  4377.53  4443.46
                             4447.17  4472.55  4501.70  4505.48  4511.31

 Zero-point correction=                           0.135595 (Hartree/Particle)
 Thermal correction to Energy=                    0.145534
 Thermal correction to Enthalpy=                  0.146478
 Thermal correction to Gibbs Free Energy=         0.099461
 Sum of electronic and zero-point Energies=           -946.252206
 Sum of electronic and thermal Energies=              -946.242267
 Sum of electronic and thermal Enthalpies=            -946.241322
 Sum of electronic and thermal Free Energies=         -946.288340

                     E (Thermal)             CV                S
                      KCal/Mol        Cal/Mol-Kelvin    Cal/Mol-Kelvin
 Total                   91.324             34.234             98.957
 Electronic               0.000              0.000              0.000
 Translational            0.889              2.981             40.721
 Rotational               0.889              2.981             29.395
 Vibrational             89.547             28.273             28.841
 Vibration     1          0.594              1.983              5.539
 Vibration     2          0.595              1.977              4.786
 Vibration     3          0.616              1.909              2.747
 Vibration     4          0.645              1.817              1.995
 Vibration     5          0.646              1.813              1.970
 Vibration     6          0.659              1.774              1.778
 Vibration     7          0.676              1.722              1.574
 Vibration     8          0.679              1.714              1.544
 Vibration     9          0.693              1.672              1.412
 Vibration    10          0.738              1.545              1.103
 Vibration    11          0.749              1.515              1.044
 Vibration    12          0.754              1.503              1.021
 Vibration    13          0.882              1.189              0.593
 Vibration    14          0.953              1.041              0.457

 Optimization completed.
    -- Stationary point found.
 Normal termination of Gaussian 16 at Sun Dec  8 18:04:54 2019.
 Gaussian 16:  ES64L-G16RevA.03 25-Dec-2016

 ----------------------------------------------------------------------
 # TD(NStates=10, Root=1) B3LYP/6-31G* scf=xqc volume pop=NPA density=c
 urrent Geom=AllCheck Guess=Read
 ----------------------------------------------------------------------

 Structure from the checkpoint file:  "base_23.chk"
 -------------------
 Title Card Required
 -------------------
 Charge =  0 Multiplicity = 1

                         Standard orientation:
 ---------------------------------------------------------------------
 Center     Atomic      Atomic             Coordinates (Angstroms)
 Number     Number       Type             X           Y           Z
 ---------------------------------------------------------------------
      1          8           0        0.633930    1.146195    0.000200
      2          6           0        0.034791    0.027836    0.000192
      3          8           0        0.617512   -1.102361    0.000204
      4          6           0       -1.520387    0.011866   -0.000008
      5          6           0       -2.091497    1.436562    0.000616
      6          6           0       -1.989603   -0.748261   -1.257721
      7          6           0       -1.990039   -0.749546    1.256755
      8         19           0        2.878346    0.000403   -0.000051
      9          1           0       -1.759315    1.994827   -0.880298
     10          1           0       -1.759629    1.993947    0.882211
     11          1           0       -3.189416    1.409412    0.000417
     12          1           0       -1.687237   -0.221736   -2.172154
     13          1           0       -3.083718   -0.838303   -1.271003
     14          1           0       -1.553897   -1.751180   -1.282296
     15          1           0       -1.687939   -0.223993    2.171830
     16          1           0       -1.554386   -1.752506    1.280431
     17          1           0       -3.084163   -0.839540    1.269591
 ---------------------------------------------------------------------

 SCF Done:  E(RB3LYP) =  -946.387800763     A.U. after    1 cycles

 Excitation energies and oscillator strengths:

 Excited State   1:      Singlet-A      3.4900 eV  355.25 nm  f=0.0024  <S**2>=0.000
      37 -> 38         0.70337
 This state for optimization and/or second-order correction.
 Total Energy, E(TD-HF/TD-DFT) =  -946.259544208
 Copying the excited state density for this state as the 1-particle RhoCI density.

 Excited State   2:      Singlet-A      3.7554 eV  330.15 nm  f=0.1106  <S**2>=0.000
      36 -> 38         0.70444

 Excited State   3:      Singlet-A      3.8544 eV  321.67 nm  f=0.0000  <S**2>=0.000
      35 -> 38         0.70428

 Excited State   4:      Singlet-A      4.8394 eV  256.20 nm  f=0.0000  <S**2>=0.000
      37 -> 39         0.70262

 Excited State   5:      Singlet-A      4.9885 eV  248.54 nm  f=0.0117  <S**2>=0.000
      36 -> 39         0.70287

 Excited State   6:      Singlet-A      5.0177 eV  247.09 nm  f=0.0045  <S**2>=0.000
      37 -> 40         0.69918

 Excited State   7:      Singlet-A      5.1535 eV  240.58 nm  f=0.0065  <S**2>=0.000
      36 -> 40         0.66113
      37 -> 41        -0.23336

 Excited State   8:      Singlet-A      5.2412 eV  236.56 nm  f=0.0018  <S**2>=0.000
      35 -> 39         0.70252

 Excited State   9:      Singlet-A      5.3068 eV  233.63 nm  f=0.0109  <S**2>=0.000
      36 -> 40         0.24176
      37 -> 41         0.65083
      37 -> 42        -0.11072

 Excited State  10:      Singlet-A      5.4100 eV  229.18 nm  f=0.0018  <S**2>=0.000
      35 -> 40         0.70376

 The electronic state is 1-A.
 Alpha  occ. eigenvalues -- -129.77119 -19.05989 -19.05763 -13.20744 -10.54932
 Alpha  occ. eigenvalues --  -10.54895 -10.54854 -10.23672 -10.15944 -10.14150
 Alpha  occ. eigenvalues --  -10.14149 -10.13489  -1.37624  -0.99076  -0.89716
 Alpha  occ. eigenvalues --   -0.77014  -0.74524  -0.74105  -0.73599  -0.65010
 Alpha  occ. eigenvalues --   -0.64556  -0.55570  -0.44974  -0.41736  -0.40384
 Alpha  occ. eigenvalues --   -0.40281  -0.37126  -0.36735  -0.34838  -0.33371
 Alpha  occ. eigenvalues --   -0.33145  -0.32695  -0.28909  -0.28892  -0.21658
 Alpha  occ. eigenvalues --   -0.20704  -0.20190
 Alpha virt. eigenvalues --   -0.04847   0.00124   0.00702   0.01858   0.03995
 Alpha virt. eigenvalues --    0.06268   0.07195   0.09038   0.09158   0.14413
 Alpha virt. eigenvalues --    0.17612   0.18704   0.18872   0.19977   0.20289

 Mulliken charges:
               1
     1  O   -0.379796
     2  C    0.697336
     3  O   -0.397948
     4  C   -0.024829
     5  C   -0.460662
     6  C   -0.459752
     7  C   -0.459748
     8  K   -0.016351
     9  H    0.166125
    10  H    0.166115
    11  H    0.163724
    12  H    0.163081
    13  H    0.165187
    14  H    0.174630
    15  H    0.163074
    16  H    0.174634
    17  H    0.165181
 Sum of Mulliken charges =  -0.00000

 Dipole moment (field-independent basis, Debye):
    X=             -8.9775    Y=              0.0274    Z=              0.0005  Tot=              8.9776
 Quadrupole moment (field-independent basis, Debye-Ang):
   XX=            -97.0781   YY=            -66.1384   ZZ=            -63.2424
   XY=              0.1282   XZ=              0.0032   YZ=              0.0001

 Summary of Natural Population Analysis:

                                       Natural Population
                Natural  -----------------------------------------------
    Atom  No    Charge         Core      Valence    Rydberg      Total
 -----------------------------------------------------------------------
      O    1   -0.42010      1.99983     6.40559    0.01469     8.42010
      C    2    0.81335      1.99941     3.12961    0.05763     5.18665
      O    3   -0.45369      1.99983     6.43914    0.01472     8.45369
      C    4   -0.16705      1.99906     4.15625    0.01173     6.16705
      C    5   -0.68609      1.99939     4.67638    0.01032     6.68609
      C    6   -0.67526      1.99938     4.66588    0.01001     6.67526
      C    7   -0.67527      1.99938     4.66588    0.01001     6.67527
      K    8    0.04662     18.00055     0.86198    0.09086    18.95338
      H    9    0.24393      0.00000     0.75537    0.00070     0.75607
      H   10    0.24392      0.00000     0.75538    0.00070     0.75608
      H   11    0.24951      0.00000     0.75010    0.00038     0.75049
      H   12    0.23943      0.00000     0.75972    0.00086     0.76057
      H   13    0.24671      0.00000     0.75265    0.00064     0.75329
      H   14    0.24622      0.00000     0.75326    0.00051     0.75378
      H   15    0.23942      0.00000     0.75972    0.00086     0.76058
      H   16    0.24623      0.00000     0.75326    0.00051     0.75377
      H   17    0.24671      0.00000     0.75265    0.00064     0.75329
 =======================================================================
   * Total *   -0.01541     31.99682    41.79282    0.22577    74.01541

 Normal termination of Gaussian 16 at Sun Dec  8 18:09:30 2019.
