 Gaussian 16, Revision A.03,

 ---------------------------------
 # opt=CalcAll B3LYP/6-31G* scf=qc
 ---------------------------------

 -------------------
 Title Card Required
 -------------------
 Symbolic Z-matrix:
 Charge =  0 Multiplicity = 1

 SCF Done:  E(RB3LYP) =  -132.734379113     a.u. after    8 cycles
 SCF Done:  E(RB3LYP) =  -132.751665593     a.u. after    9 cycles
 SCF Done:  E(RB3LYP) =  -132.754817307     a.u. after    6 cycles
 SCF Done:  E(RB3LYP) =  -132.754928297     a.u. after    3 cycles
 Optimization completed.
    -- Stationary point found.
 Normal termination of Gaussian 16 at Thu Dec 26 12:42:22 2019.

 ----------------------------------------------------------------------
 # freq B3LYP/6-31G* scf=qc volume NMR pop=NPA density=current Geom=All
 Check Guess=Read
 ----------------------------------------------------------------------

 Structure from the checkpoint file:  "Suzuki_solvent_32.chk"
 -------------------
 Title Card Required
 -------------------
 Charge =  0 Multiplicity = 1

 SCF Done:  E(RB3LYP) =  -132.754928297     a.u. after    1 cycles

      1  N    Isotropic =    -1.6109   Anisotropy =   470.7644

      2  C    Isotropic =    86.8488   Anisotropy =   304.6184

      3  C    Isotropic =   187.8659   Anisotropy =    20.7477

      4  H    Isotropic =    30.5833   Anisotropy =     8.5239

      5  H    Isotropic =    30.5833   Anisotropy =     8.5239

      6  H    Isotropic =    30.5833   Anisotropy =     8.5222

  Exact polarizability:  34.062   0.000  17.421  -0.002   0.000  17.418
 Approx polarizability:  56.901   0.000  22.961  -0.003   0.000  22.955

                      1                      2                      3
                      A                      A                      A
 Frequencies --    387.2027               387.3370               935.8614
 Red. masses --      3.8134                 3.8151                 4.6119
 Frc consts  --      0.3369                 0.3372                 2.3799
 IR Inten    --      0.5562                 0.5571                 1.8878

                      4                      5                      6
                      A                      A                      A
 Frequencies --   1076.9781              1077.2128              1438.7383
 Red. masses --      1.4418                 1.4415                 1.2307
 Frc consts  --      0.9853                 0.9855                 1.5009
 IR Inten    --      3.3191                 3.3039                 2.3591

                      7                      8                      9
                      A                      A                      A
 Frequencies --   1501.1626              1501.4344              2379.9260
 Red. masses --      1.0393                 1.0393                12.5502
 Frc consts  --      1.3798                 1.3804                41.8820
 IR Inten    --     10.1035                10.0984                 7.3739

                     10                     11                     12
                      A                      A                      A
 Frequencies --   3066.9254              3140.3719              3140.8366
 Red. masses --      1.0339                 1.1028                 1.1029
 Frc consts  --      5.7297                 6.4080                 6.4103
 IR Inten    --      3.1988                 1.9646                 1.9508

 - Thermochemistry -
 -------------------
 Temperature   298.150 Kelvin.  Pressure   1.00000 Atm.
 Atom     1 has atomic number  7 and mass  14.00307

 Molecular mass:    41.02655 amu.
 Principal axes and moments of inertia in atomic units:
                           1         2         3
     Eigenvalues --    11.38097 197.02006 197.02509
           X            1.00000  -0.00000  -0.00002
           Y            0.00000   1.00000   0.00000
           Z            0.00002  -0.00000   1.00000
 This molecule is an asymmetric top.
 Rotational symmetry number  1.
 Rotational temperatures (Kelvin)      7.61042     0.43962     0.43961
 Rotational constants (GHZ):         158.57539     9.16019     9.15996
 Zero-point vibrational energy     119829.9 (Joules/Mol)
                                   28.64002 (Kcal/Mol)
 Warning -- explicit consideration of   2 degrees of freedom as
           vibrations may cause significant error
 Vibrational temperatures:    557.10   557.29  1346.50  1549.53  1549.87
          (Kelvin)           2070.02  2159.84  2160.23  3424.18  4412.62
                             4518.29  4518.96

 Zero-point correction=                           0.045641 (Hartree/Particle)
 Thermal correction to Energy=                    0.049235
 Thermal correction to Enthalpy=                  0.050179
 Thermal correction to Gibbs Free Energy=         0.021625
 Sum of electronic and zero-point Energies=           -132.709288
 Sum of electronic and thermal Energies=              -132.705693
 Sum of electronic and thermal Enthalpies=            -132.704749
 Sum of electronic and thermal Free Energies=         -132.733304

                     E (Thermal)             CV                S
                      KCal/Mol        Cal/Mol-Kelvin    Cal/Mol-Kelvin
 Total                   30.896             10.254             60.099
 Electronic               0.000              0.000              0.000
 Translational            0.889              2.981             37.062
 Rotational               0.889              2.981             20.718
 Vibrational             29.118              4.293              2.318
 Vibration     1          0.756              1.498              1.011
 Vibration     2          0.756              1.497              1.010

 Optimization completed.
    -- Stationary point found.
 Normal termination of Gaussian 16 at Thu Dec 26 12:42:44 2019.
 Gaussian 16:  ES64L-G16RevA.03 25-Dec-2016

 ----------------------------------------------------------------------
 # TD(NStates=10, Root=1) B3LYP/6-31G* scf=qc volume pop=NPA density=cu
 rrent Geom=AllCheck Guess=Read
 ----------------------------------------------------------------------

 Structure from the checkpoint file:  "Suzuki_solvent_33.chk"
 -------------------
 Title Card Required
 -------------------
 Charge =  0 Multiplicity = 1

                         Standard orientation:
 ---------------------------------------------------------------------
 Center     Atomic      Atomic             Coordinates (Angstroms)
 Number     Number       Type             X           Y           Z
 ---------------------------------------------------------------------
      1          7           0       -1.440684   -0.000000   -0.000016
      2          6           0       -0.280345    0.000000    0.000006
      3          6           0        1.180991   -0.000000    0.000085
      4          1           0        1.560279   -0.889339    0.513074
      5          1           0        1.560279    0.889325    0.513097
      6          1           0        1.560361    0.000013   -1.026603
 ---------------------------------------------------------------------

 SCF Done:  E(RB3LYP) =  -132.754928297     a.u. after    1 cycles

 Excitation energies and oscillator strengths:

 Excited State   1:      Singlet-A      7.7644 eV  159.68 nm  f=0.0000  <S**2>=0.000
      10 -> 12         0.49616
      11 -> 13         0.49647
 This state for optimization and/or second-order correction.
 Total Energy, E(TD-HF/TD-DFT) =  -132.469591753
 Copying the excited state density for this state as the 1-particle RhoCI density.

 Excited State   2:      Singlet-A      8.0752 eV  153.54 nm  f=0.0025  <S**2>=0.000
      10 -> 13         0.49670
      11 -> 12         0.49679

 Excited State   3:      Singlet-A      8.0752 eV  153.54 nm  f=0.0025  <S**2>=0.000
      10 -> 12         0.49690
      11 -> 13        -0.49659

 Excited State   4:      Singlet-A      9.4132 eV  131.71 nm  f=0.0210  <S**2>=0.000
       9 -> 12         0.70365

 Excited State   5:      Singlet-A      9.4134 eV  131.71 nm  f=0.0210  <S**2>=0.000
       9 -> 13         0.70365

 Excited State   6:      Singlet-A     10.0968 eV  122.80 nm  f=0.0015  <S**2>=0.000
      11 -> 14         0.70556

 Excited State   7:      Singlet-A     10.0972 eV  122.79 nm  f=0.0015  <S**2>=0.000
      10 -> 14         0.70556

 Excited State   8:      Singlet-A     10.8770 eV  113.99 nm  f=0.1877  <S**2>=0.000
       9 -> 14         0.49330
       9 -> 17        -0.11864
      10 -> 13        -0.30937
      10 -> 16         0.15636
      11 -> 12         0.30936
      11 -> 15         0.15669

 Excited State   9:      Singlet-A     11.3145 eV  109.58 nm  f=0.4304  <S**2>=0.000
       9 -> 14         0.49817
      10 -> 13         0.27068
      10 -> 16        -0.22111
      11 -> 12        -0.27072
      11 -> 15        -0.22171

 Excited State  10:      Singlet-A     11.8879 eV  104.29 nm  f=0.0000  <S**2>=0.000
       7 -> 12        -0.23255
       8 -> 13        -0.23378
      10 -> 15         0.43834
      11 -> 16        -0.43700

 The electronic state is 1-A.
 Alpha  occ. eigenvalues --  -14.33313 -10.24049 -10.23170  -0.90251  -0.77684
 Alpha  occ. eigenvalues --   -0.51670  -0.46493  -0.46482  -0.35823  -0.32639
 Alpha  occ. eigenvalues --   -0.32637
 Alpha virt. eigenvalues --    0.03667   0.03668   0.08373   0.16030   0.16033
 Alpha virt. eigenvalues --    0.18458   0.28390   0.52797   0.52805   0.57766
 Alpha virt. eigenvalues --    0.62724   0.62735   0.68085   0.78886   0.80856

 Mulliken charges:
               1
     1  N   -0.430804
     2  C    0.368080
     3  C   -0.495934
     4  H    0.186214
     5  H    0.186214
     6  H    0.186230
 Sum of Mulliken charges =  -0.00000

 Dipole moment (field-independent basis, Debye):
    X=              2.9108    Y=              0.0000    Z=             -0.0004  Tot=              2.9108
 Quadrupole moment (field-independent basis, Debye-Ang):
   XX=            -21.4417   YY=            -17.5465   ZZ=            -17.5467
   XY=              0.0000   XZ=             -0.0011   YZ=              0.0000

 Summary of Natural Population Analysis:

                                       Natural Population
                Natural  -----------------------------------------------
    Atom  No    Charge         Core      Valence    Rydberg      Total
 -----------------------------------------------------------------------
      N    1   -0.26481      1.99970     5.22813    0.03698     7.26481
      C    2    0.29823      1.99956     3.65763    0.04457     5.70177
      C    3   -0.79157      1.99932     4.78347    0.00878     6.79157
      H    4    0.25270      0.00000     0.74073    0.00656     0.74730
      H    5    0.25270      0.00000     0.74073    0.00656     0.74730
      H    6    0.25274      0.00000     0.74070    0.00656     0.74726
 =======================================================================
   * Total *   -0.00000      5.99859    15.89140    0.11002    22.00000

 Normal termination of Gaussian 16 at Thu Dec 26 12:43:27 2019.
