 Gaussian 16, Revision A.03,

 ---------------------------------
 # opt=CalcAll B3LYP/6-31G* scf=qc
 ---------------------------------

 -------------------
 Title Card Required
 -------------------
 Symbolic Z-matrix:
 Charge =  0 Multiplicity = 1

 SCF Done:  E(RB3LYP) =  -115.713348010     a.u. after    7 cycles
 SCF Done:  E(RB3LYP) =  -115.714402943     a.u. after    5 cycles
 SCF Done:  E(RB3LYP) =  -115.714405962     a.u. after    2 cycles
 Optimization completed.
    -- Stationary point found.
 Normal termination of Gaussian 16 at Thu Dec 26 12:40:58 2019.

 ----------------------------------------------------------------------
 # freq B3LYP/6-31G* scf=qc volume NMR pop=NPA density=current Geom=All
 Check Guess=Read
 ----------------------------------------------------------------------

 Structure from the checkpoint file:  "Suzuki_solvent_12.chk"
 -------------------
 Title Card Required
 -------------------
 Charge =  0 Multiplicity = 1

 SCF Done:  E(RB3LYP) =  -115.714405962     a.u. after    1 cycles

      1  C    Isotropic =   139.2811   Anisotropy =    68.3034

      2  O    Isotropic =   315.8265   Anisotropy =   104.6123

      3  H    Isotropic =    28.6958   Anisotropy =     7.5593

      4  H    Isotropic =    28.6958   Anisotropy =     7.5593

      5  H    Isotropic =    28.7263   Anisotropy =     7.0760

      6  H    Isotropic =    32.8774   Anisotropy =    16.7156

  Exact polarizability:  17.148   0.986  15.961   0.000  -0.000  14.001
 Approx polarizability:  20.947   0.739  20.353   0.000  -0.000  16.918

                      1                      2                      3
                      A                      A                      A
 Frequencies --    346.4822              1067.3361              1096.8400
 Red. masses --      1.0693                 2.1732                 1.6745
 Frc consts  --      0.0756                 1.4587                 1.1870
 IR Inten    --    127.8382               120.0626                 1.5238

                      4                      5                      6
                      A                      A                      A
 Frequencies --   1183.2842              1400.1321              1511.3349
 Red. masses --      1.2672                 1.2815                 1.1406
 Frc consts  --      1.0454                 1.4802                 1.5350
 IR Inten    --      0.6218                28.0473                 7.4086

                      7                      8                      9
                      A                      A                      A
 Frequencies --   1524.9011              1541.5696              2996.7105
 Red. masses --      1.0505                 1.0503                 1.0376
 Frc consts  --      1.4392                 1.4705                 5.4900
 IR Inten    --      1.5741                 4.1080                64.7277

                     10                     11                     12
                      A                      A                      A
 Frequencies --   3039.1418              3131.7940              3754.6154
 Red. masses --      1.1058                 1.0961                 1.0664
 Frc consts  --      6.0178                 6.3341                 8.8572
 IR Inten    --     85.8701                34.7071                11.2104

 - Thermochemistry -
 -------------------
 Temperature   298.150 Kelvin.  Pressure   1.00000 Atm.
 Atom     1 has atomic number  6 and mass  12.00000

 Molecular mass:    32.02621 amu.
 Principal axes and moments of inertia in atomic units:
                           1         2         3
     Eigenvalues --    14.18880  72.83410  75.53826
           X            0.99895   0.04581  -0.00000
           Y           -0.04581   0.99895   0.00000
           Z            0.00000  -0.00000   1.00000
 This molecule is an asymmetric top.
 Rotational symmetry number  1.
 Rotational temperatures (Kelvin)      6.10439     1.18919     1.14662
 Rotational constants (GHZ):         127.19479    24.77879    23.89175
 Zero-point vibrational energy     135143.0 (Joules/Mol)
                                   32.29995 (Kcal/Mol)
 Warning -- explicit consideration of   1 degrees of freedom as
           vibrations may cause significant error
 Vibrational temperatures:    498.51  1535.66  1578.11  1702.48  2014.48
          (Kelvin)           2174.47  2193.99  2217.97  4311.60  4372.65
                             4505.95  5402.05

 Zero-point correction=                           0.051473 (Hartree/Particle)
 Thermal correction to Energy=                    0.054763
 Thermal correction to Enthalpy=                  0.055707
 Thermal correction to Gibbs Free Energy=         0.028753
 Sum of electronic and zero-point Energies=           -115.662933
 Sum of electronic and thermal Energies=              -115.659643
 Sum of electronic and thermal Enthalpies=            -115.658699
 Sum of electronic and thermal Free Energies=         -115.685653

                     E (Thermal)             CV                S
                      KCal/Mol        Cal/Mol-Kelvin    Cal/Mol-Kelvin
 Total                   34.364              8.664             56.731
 Electronic               0.000              0.000              0.000
 Translational            0.889              2.981             36.324
 Rotational               0.889              2.981             18.996
 Vibrational             32.587              2.702              1.410
 Vibration     1          0.724              1.582              1.182

 Optimization completed.
    -- Stationary point found.
 Normal termination of Gaussian 16 at Thu Dec 26 12:41:14 2019.
 Gaussian 16:  ES64L-G16RevA.03 25-Dec-2016

 ----------------------------------------------------------------------
 # TD(NStates=10, Root=1) B3LYP/6-31G* scf=qc volume pop=NPA density=cu
 rrent Geom=AllCheck Guess=Read
 ----------------------------------------------------------------------

 Structure from the checkpoint file:  "Suzuki_solvent_13.chk"
 -------------------
 Title Card Required
 -------------------
 Charge =  0 Multiplicity = 1

                         Standard orientation:
 ---------------------------------------------------------------------
 Center     Atomic      Atomic             Coordinates (Angstroms)
 Number     Number       Type             X           Y           Z
 ---------------------------------------------------------------------
      1          6           0        0.662313   -0.019524    0.000000
      2          8           0       -0.749145    0.122493    0.000000
      3          1           0        1.036814   -0.543730   -0.893177
      4          1           0        1.036814   -0.543730    0.893177
      5          1           0        1.079629    0.991125   -0.000000
      6          1           0       -1.133976   -0.766464   -0.000000
 ---------------------------------------------------------------------

 SCF Done:  E(RB3LYP) =  -115.714405962     a.u. after    1 cycles

 Excitation energies and oscillator strengths:

 Excited State   1:      Singlet-A      7.6517 eV  162.04 nm  f=0.0001  <S**2>=0.000
       9 -> 10         0.70456
 This state for optimization and/or second-order correction.
 Total Energy, E(TD-HF/TD-DFT) =  -115.433212690
 Copying the excited state density for this state as the 1-particle RhoCI density.

 Excited State   2:      Singlet-A      9.5588 eV  129.71 nm  f=0.0521  <S**2>=0.000
       9 -> 11         0.70391

 Excited State   3:      Singlet-A      9.6655 eV  128.27 nm  f=0.0083  <S**2>=0.000
       8 -> 10         0.70318

 Excited State   4:      Singlet-A     10.2836 eV  120.57 nm  f=0.0119  <S**2>=0.000
       9 -> 12         0.68016
       9 -> 14        -0.18737

 Excited State   5:      Singlet-A     10.8782 eV  113.97 nm  f=0.0417  <S**2>=0.000
       8 -> 11         0.24034
       8 -> 12         0.10986
       9 -> 13         0.64994

 Excited State   6:      Singlet-A     10.9897 eV  112.82 nm  f=0.0144  <S**2>=0.000
       9 -> 12         0.18571
       9 -> 14         0.67628

 Excited State   7:      Singlet-A     11.4980 eV  107.83 nm  f=0.1696  <S**2>=0.000
       8 -> 11         0.66006
       9 -> 13        -0.22635

 Excited State   8:      Singlet-A     12.0735 eV  102.69 nm  f=0.0316  <S**2>=0.000
       7 -> 10         0.67998
       8 -> 12         0.12433
       8 -> 14        -0.12427

 Excited State   9:      Singlet-A     12.4034 eV   99.96 nm  f=0.0049  <S**2>=0.000
       6 -> 10         0.44891
       8 -> 13         0.53921

 Excited State  10:      Singlet-A     12.4928 eV   99.24 nm  f=0.2117  <S**2>=0.000
       7 -> 10        -0.14402
       7 -> 11         0.10980
       8 -> 12         0.65736
       9 -> 13        -0.12194

 The electronic state is 1-A.
 Alpha  occ. eigenvalues --  -19.14012 -10.22470  -1.01051  -0.67825  -0.50233
 Alpha  occ. eigenvalues --   -0.43401  -0.41918  -0.33026  -0.26453
 Alpha virt. eigenvalues --    0.07525   0.13075   0.16670   0.17516   0.20592
 Alpha virt. eigenvalues --    0.53425   0.56728   0.57742   0.78635   0.84877
 Alpha virt. eigenvalues --    0.86911   0.90169   0.95381   0.97725   1.02227

 Mulliken charges:
               1
     1  C   -0.320470
     2  O   -0.021092
     3  H    0.194490
     4  H    0.194490
     5  H    0.174303
     6  H   -0.221720
 Sum of Mulliken charges =  -0.00000

 Dipole moment (field-independent basis, Debye):
    X=              2.8054    Y=              1.2861    Z=              0.0000  Tot=              3.0861
 Quadrupole moment (field-independent basis, Debye-Ang):
   XX=            -15.2640   YY=            -16.6268   ZZ=            -13.4674
   XY=             -2.1492   XZ=             -0.0000   YZ=             -0.0000

 Summary of Natural Population Analysis:

                                       Natural Population
                Natural  -----------------------------------------------
    Atom  No    Charge         Core      Valence    Rydberg      Total
 -----------------------------------------------------------------------
      C    1   -0.47173      1.99943     4.44285    0.02945     6.47173
      O    2   -0.26733      1.99989     6.23122    0.03622     8.26733
      H    3    0.25872      0.00000     0.72689    0.01439     0.74128
      H    4    0.25872      0.00000     0.72689    0.01439     0.74128
      H    5    0.22186      0.00000     0.77194    0.00620     0.77814
      H    6   -0.00123      0.00000     0.90268    0.09855     1.00123
 =======================================================================
   * Total *   -0.00100      3.99932    13.80247    0.19921    18.00100

 Normal termination of Gaussian 16 at Thu Dec 26 12:41:41 2019.
