 Gaussian 16, Revision A.03,

 ---------------------------------
 # opt=CalcAll B3LYP/6-31G* scf=qc
 ---------------------------------

 -------------------
 Title Card Required
 -------------------
 Symbolic Z-matrix:
 Charge =  0 Multiplicity = 1

 SCF Done:  E(RB3LYP) =  -232.447805685     a.u. after    7 cycles
 SCF Done:  E(RB3LYP) =  -232.449418251     a.u. after   11 cycles
 SCF Done:  E(RB3LYP) =  -232.449449315     a.u. after    4 cycles
 SCF Done:  E(RB3LYP) =  -232.449449430     a.u. after    3 cycles
 Optimization completed on the basis of negligible forces.
    -- Stationary point found.

 1\1\GINC-DELLA-R4C3N2\Freq\RB3LYP\6-31G(d)\C4H8O1\BJS4\26-Dec-2019\0\\
 # opt=CalcAll B3LYP/6-31G* scf=qc\\Title Card Required\\0,1\C,-0.74771
 82446,-0.9810461282,-0.2491649477\C,-1.1521426925,0.3896307236,0.30766
 0773\O,0.0267496475,1.2012319334,0.2816025445\C,1.1770253459,0.3870150
 242,0.0301002367\C,0.7217862741,-1.0689671849,0.1898038284\H,-0.818830
 9067,-0.9863224063,-1.3435480402\H,-1.369127105,-1.7960274882,0.134933
 2798\H,-1.515474142,0.303849413,1.3436645193\H,-1.9321117152,0.8833056
 074,-0.2839726634\H,1.9696644252,0.6711404756,0.7323410785\H,1.5441376

 Normal termination of Gaussian 16 at Thu Dec 26 12:45:39 2019.

 ----------------------------------------------------------------------
 # freq B3LYP/6-31G* scf=qc volume NMR pop=NPA density=current Geom=All
 Check Guess=Read
 ----------------------------------------------------------------------

 Structure from the checkpoint file:  "Suzuki_solvent_22.chk"
 -------------------
 Title Card Required
 -------------------
 Charge =  0 Multiplicity = 1

 SCF Done:  E(RB3LYP) =  -232.449449430     a.u. after    1 cycles

      1  C    Isotropic =   160.9821   Anisotropy =    18.1133

      2  C    Isotropic =   122.7862   Anisotropy =    69.7594

      3  O    Isotropic =   286.7437   Anisotropy =   130.8480

      4  C    Isotropic =   122.7962   Anisotropy =    69.8105

      5  C    Isotropic =   160.9869   Anisotropy =    18.1807

      6  H    Isotropic =    30.4064   Anisotropy =     9.4375

      7  H    Isotropic =    30.5077   Anisotropy =     8.9744

      8  H    Isotropic =    28.5048   Anisotropy =     8.9976

      9  H    Isotropic =    28.2682   Anisotropy =     7.4625

     10  H    Isotropic =    28.2686   Anisotropy =     7.4627

     11  H    Isotropic =    28.5036   Anisotropy =     8.9953

     12  H    Isotropic =    30.4059   Anisotropy =     9.4363

     13  H    Isotropic =    30.5067   Anisotropy =     8.9738

  Exact polarizability:  48.677  -0.002  41.325   0.726  -0.000  40.668
 Approx polarizability:  61.863  -0.002  55.728   1.150   0.005  57.064

                      1                      2                      3
                      A                      A                      A
 Frequencies --     38.8385               252.8456               582.8562
 Red. masses --      2.3901                 1.5978                 1.7554
 Frc consts  --      0.0021                 0.0602                 0.3514
 IR Inten    --      4.2799                 0.0029                 0.7431

                      4                      5                      6
                      A                      A                      A
 Frequencies --    676.6402               851.8688               890.4501
 Red. masses --      3.3258                 1.6430                 1.9584
 Frc consts  --      0.8972                 0.7025                 0.9149
 IR Inten    --      3.4230                 5.6376                 5.1417

                      7                      8                      9
                      A                      A                      A
 Frequencies --    915.3307               923.6829               933.7545
 Red. masses --      1.7456                 4.0352                 2.3965
 Frc consts  --      0.8617                 2.0284                 1.2311
 IR Inten    --      7.6695                12.1695                12.3069

                     10                     11                     12
                      A                      A                      A
 Frequencies --    977.0227              1040.7245              1115.0077
 Red. masses --      1.3538                 1.7764                 6.5061
 Frc consts  --      0.7614                 1.1336                 4.7657
 IR Inten    --      0.5914                 4.5210               123.7948

                     13                     14                     15
                      A                      A                      A
 Frequencies --   1186.4452              1195.7963              1204.6917
 Red. masses --      1.7798                 1.2597                 1.4609
 Frc consts  --      1.4761                 1.0613                 1.2492
 IR Inten    --      0.0094                 6.5773                 6.6023

                     16                     17                     18
                      A                      A                      A
 Frequencies --   1270.9421              1271.0279              1332.8843
 Red. masses --      1.2008                 1.2157                 1.3704
 Frc consts  --      1.1428                 1.1571                 1.4344
 IR Inten    --      3.1921                 4.4842                 0.6000

                     19                     20                     21
                      A                      A                      A
 Frequencies --   1360.7382              1383.0375              1422.8590
 Red. masses --      1.2702                 1.3026                 1.3567
 Frc consts  --      1.3857                 1.4681                 1.6183
 IR Inten    --      0.1568                 1.9182                 6.8603

                     22                     23                     24
                      A                      A                      A
 Frequencies --   1516.6945              1526.7677              1554.0615
 Red. masses --      1.0907                 1.1044                 1.0877
 Frc consts  --      1.4783                 1.5168                 1.5478
 IR Inten    --      2.5796                 2.3718                 3.4469

                     25                     26                     27
                      A                      A                      A
 Frequencies --   1568.3357              3002.4072              3008.3204
 Red. masses --      1.0992                 1.0690                 1.0731
 Frc consts  --      1.5930                 5.6777                 5.7221
 IR Inten    --      0.0297               149.3947                 5.2474

                     28                     29                     30
                      A                      A                      A
 Frequencies --   3057.3403              3060.6727              3077.7704
 Red. masses --      1.0709                 1.0667                 1.0896
 Frc consts  --      5.8977                 5.8874                 6.0815
 IR Inten    --     21.8697                 4.8922               121.3212

                     31                     32                     33
                      A                      A                      A
 Frequencies --   3079.2946              3113.5484              3122.1113
 Red. masses --      1.0908                 1.0989                 1.1059
 Frc consts  --      6.0942                 6.2767                 6.3514
 IR Inten    --      3.2551                19.4617                55.9655

 - Thermochemistry -
 -------------------
 Temperature   298.150 Kelvin.  Pressure   1.00000 Atm.
 Atom     1 has atomic number  6 and mass  12.00000

 Molecular mass:    72.05751 amu.
 Principal axes and moments of inertia in atomic units:
                           1         2         3
     Eigenvalues --   255.00704 259.07848 452.94473
           X            0.00115   1.00000   0.00280
           Y            1.00000  -0.00115  -0.00005
           Z            0.00004  -0.00280   1.00000
 This molecule is an asymmetric top.
 Rotational symmetry number  1.
 Rotational temperatures (Kelvin)      0.33965     0.33432     0.19122
 Rotational constants (GHZ):           7.07722     6.96600     3.98446
 Zero-point vibrational energy     308126.7 (Joules/Mol)
                                   73.64406 (Kcal/Mol)
 Warning -- explicit consideration of   3 degrees of freedom as
           vibrations may cause significant error
 Vibrational temperatures:     55.88   363.79   838.60   973.53  1225.65
          (Kelvin)           1281.16  1316.96  1328.97  1343.46  1405.72
                             1497.37  1604.25  1707.03  1720.48  1733.28
                             1828.60  1828.73  1917.72  1957.80  1989.88
                             2047.18  2182.19  2196.68  2235.95  2256.49
                             4319.79  4328.30  4398.83  4403.63  4428.23
                             4430.42  4479.70  4492.02

 Zero-point correction=                           0.117359 (Hartree/Particle)
 Thermal correction to Energy=                    0.122315
 Thermal correction to Enthalpy=                  0.123259
 Thermal correction to Gibbs Free Energy=         0.088700
 Sum of electronic and zero-point Energies=           -232.332090
 Sum of electronic and thermal Energies=              -232.327135
 Sum of electronic and thermal Enthalpies=            -232.326190
 Sum of electronic and thermal Free Energies=         -232.360749

                     E (Thermal)             CV                S
                      KCal/Mol        Cal/Mol-Kelvin    Cal/Mol-Kelvin
 Total                   76.754             16.808             72.735
 Electronic               0.000              0.000              0.000
 Translational            0.889              2.981             38.741
 Rotational               0.889              2.981             24.907
 Vibrational             74.976             10.847              9.087
 Vibration     1          0.594              1.981              5.317
 Vibration     2          0.664              1.758              1.711
 Vibration     3          0.940              1.068              0.480

 Optimization completed on the basis of negligible forces.
    -- Stationary point found.

 1\1\GINC-DELLA-R4C3N2\Freq\RB3LYP\6-31G(d)\C4H8O1\BJS4\26-Dec-2019\0\\
 # freq B3LYP/6-31G* scf=qc volume NMR pop=NPA density=current Geom=All
 Check Guess=Read\\Title Card Required\\0,1\C,-0.7477182446,-0.98104612
 82,-0.2491649477\C,-1.1521426925,0.3896307236,0.307660773\O,0.02674964
 75,1.2012319334,0.2816025445\C,1.1770253459,0.3870150242,0.0301002367\
 C,0.7217862741,-1.0689671849,0.1898038284\H,-0.8188309067,-0.986322406
 3,-1.3435480402\H,-1.369127105,-1.7960274882,0.1349332798\H,-1.5154741
 42,0.303849413,1.3436645193\H,-1.9321117152,0.8833056074,-0.2839726634

 Normal termination of Gaussian 16 at Thu Dec 26 12:46:51 2019.
 Gaussian 16:  ES64L-G16RevA.03 25-Dec-2016

 ----------------------------------------------------------------------
 # TD(NStates=10, Root=1) B3LYP/6-31G* scf=qc volume pop=NPA density=cu
 rrent Geom=AllCheck Guess=Read
 ----------------------------------------------------------------------

 Structure from the checkpoint file:  "Suzuki_solvent_23.chk"
 -------------------
 Title Card Required
 -------------------
 Charge =  0 Multiplicity = 1

                         Standard orientation:
 ---------------------------------------------------------------------
 Center     Atomic      Atomic             Coordinates (Angstroms)
 Number     Number       Type             X           Y           Z
 ---------------------------------------------------------------------
      1          6           0        0.734221    0.996398   -0.227039
      2          6           0        1.165157   -0.431021    0.132316
      3          8           0       -0.000289   -1.251514   -0.000683
      4          6           0       -1.165614   -0.430384   -0.131456
      5          6           0       -0.733441    0.997067    0.226653
      6          1           0        0.797603    1.154620   -1.310417
      7          1           0        1.344715    1.760907    0.263572
      8          1           0        1.534235   -0.483440    1.168514
      9          1           0        1.949048   -0.824264   -0.525690
     10          1           0       -1.948524   -0.822867    0.528208
     11          1           0       -1.536643   -0.483149   -1.166900
     12          1           0       -0.796630    1.156353    1.309885
     13          1           0       -1.343431    1.761590   -0.264555
 ---------------------------------------------------------------------

 SCF Done:  E(RB3LYP) =  -232.449449430     a.u. after    1 cycles

 Excitation energies and oscillator strengths:

 Excited State   1:      Singlet-A      7.7778 eV  159.41 nm  f=0.0179  <S**2>=0.000
      20 -> 21         0.70300
 This state for optimization and/or second-order correction.
 Total Energy, E(TD-HF/TD-DFT) =  -232.163622296
 Copying the excited state density for this state as the 1-particle RhoCI density.

 Excited State   2:      Singlet-A      8.5626 eV  144.80 nm  f=0.0029  <S**2>=0.000
      20 -> 22         0.70170

 Excited State   3:      Singlet-A      8.7373 eV  141.90 nm  f=0.0037  <S**2>=0.000
      20 -> 23         0.70076

 Excited State   4:      Singlet-A      9.2804 eV  133.60 nm  f=0.0009  <S**2>=0.000
      20 -> 24         0.69418
      20 -> 26        -0.11030

 Excited State   5:      Singlet-A      9.5691 eV  129.57 nm  f=0.0024  <S**2>=0.000
      20 -> 26         0.61368
      20 -> 28         0.32189

 Excited State   6:      Singlet-A      9.6548 eV  128.42 nm  f=0.0049  <S**2>=0.000
      19 -> 21         0.70190

 Excited State   7:      Singlet-A      9.7793 eV  126.78 nm  f=0.0408  <S**2>=0.000
      20 -> 25         0.69302
      20 -> 27         0.12447

 Excited State   8:      Singlet-A     10.0069 eV  123.90 nm  f=0.1566  <S**2>=0.000
      20 -> 25        -0.12599
      20 -> 27         0.68936

 Excited State   9:      Singlet-A     10.1990 eV  121.57 nm  f=0.0032  <S**2>=0.000
      20 -> 26        -0.32315
      20 -> 28         0.61385

 Excited State  10:      Singlet-A     10.2349 eV  121.14 nm  f=0.0108  <S**2>=0.000
      19 -> 22         0.70156

 The electronic state is 1-A.
 Alpha  occ. eigenvalues --  -19.13179 -10.22385 -10.22384 -10.18719 -10.18698
 Alpha  occ. eigenvalues --   -1.01877  -0.78005  -0.73111  -0.59256  -0.58665
 Alpha  occ. eigenvalues --   -0.49654  -0.48518  -0.42397  -0.42351  -0.39907
 Alpha  occ. eigenvalues --   -0.35258  -0.34849  -0.33340  -0.30642  -0.23738
 Alpha virt. eigenvalues --    0.08754   0.11251   0.13597   0.14203   0.15994
 Alpha virt. eigenvalues --    0.16190   0.16876   0.18076   0.21109   0.21428
 Alpha virt. eigenvalues --    0.24024   0.26389   0.29765   0.51954   0.53354

 Mulliken charges:
               1
     1  C   -0.191993
     2  C   -0.044150
     3  O   -0.186951
     4  C   -0.044222
     5  C   -0.192036
     6  H    0.027582
     7  H    0.042605
     8  H    0.131004
     9  H    0.128725
    10  H    0.128932
    11  H    0.130749
    12  H    0.027414
    13  H    0.042341
 Sum of Mulliken charges =  -0.00000

 Dipole moment (field-independent basis, Debye):
    X=              0.0010    Y=             -2.3578    Z=              0.0028  Tot=              2.3578
 Quadrupole moment (field-independent basis, Debye-Ang):
   XX=            -31.5497   YY=            -36.7581   ZZ=            -35.6264
   XY=              0.0038   XZ=              0.8195   YZ=             -0.0024

 Summary of Natural Population Analysis:

                                       Natural Population
                Natural  -----------------------------------------------
    Atom  No    Charge         Core      Valence    Rydberg      Total
 -----------------------------------------------------------------------
      C    1   -0.49918      1.99936     4.48566    0.01415     6.49918
      C    2   -0.16665      1.99922     4.14499    0.02244     6.16665
      O    3   -0.12203      1.99985     6.11343    0.00875     8.12203
      C    4   -0.16675      1.99922     4.14506    0.02246     6.16675
      C    5   -0.49929      1.99936     4.48574    0.01418     6.49929
      H    6    0.15072      0.00000     0.79693    0.05236     0.84928
      H    7    0.15289      0.00000     0.80554    0.04157     0.84711
      H    8    0.21849      0.00000     0.73940    0.04210     0.78151
      H    9    0.20505      0.00000     0.76434    0.03062     0.79495
      H   10    0.20526      0.00000     0.76414    0.03060     0.79474
      H   11    0.21825      0.00000     0.73961    0.04215     0.78175
      H   12    0.15060      0.00000     0.79700    0.05240     0.84940
      H   13    0.15264      0.00000     0.80572    0.04164     0.84736
 =======================================================================
   * Total *    0.00000      9.99702    29.58756    0.41542    40.00000

 Normal termination of Gaussian 16 at Thu Dec 26 12:48:54 2019.
