 Gaussian 16, Revision A.03,

 -------------------------
 # opt b3lyp/6-31G* scf=qc
 -------------------------

 -------------------
 Title Card Required
 -------------------
 Symbolic Z-matrix:
 Charge =  0 Multiplicity = 1

 SCF Done:  E(RB3LYP) =  -2917.87512157     a.u. after    7 cycles
 SCF Done:  E(RB3LYP) =  -2917.87595137     a.u. after    9 cycles
 SCF Done:  E(RB3LYP) =  -2917.87600189     a.u. after    5 cycles
 SCF Done:  E(RB3LYP) =  -2917.87600550     a.u. after    3 cycles
 SCF Done:  E(RB3LYP) =  -2917.87600641     a.u. after    2 cycles
 SCF Done:  E(RB3LYP) =  -2917.87600691     a.u. after    4 cycles
 SCF Done:  E(RB3LYP) =  -2917.87600711     a.u. after    2 cycles
 Optimization completed.
    -- Stationary point found.
 Normal termination of Gaussian 16 at Mon Aug 27 09:51:51 2018.

 ----------------------------------------------------------------------
 # freq b3lyp/6-31G* volume NMR pop=NPA density=current Geom=AllCheck G
 uess=Read
 ----------------------------------------------------------------------

 Structure from the checkpoint file:  "science_arx_52.chk"
 -------------------
 Title Card Required
 -------------------
 Charge =  0 Multiplicity = 1

 SCF Done:  E(RB3LYP) =  -2917.87600711     A.U. after    1 cycles

      1  C    Isotropic =    85.4828   Anisotropy =   140.6323

      2  C    Isotropic =    40.0009   Anisotropy =   129.4079

      3  C    Isotropic =    77.2080   Anisotropy =   132.8781

      4  C    Isotropic =    63.7412   Anisotropy =   139.8194

      5  C    Isotropic =    64.2279   Anisotropy =    93.2041

      6  C    Isotropic =    64.0273   Anisotropy =   139.9864

      7  H    Isotropic =    25.1644   Anisotropy =     8.8095

      8  Br   Isotropic =  2221.1990   Anisotropy =  1152.6455

      9  O    Isotropic =   237.2176   Anisotropy =    82.9155

     10  C    Isotropic =   137.3868   Anisotropy =    65.5007

     11  H    Isotropic =    25.8941   Anisotropy =     7.1430

     12  H    Isotropic =    25.5703   Anisotropy =     5.5882

     13  H    Isotropic =    25.1531   Anisotropy =     8.4826

     14  H    Isotropic =    28.3023   Anisotropy =     8.0448

     15  H    Isotropic =    28.7022   Anisotropy =     7.9916

     16  H    Isotropic =    28.7036   Anisotropy =     7.9895

  Exact polarizability: 143.281   1.489  87.942  -0.001  -0.004  42.914
 Approx polarizability: 206.045  -2.720 152.751  -0.007  -0.007  65.394

                      1                      2                      3
                      A                      A                      A
 Frequencies --     73.1577               132.5697               179.7314
 Red. masses --      3.6628                 5.0400                 4.9060
 Frc consts  --      0.0115                 0.0522                 0.0934
 IR Inten    --      1.3676                 3.2091                 0.9325

                      4                      5                      6
                      A                      A                      A
 Frequencies --    244.3636               263.5787               313.5269
 Red. masses --      1.1565                 7.6988                 4.5039
 Frc consts  --      0.0407                 0.3151                 0.2608
 IR Inten    --      0.0046                 2.0169                 0.6286

                      7                      8                      9
                      A                      A                      A
 Frequencies --    333.6272               430.2537               486.1527
 Red. masses --      4.5383                 3.1179                 4.1693
 Frc consts  --      0.2976                 0.3401                 0.5806
 IR Inten    --      2.4777                 0.0003                 0.1647

                     10                     11                     12
                      A                      A                      A
 Frequencies --    521.5819               605.8461               645.2578
 Red. masses --      2.6281                 6.0418                 7.0835
 Frc consts  --      0.4212                 1.3066                 1.7377
 IR Inten    --      7.8723                33.7751                 1.7301

                     13                     14                     15
                      A                      A                      A
 Frequencies --    717.4191               809.6336               821.2611
 Red. masses --      3.5108                 5.5818                 1.2867
 Frc consts  --      1.0646                 2.1558                 0.5113
 IR Inten    --      0.0026                 1.0173                 8.0587

                     16                     17                     18
                      A                      A                      A
 Frequencies --    844.4887               952.9309               970.0675
 Red. masses --      1.5877                 1.3298                 1.3135
 Frc consts  --      0.6671                 0.7115                 0.7283
 IR Inten    --     47.9021                 0.0936                 0.0005

                     19                     20                     21
                      A                      A                      A
 Frequencies --   1021.1641              1075.5599              1095.1024
 Red. masses --      4.3294                 7.6245                 2.4332
 Frc consts  --      2.6599                 5.1967                 1.7192
 IR Inten    --     18.8028                61.7549                16.1807

                     22                     23                     24
                      A                      A                      A
 Frequencies --   1138.6675              1185.1474              1206.7447
 Red. masses --      1.3189                 1.2700                 1.1561
 Frc consts  --      1.0076                 1.0510                 0.9919
 IR Inten    --      7.8949                 0.7818                20.1242

                     25                     26                     27
                      A                      A                      A
 Frequencies --   1218.4143              1298.0314              1336.8984
 Red. masses --      1.3831                 4.9711                 1.2829
 Frc consts  --      1.2097                 4.9348                 1.3510
 IR Inten    --      8.9005               253.2951                 1.6065

                     28                     29                     30
                      A                      A                      A
 Frequencies --   1351.6872              1452.4361              1498.7177
 Red. masses --      7.9671                 3.0236                 1.2105
 Frc consts  --      8.5763                 3.7581                 1.6020
 IR Inten    --     60.3771                 0.5585                31.8303

                     31                     32                     33
                      A                      A                      A
 Frequencies --   1521.6192              1533.3660              1544.6678
 Red. masses --      1.0479                 1.1311                 1.9685
 Frc consts  --      1.4295                 1.5668                 2.7672
 IR Inten    --      5.8249                86.5316                93.3700

                     34                     35                     36
                      A                      A                      A
 Frequencies --   1631.0548              1656.0140              3026.3643
 Red. masses --      6.9880                 5.6508                 1.0348
 Frc consts  --     10.9531                 9.1304                 5.5840
 IR Inten    --     11.4940                37.0206                53.3478

                     37                     38                     39
                      A                      A                      A
 Frequencies --   3085.9892              3159.8439              3211.9977
 Red. masses --      1.1068                 1.0997                 1.0881
 Frc consts  --      6.2105                 6.4695                 6.6141
 IR Inten    --     42.6332                24.9614                 4.4997

                     40                     41                     42
                      A                      A                      A
 Frequencies --   3216.7212              3227.5309              3232.1479
 Red. masses --      1.0884                 1.0949                 1.0935
 Frc consts  --      6.6356                 6.7199                 6.7304
 IR Inten    --      2.8105                 4.8918                 6.4830

 - Thermochemistry -
 -------------------
 Temperature   298.150 Kelvin.  Pressure   1.00000 Atm.
 Atom     1 has atomic number  6 and mass  12.00000

 Molecular mass:   185.96803 amu.
 Principal axes and moments of inertia in atomic units:
                           1         2         3
     Eigenvalues --   375.325983984.644154348.43579
           X            0.99989   0.01460   0.00001
           Y           -0.01460   0.99989  -0.00001
           Z           -0.00001   0.00001   1.00000
 This molecule is an asymmetric top.
 Rotational symmetry number  1.
 Rotational temperatures (Kelvin)      0.23077     0.02174     0.01992
 Rotational constants (GHZ):           4.80846     0.45292     0.41503
 Zero-point vibrational energy     324614.7 (Joules/Mol)
                                   77.58477 (Kcal/Mol)
 Warning -- explicit consideration of  11 degrees of freedom as
           vibrations may cause significant error
 Vibrational temperatures:    105.26   190.74   258.59   351.58   379.23
          (Kelvin)            451.10   480.02   619.04   699.47   750.44
                              871.68   928.38  1032.21  1164.88  1181.61
                             1215.03  1371.05  1395.71  1469.23  1547.49
                             1575.61  1638.29  1705.16  1736.24  1753.03
                             1867.58  1923.50  1944.78  2089.73  2156.32
                             2189.27  2206.17  2222.43  2346.72  2382.63
                             4354.26  4440.05  4546.31  4621.35  4628.14
                             4643.70  4650.34

 Zero-point correction=                           0.123639 (Hartree/Particle)
 Thermal correction to Energy=                    0.131913
 Thermal correction to Enthalpy=                  0.132857
 Thermal correction to Gibbs Free Energy=         0.089285
 Sum of electronic and zero-point Energies=          -2917.752368
 Sum of electronic and thermal Energies=             -2917.744095
 Sum of electronic and thermal Enthalpies=           -2917.743150
 Sum of electronic and thermal Free Energies=        -2917.786722

                     E (Thermal)             CV                S
                      KCal/Mol        Cal/Mol-Kelvin    Cal/Mol-Kelvin
 Total                   82.776             30.455             91.704
 Electronic               0.000              0.000              0.000
 Translational            0.889              2.981             41.567
 Rotational               0.889              2.981             30.254
 Vibrational             80.999             24.494             19.882
 Vibration     1          0.599              1.967              4.067
 Vibration     2          0.613              1.921              2.908
 Vibration     3          0.629              1.867              2.331
 Vibration     4          0.660              1.772              1.771
 Vibration     5          0.670              1.740              1.638
 Vibration     6          0.701              1.648              1.344
 Vibration     7          0.715              1.608              1.242
 Vibration     8          0.791              1.404              0.858
 Vibration     9          0.842              1.281              0.694
 Vibration    10          0.877              1.202              0.606
 Vibration    11          0.964              1.019              0.440

 Optimization completed.
    -- Stationary point found.
 Normal termination of Gaussian 16 at Mon Aug 27 09:54:37 2018.
 Gaussian 16:  ES64L-G16RevA.03 25-Dec-2016

 ----------------------------------------------------------------------
 # TD(NStates=10, Root=1) b3lyp/6-31G* volume pop=NPA density=current G
 eom=AllCheck Guess=Read
 ----------------------------------------------------------------------

 Structure from the checkpoint file:  "science_arx_53.chk"
 -------------------
 Title Card Required
 -------------------
 Charge =  0 Multiplicity = 1

                         Standard orientation:
 ---------------------------------------------------------------------
 Center     Atomic      Atomic             Coordinates (Angstroms)
 Number     Number       Type             X           Y           Z
 ---------------------------------------------------------------------
      1          6           0       -1.450149   -0.989234    0.000263
      2          6           0       -2.047755    0.276503    0.000178
      3          6           0       -1.240518    1.424519    0.000017
      4          6           0        0.144012    1.311538   -0.000065
      5          6           0        0.730436    0.043962    0.000015
      6          6           0       -0.056380   -1.101314    0.000167
      7          1           0        0.407655   -2.081736    0.000239
      8         35           0        2.638453   -0.114276   -0.000054
      9          8           0       -3.392921    0.500781    0.000374
     10          6           0       -4.261575   -0.621370   -0.000468
     11          1           0       -2.049265   -1.892405    0.000378
     12          1           0       -1.720933    2.397794   -0.000061
     13          1           0        0.765981    2.200095   -0.000222
     14          1           0       -5.274567   -0.215206   -0.001022
     15          1           0       -4.120484   -1.241601    0.894589
     16          1           0       -4.119299   -1.241171   -0.895621
 ---------------------------------------------------------------------

 SCF Done:  E(RB3LYP) =  -2917.87600711     A.U. after    1 cycles

 Excitation energies and oscillator strengths:

 Excited State   1:      Singlet-A      4.9236 eV  251.82 nm  f=0.0289  <S**2>=0.000
      45 -> 48        -0.26218
      46 -> 47         0.65140
 This state for optimization and/or second-order correction.
 Total Energy, E(TD-HF/TD-DFT) =  -2917.69506732
 Copying the excited state density for this state as the 1-particle RhoCI density.

 Excited State   2:      Singlet-A      5.1924 eV  238.78 nm  f=0.0002  <S**2>=0.000
      46 -> 49         0.70198

 Excited State   3:      Singlet-A      5.6824 eV  218.19 nm  f=0.2511  <S**2>=0.000
      45 -> 47         0.23834
      46 -> 48         0.65685

 Excited State   4:      Singlet-A      6.3658 eV  194.77 nm  f=0.0000  <S**2>=0.000
      45 -> 49         0.70646

 Excited State   5:      Singlet-A      6.4645 eV  191.79 nm  f=0.0001  <S**2>=0.000
      44 -> 47         0.70410

 Excited State   6:      Singlet-A      6.6734 eV  185.79 nm  f=0.0207  <S**2>=0.000
      43 -> 47         0.61256
      44 -> 49        -0.22166
      45 -> 48        -0.22794

 Excited State   7:      Singlet-A      6.7368 eV  184.04 nm  f=0.0188  <S**2>=0.000
      43 -> 47         0.23874
      44 -> 49         0.64813
      45 -> 47        -0.11234

 Excited State   8:      Singlet-A      6.7410 eV  183.93 nm  f=0.0000  <S**2>=0.000
      44 -> 48         0.70337

 Excited State   9:      Singlet-A      6.8308 eV  181.51 nm  f=0.3627  <S**2>=0.000
      41 -> 47        -0.10087
      43 -> 48         0.24950
      44 -> 49         0.14760
      45 -> 47         0.50599
      45 -> 48        -0.29062
      46 -> 47        -0.13110
      46 -> 48        -0.18468

 Excited State  10:      Singlet-A      6.9709 eV  177.86 nm  f=0.2893  <S**2>=0.000
      41 -> 47         0.18861
      43 -> 47         0.25317
      45 -> 47         0.30419
      45 -> 48         0.49606
      46 -> 47         0.18505

 The electronic state is 1-A.
 Alpha  occ. eigenvalues -- -482.90451 -61.86630 -56.38761 -56.38353 -56.38342
 Alpha  occ. eigenvalues --  -19.18557 -10.25656 -10.24780 -10.23895 -10.20457
 Alpha  occ. eigenvalues --  -10.20344 -10.19973 -10.19586  -8.57772  -6.53165
 Alpha  occ. eigenvalues --   -6.51889  -6.51877  -2.64737  -2.64370  -2.64362
 Alpha  occ. eigenvalues --   -2.63343  -2.63343  -1.07174  -0.86933  -0.79682
 Alpha  occ. eigenvalues --   -0.76100  -0.73848  -0.68953  -0.62324  -0.59049
 Alpha  occ. eigenvalues --   -0.54204  -0.49261  -0.47539  -0.47108  -0.45584
 Alpha  occ. eigenvalues --   -0.43551  -0.42392  -0.39111  -0.37498  -0.36454
 Alpha  occ. eigenvalues --   -0.34403  -0.33576  -0.28760  -0.28131  -0.26189
 Alpha  occ. eigenvalues --   -0.21854
 Alpha virt. eigenvalues --   -0.01186   0.00207   0.01146   0.09446   0.10347
 Alpha virt. eigenvalues --    0.13739   0.14365   0.14980   0.15309   0.16200
 Alpha virt. eigenvalues --    0.16913   0.19522   0.22690   0.27072   0.28158

 Mulliken charges:
               1
     1  C   -0.207680
     2  C    0.367039
     3  C   -0.200157
     4  C   -0.182417
     5  C    0.084453
     6  C   -0.190756
     7  H    0.137379
     8  Br  -0.044301
     9  O   -0.451418
    10  C   -0.227144
    11  H    0.125026
    12  H    0.130245
    13  H    0.137158
    14  H    0.178825
    15  H    0.171871
    16  H    0.171877
 Sum of Mulliken charges =  -0.00000

 Dipole moment (field-independent basis, Debye):
    X=             -2.2446    Y=             -1.3512    Z=             -0.0010  Tot=              2.6200
 Quadrupole moment (field-independent basis, Debye-Ang):
   XX=            -50.2614   YY=            -62.0166   ZZ=            -67.2768
   XY=              5.4078   XZ=              0.0039   YZ=             -0.0007

 Summary of Natural Population Analysis:

                                       Natural Population
                Natural  -----------------------------------------------
    Atom  No    Charge         Core      Valence    Rydberg      Total
 -----------------------------------------------------------------------
      C    1   -0.35055      1.99904     4.33431    0.01720     6.35055
      C    2    0.34673      1.99879     3.63137    0.02310     5.65327
      C    3   -0.33083      1.99905     4.31130    0.02047     6.33083
      C    4   -0.31059      1.99895     4.29074    0.02090     6.31059
      C    5   -0.07163      1.99857     4.05166    0.02140     6.07163
      C    6   -0.31217      1.99894     4.29118    0.02205     6.31217
      H    7    0.24348      0.00000     0.75547    0.00104     0.75652
     Br    8    0.16189     27.99904     6.82165    0.01743    34.83811
      O    9   -0.43455      1.99975     6.42305    0.01175     8.43455
      C   10   -0.32494      1.99942     4.31150    0.01402     6.32494
      H   11    0.23154      0.00000     0.76752    0.00093     0.76846
      H   12    0.24134      0.00000     0.75748    0.00118     0.75866
      H   13    0.24409      0.00000     0.75493    0.00098     0.75591
      H   14    0.23222      0.00000     0.76725    0.00053     0.76778
      H   15    0.21698      0.00000     0.78103    0.00198     0.78302
      H   16    0.21699      0.00000     0.78103    0.00198     0.78301
 =======================================================================
   * Total *    0.00000     43.99156    47.83150    0.17695    92.00000

 Normal termination of Gaussian 16 at Mon Aug 27 09:58:23 2018.
