 Gaussian 16, Revision A.03,

 -------------------------
 # opt b3lyp/6-31G* scf=qc
 -------------------------

 -------------------
 Title Card Required
 -------------------
 Symbolic Z-matrix:
 Charge =  0 Multiplicity = 1

 SCF Done:  E(RB3LYP) =  -3140.38884572     a.u. after    8 cycles
 SCF Done:  E(RB3LYP) =  -3140.38986704     a.u. after   20 cycles
 SCF Done:  E(RB3LYP) =  -3140.39005970     a.u. after    8 cycles
 SCF Done:  E(RB3LYP) =  -3140.39006825     a.u. after    4 cycles
 SCF Done:  E(RB3LYP) =  -3140.39006878     a.u. after    2 cycles
 SCF Done:  E(RB3LYP) =  -3140.39006899     a.u. after    2 cycles
 SCF Done:  E(RB3LYP) =  -3140.39006978     a.u. after    4 cycles
 SCF Done:  E(RB3LYP) =  -3140.39007258     a.u. after   13 cycles
 SCF Done:  E(RB3LYP) =  -3140.39007234     a.u. after   33 cycles
 SCF Done:  E(RB3LYP) =  -3140.39007925     a.u. after   18 cycles
 SCF Done:  E(RB3LYP) =  -3140.39009210     a.u. after   35 cycles
 SCF Done:  E(RB3LYP) =  -3140.38867525     a.u. after   23 cycles
 SCF Done:  E(RB3LYP) =  -3140.39016394     a.u. after   15 cycles
 SCF Done:  E(RB3LYP) =  -3140.39020402     a.u. after   16 cycles
 SCF Done:  E(RB3LYP) =  -3140.39022359     a.u. after   20 cycles
 SCF Done:  E(RB3LYP) =  -3140.39023039     a.u. after   12 cycles
 SCF Done:  E(RB3LYP) =  -3140.39023127     a.u. after    3 cycles
 SCF Done:  E(RB3LYP) =  -3140.39023131     a.u. after    2 cycles
 Optimization completed.
    -- Stationary point found.
 Normal termination of Gaussian 16 at Mon Aug 27 10:16:50 2018.

 ----------------------------------------------------------------------
 # freq b3lyp/6-31G* volume NMR pop=NPA density=current Geom=AllCheck G
 uess=Read
 ----------------------------------------------------------------------

 Structure from the checkpoint file:  "science_arx_22.chk"
 -------------------
 Title Card Required
 -------------------
 Charge =  0 Multiplicity = 1

 SCF Done:  E(RB3LYP) =  -3140.39023131     A.U. after    1 cycles

      1  C    Isotropic =    68.7032   Anisotropy =   163.6880

      2  C    Isotropic =    64.3450   Anisotropy =   151.2778

      3  C    Isotropic =    68.7013   Anisotropy =   163.6884

      4  C    Isotropic =    64.3238   Anisotropy =   143.1169

      5  C    Isotropic =    50.6115   Anisotropy =   115.4166

      6  C    Isotropic =    64.3229   Anisotropy =   143.1146

      7  H    Isotropic =    24.9346   Anisotropy =     8.7715

      8  Br   Isotropic =  2158.2843   Anisotropy =  1164.7652

      9  C    Isotropic =    63.3078   Anisotropy =    12.4220

     10  F    Isotropic =   273.4941   Anisotropy =   121.8894

     11  F    Isotropic =   248.5316   Anisotropy =   126.5794

     12  F    Isotropic =   273.4952   Anisotropy =   121.8642

     13  H    Isotropic =    24.8077   Anisotropy =     7.8849

     14  H    Isotropic =    24.8076   Anisotropy =     7.8852

     15  H    Isotropic =    24.9346   Anisotropy =     8.7711

  Exact polarizability: 131.450   0.000  86.010  -0.523   0.000  41.828
 Approx polarizability: 194.741  -0.000 151.713  -1.297   0.001  66.261

                      1                      2                      3
                      A                      A                      A
 Frequencies --     21.5853                70.7111               146.8160
 Red. masses --      6.1514                11.4740                11.9801
 Frc consts  --      0.0017                 0.0338                 0.1521
 IR Inten    --      0.0305                 0.6536                 1.3163

                      4                      5                      6
                      A                      A                      A
 Frequencies --    200.7695               225.1664               272.4702
 Red. masses --      9.9817                23.9481                 6.6212
 Frc consts  --      0.2371                 0.7154                 0.2896
 IR Inten    --      0.0789                 0.0051                 0.0144

                      7                      8                      9
                      A                      A                      A
 Frequencies --    379.4321               403.8543               421.4009
 Red. masses --      7.2576                 7.7150                 3.0582
 Frc consts  --      0.6156                 0.7414                 0.3200
 IR Inten    --      2.2490                 1.4094                 0.0269

                     10                     11                     12
                      A                      A                      A
 Frequencies --    439.2833               494.3195               574.2795
 Red. masses --      8.8221                 5.6842                12.4491
 Frc consts  --      1.0030                 0.8183                 2.4190
 IR Inten    --     22.4128                 2.1259                 0.0015

                     13                     14                     15
                      A                      A                      A
 Frequencies --    594.5930               644.0489               690.0307
 Red. masses --      4.4366                 7.1535                10.2521
 Frc consts  --      0.9241                 1.7483                 2.8761
 IR Inten    --      9.6902                 0.7677                 0.6868

                     16                     17                     18
                      A                      A                      A
 Frequencies --    741.7380               782.3365               854.1780
 Red. masses --      4.0983                 9.3434                 1.2455
 Frc consts  --      1.3285                 3.3693                 0.5354
 IR Inten    --      2.0519                11.0511                 0.1469

                     19                     20                     21
                      A                      A                      A
 Frequencies --    855.8841               981.9839               982.8484
 Red. masses --      1.5386                 1.3501                 1.3154
 Frc consts  --      0.6641                 0.7670                 0.7486
 IR Inten    --     50.1324                 0.0670                 0.2524

                     22                     23                     24
                      A                      A                      A
 Frequencies --   1026.0338              1086.4550              1096.5085
 Red. masses --      5.6883                 8.6813                 2.1275
 Frc consts  --      3.5282                 6.0375                 1.5071
 IR Inten    --     82.8343                27.0145                98.4903

                     25                     26                     27
                      A                      A                      A
 Frequencies --   1135.6260              1188.2658              1214.2840
 Red. masses --      1.5240                10.9351                 5.7888
 Frc consts  --      1.1580                 9.0970                 5.0289
 IR Inten    --     35.4373               256.0780               153.9596

                     28                     29                     30
                      A                      A                      A
 Frequencies --   1216.6195              1338.4766              1342.3550
 Red. masses --      1.1525                 1.3956                 5.5809
 Frc consts  --      1.0051                 1.4731                 5.9250
 IR Inten    --      7.9785                 0.0025               365.7030

                     31                     32                     33
                      A                      A                      A
 Frequencies --   1350.6908              1443.6261              1540.0145
 Red. masses --      6.2188                 2.8544                 2.4016
 Frc consts  --      6.6845                 3.5049                 3.3558
 IR Inten    --      2.6842                24.3652                13.3334

                     34                     35                     36
                      A                      A                      A
 Frequencies --   1633.0848              1656.9490              3218.6232
 Red. masses --      7.2320                 5.5782                 1.0886
 Frc consts  --     11.3638                 9.0232                 6.6443
 IR Inten    --      4.1446                60.0279                 1.3982

                     37                     38                     39
                      A                      A                      A
 Frequencies --   3219.7690              3233.0035              3234.3453
 Red. masses --      1.0884                 1.0946                 1.0954
 Frc consts  --      6.6477                 6.7410                 6.7516
 IR Inten    --      0.4507                 3.4432                 0.0173

 - Thermochemistry -
 -------------------
 Temperature   298.150 Kelvin.  Pressure   1.00000 Atm.
 Atom     1 has atomic number  6 and mass  12.00000

 Molecular mass:   223.94485 amu.
 Principal axes and moments of inertia in atomic units:
                           1         2         3
     Eigenvalues --   639.863126176.039726496.20011
           X            1.00000  -0.00000   0.00000
           Y            0.00000   1.00000   0.00000
           Z           -0.00000  -0.00000   1.00000
 This molecule is an asymmetric top.
 Rotational symmetry number  1.
 Warning -- assumption of classical behavior for rotation
           may cause significant error
 Rotational temperatures (Kelvin)      0.13536     0.01402     0.01333
 Rotational constants (GHZ):           2.82051     0.29222     0.27781
 Zero-point vibrational energy     250931.4 (Joules/Mol)
                                   59.97405 (Kcal/Mol)
 Warning -- explicit consideration of  13 degrees of freedom as
           vibrations may cause significant error
 Vibrational temperatures:     31.06   101.74   211.24   288.86   323.96
          (Kelvin)            392.02   545.92   581.06   606.30   632.03
                              711.22   826.26   855.49   926.64   992.80
                             1067.20  1125.61  1228.97  1231.43  1412.86
                             1414.10  1476.23  1563.17  1577.63  1633.91
                             1709.65  1747.08  1750.44  1925.77  1931.35
                             1943.34  2077.06  2215.74  2349.64  2383.98
                             4630.88  4632.53  4651.57  4653.50

 Zero-point correction=                           0.095575 (Hartree/Particle)
 Thermal correction to Energy=                    0.104886
 Thermal correction to Enthalpy=                  0.105831
 Thermal correction to Gibbs Free Energy=         0.058206
 Sum of electronic and zero-point Energies=          -3140.294657
 Sum of electronic and thermal Energies=             -3140.285345
 Sum of electronic and thermal Enthalpies=           -3140.284401
 Sum of electronic and thermal Free Energies=        -3140.332026

                     E (Thermal)             CV                S
                      KCal/Mol        Cal/Mol-Kelvin    Cal/Mol-Kelvin
 Total                   65.817             33.914            100.235
 Electronic               0.000              0.000              0.000
 Translational            0.889              2.981             42.121
 Rotational               0.889              2.981             31.618
 Vibrational             64.040             27.952             26.496
 Vibration     1          0.593              1.985              6.483
 Vibration     2          0.598              1.968              4.133
 Vibration     3          0.617              1.906              2.713
 Vibration     4          0.638              1.839              2.126
 Vibration     5          0.650              1.803              1.917
 Vibration     6          0.675              1.724              1.580
 Vibration     7          0.749              1.514              1.041
 Vibration     8          0.769              1.462              0.949
 Vibration     9          0.784              1.424              0.887
 Vibration    10          0.799              1.385              0.829
 Vibration    11          0.850              1.263              0.672
 Vibration    12          0.931              1.087              0.496
 Vibration    13          0.952              1.043              0.459

 Optimization completed.
    -- Stationary point found.
 Normal termination of Gaussian 16 at Mon Aug 27 10:19:39 2018.
 Gaussian 16:  ES64L-G16RevA.03 25-Dec-2016

 ----------------------------------------------------------------------
 # TD(NStates=10, Root=1) b3lyp/6-31G* volume pop=NPA density=current G
 eom=AllCheck Guess=Read
 ----------------------------------------------------------------------

 Structure from the checkpoint file:  "science_arx_23.chk"
 -------------------
 Title Card Required
 -------------------
 Charge =  0 Multiplicity = 1

                         Standard orientation:
 ---------------------------------------------------------------------
 Center     Atomic      Atomic             Coordinates (Angstroms)
 Number     Number       Type             X           Y           Z
 ---------------------------------------------------------------------
      1          6           0        0.750914    1.210292   -0.031706
      2          6           0        1.448946    0.000018   -0.039050
      3          6           0        0.750942   -1.210257   -0.031738
      4          6           0       -0.642468   -1.215358   -0.016997
      5          6           0       -1.325573   -0.000012   -0.008447
      6          6           0       -0.642482    1.215362   -0.016979
      7          1           0       -1.191511    2.150291   -0.015249
      8         35           0       -3.234742   -0.000002    0.009719
      9          6           0        2.953210    0.000006    0.003537
     10          9           0        3.472343    1.090458   -0.602626
     11          9           0        3.416531   -0.000097    1.275319
     12          9           0        3.472284   -1.090389   -0.602722
     13          1           0        1.293776    2.149531   -0.045523
     14          1           0        1.293794   -2.149506   -0.045588
     15          1           0       -1.191450   -2.150315   -0.015276
 ---------------------------------------------------------------------

 SCF Done:  E(RB3LYP) =  -3140.39023131     A.U. after    1 cycles

 Excitation energies and oscillator strengths:

 Excited State   1:      Singlet-A      5.2132 eV  237.83 nm  f=0.0003  <S**2>=0.000
      53 -> 55         0.42662
      54 -> 56         0.56115
 This state for optimization and/or second-order correction.
 Total Energy, E(TD-HF/TD-DFT) =  -3140.19865003
 Copying the excited state density for this state as the 1-particle RhoCI density.

 Excited State   2:      Singlet-A      5.6095 eV  221.03 nm  f=0.2053  <S**2>=0.000
      53 -> 56        -0.19900
      54 -> 55         0.66978

 Excited State   3:      Singlet-A      5.7378 eV  216.08 nm  f=0.0012  <S**2>=0.000
      54 -> 57         0.70304

 Excited State   4:      Singlet-A      6.0607 eV  204.57 nm  f=0.0000  <S**2>=0.000
      52 -> 55         0.70503

 Excited State   5:      Singlet-A      6.4216 eV  193.07 nm  f=0.0001  <S**2>=0.000
      52 -> 56         0.70598

 Excited State   6:      Singlet-A      6.4255 eV  192.96 nm  f=0.0775  <S**2>=0.000
      51 -> 56        -0.23712
      53 -> 55         0.36101
      53 -> 57         0.46993
      54 -> 56        -0.29556

 Excited State   7:      Singlet-A      6.4380 eV  192.58 nm  f=0.0622  <S**2>=0.000
      51 -> 56         0.21661
      53 -> 55        -0.31749
      53 -> 57         0.52777
      54 -> 56         0.26265

 Excited State   8:      Singlet-A      6.7370 eV  184.03 nm  f=0.0011  <S**2>=0.000
      52 -> 57         0.70030

 Excited State   9:      Singlet-A      6.7518 eV  183.63 nm  f=0.2225  <S**2>=0.000
      51 -> 55         0.36986
      53 -> 56         0.58177
      54 -> 55         0.12332

 Excited State  10:      Singlet-A      7.4523 eV  166.37 nm  f=0.4508  <S**2>=0.000
      51 -> 55         0.58037
      53 -> 56        -0.33693
      54 -> 55        -0.17674

 The electronic state is 1-A.
 Alpha  occ. eigenvalues -- -482.92223 -61.88404 -56.40538 -56.40122 -56.40117
 Alpha  occ. eigenvalues --  -24.72939 -24.72939 -24.72306 -10.43812 -10.26554
 Alpha  occ. eigenvalues --  -10.22768 -10.22304 -10.22300 -10.22121 -10.22121
 Alpha  occ. eigenvalues --   -8.59553  -6.54957  -6.53676  -6.53638  -2.66528
 Alpha  occ. eigenvalues --   -2.66165  -2.66137  -2.65114  -2.65114  -1.30492
 Alpha  occ. eigenvalues --   -1.21982  -1.21453  -0.89535  -0.82699  -0.77787
 Alpha  occ. eigenvalues --   -0.76303  -0.69286  -0.64300  -0.62312  -0.58306
 Alpha  occ. eigenvalues --   -0.58198  -0.57686  -0.49453  -0.48652  -0.47728
 Alpha  occ. eigenvalues --   -0.45799  -0.45772  -0.45378  -0.42551  -0.41783
 Alpha  occ. eigenvalues --   -0.40252  -0.40113  -0.40017  -0.37884  -0.36619
 Alpha  occ. eigenvalues --   -0.32691  -0.29767  -0.28060  -0.25907
 Alpha virt. eigenvalues --   -0.04009  -0.02987  -0.00481   0.10397   0.11082
 Alpha virt. eigenvalues --    0.12452   0.13663   0.15181   0.18714   0.20762
 Alpha virt. eigenvalues --    0.21280   0.21590   0.26371   0.26490   0.27544

 Mulliken charges:
               1
     1  C   -0.177518
     2  C    0.005006
     3  C   -0.177526
     4  C   -0.165395
     5  C    0.069141
     6  C   -0.165398
     7  H    0.157150
     8  Br  -0.005727
     9  C    0.782852
    10  F   -0.268807
    11  F   -0.258852
    12  F   -0.268791
    13  H    0.158356
    14  H    0.158357
    15  H    0.157152
 Sum of Mulliken charges =  -0.00000

 Dipole moment (field-independent basis, Debye):
    X=             -2.5323    Y=             -0.0001    Z=             -0.0740  Tot=              2.5333
 Quadrupole moment (field-independent basis, Debye-Ang):
   XX=            -76.1944   YY=            -67.5944   ZZ=            -74.9803
   XY=             -0.0001   XZ=             -0.2640   YZ=              0.0002

 Summary of Natural Population Analysis:

                                       Natural Population
                Natural  -----------------------------------------------
    Atom  No    Charge         Core      Valence    Rydberg      Total
 -----------------------------------------------------------------------
      C    1   -0.23622      1.99907     4.21834    0.01880     6.23622
      C    2   -0.12035      1.99888     4.10439    0.01707     6.12035
      C    3   -0.23622      1.99907     4.21835    0.01880     6.23622
      C    4   -0.25746      1.99895     4.23790    0.02061     6.25746
      C    5   -0.11947      1.99862     4.09917    0.02167     6.11947
      C    6   -0.25747      1.99895     4.23791    0.02061     6.25747
      H    7    0.24924      0.00000     0.74976    0.00100     0.75076
     Br    8    0.20139     27.99901     6.78167    0.01793    34.79861
      C    9    1.11376      1.99907     2.81702    0.07015     4.88624
      F   10   -0.36268      1.99993     7.35652    0.00623     9.36268
      F   11   -0.35981      1.99993     7.35368    0.00620     9.35981
      F   12   -0.36268      1.99993     7.35651    0.00623     9.36268
      H   13    0.24936      0.00000     0.74927    0.00137     0.75064
      H   14    0.24936      0.00000     0.74927    0.00137     0.75064
      H   15    0.24924      0.00000     0.74976    0.00100     0.75076
 =======================================================================
   * Total *    0.00000     47.99143    59.77953    0.22904   108.00000

 Normal termination of Gaussian 16 at Mon Aug 27 10:23:22 2018.
