 Gaussian 16, Revision A.03,

 -------------------------
 # opt b3lyp/6-31G* scf=qc
 -------------------------

 -------------------
 Title Card Required
 -------------------
 Symbolic Z-matrix:
 Charge =  0 Multiplicity = 1

 SCF Done:  E(RB3LYP) =  -2881.98451302     a.u. after    8 cycles
 SCF Done:  E(RB3LYP) =  -2881.98536440     a.u. after   41 cycles
 SCF Done:  E(RB3LYP) =  -2881.98541808     a.u. after    4 cycles
 SCF Done:  E(RB3LYP) =  -2881.98542080     a.u. after    2 cycles
 Optimization completed.
    -- Stationary point found.
 Normal termination of Gaussian 16 at Mon Aug 27 09:50:21 2018.

 ----------------------------------------------------------------------
 # freq b3lyp/6-31G* volume NMR pop=NPA density=current Geom=AllCheck G
 uess=Read
 ----------------------------------------------------------------------

 Structure from the checkpoint file:  "science_arx_82.chk"
 -------------------
 Title Card Required
 -------------------
 Charge =  0 Multiplicity = 1

 SCF Done:  E(RB3LYP) =  -2881.98542080     A.U. after    1 cycles

      1  C    Isotropic =    66.7609   Anisotropy =   146.2568

      2  C    Isotropic =    53.8828   Anisotropy =   187.5136

      3  C    Isotropic =    66.7698   Anisotropy =   146.5806

      4  C    Isotropic =    64.6179   Anisotropy =   139.4106

      5  C    Isotropic =    57.0024   Anisotropy =   102.5987

      6  C    Isotropic =    64.6230   Anisotropy =   139.3921

      7  H    Isotropic =    25.1206   Anisotropy =     8.7170

      8  Br   Isotropic =  2197.5926   Anisotropy =  1162.2398

      9  C    Isotropic =   157.8713   Anisotropy =    26.7342

     10  C    Isotropic =   169.7759   Anisotropy =    28.2719

     11  H    Isotropic =    25.2138   Anisotropy =     6.8217

     12  H    Isotropic =    25.2095   Anisotropy =     6.8446

     13  H    Isotropic =    25.1185   Anisotropy =     8.7203

     14  H    Isotropic =    29.6883   Anisotropy =     6.5063

     15  H    Isotropic =    29.6753   Anisotropy =     6.5115

     16  H    Isotropic =    31.0844   Anisotropy =     6.9733

     17  H    Isotropic =    30.8866   Anisotropy =    10.3207

     18  H    Isotropic =    31.0827   Anisotropy =     6.9745

  Exact polarizability: 148.330   0.011  93.596  -4.688   0.086  52.219
 Approx polarizability: 208.130   0.039 163.047 -11.741   0.203  77.652

                      1                      2                      3
                      A                      A                      A
 Frequencies --     34.2010                77.2055               193.5996
 Red. masses --      2.5829                 4.6081                 1.9623
 Frc consts  --      0.0018                 0.0162                 0.0433
 IR Inten    --      0.0006                 0.0336                 0.0048

                      4                      5                      6
                      A                      A                      A
 Frequencies --    195.1977               249.1170               286.6461
 Red. masses --      4.2259                 1.5924                 8.6271
 Frc consts  --      0.0949                 0.0582                 0.4176
 IR Inten    --      0.0944                 0.0027                 2.1523

                      7                      8                      9
                      A                      A                      A
 Frequencies --    374.0844               380.5340               422.0580
 Red. masses --      2.2436                 4.2628                 2.9988
 Frc consts  --      0.1850                 0.3637                 0.3147
 IR Inten    --      0.0185                 0.9674                 0.0012

                     10                     11                     12
                      A                      A                      A
 Frequencies --    532.7151               602.7270               648.6486
 Red. masses --      3.0142                 3.8744                 6.8681
 Frc consts  --      0.5040                 0.8293                 1.7026
 IR Inten    --     12.0192                 9.3296                 0.1073

                     13                     14                     15
                      A                      A                      A
 Frequencies --    738.9791               788.0894               798.1076
 Red. masses --      3.5555                 4.0899                 1.1604
 Frc consts  --      1.1440                 1.4966                 0.4355
 IR Inten    --      1.4705                 8.6589                 0.7888

                     16                     17                     18
                      A                      A                      A
 Frequencies --    845.3762               849.9262               971.2110
 Red. masses --      1.5047                 1.2471                 1.3470
 Frc consts  --      0.6336                 0.5308                 0.7486
 IR Inten    --     33.0620                 0.0129                 0.0047

                     19                     20                     21
                      A                      A                      A
 Frequencies --    973.8308               979.1607              1027.3348
 Red. masses --      1.3554                 2.3038                 4.9223
 Frc consts  --      0.7573                 1.3014                 3.0609
 IR Inten    --      0.1925                 4.6121                34.8330

                     22                     23                     24
                      A                      A                      A
 Frequencies --   1077.9213              1091.7006              1095.1491
 Red. masses --      1.4717                 2.1116                 2.2980
 Frc consts  --      1.0075                 1.4827                 1.6239
 IR Inten    --      1.2375                 1.0255                37.7329

                     25                     26                     27
                      A                      A                      A
 Frequencies --   1147.8623              1214.6519              1232.4924
 Red. masses --      1.3055                 1.1398                 2.6330
 Frc consts  --      1.0135                 0.9908                 2.3565
 IR Inten    --      3.9396                 0.4071                 2.3535

                     28                     29                     30
                      A                      A                      A
 Frequencies --   1285.2525              1336.8297              1358.9769
 Red. masses --      1.4235                 1.9417                 1.9821
 Frc consts  --      1.3854                 2.0445                 2.1567
 IR Inten    --      0.0147                 0.0672                 0.0080

                     31                     32                     33
                      A                      A                      A
 Frequencies --   1372.7712              1436.6284              1450.0734
 Red. masses --      1.4891                 1.2172                 2.5671
 Frc consts  --      1.6533                 1.4802                 3.1803
 IR Inten    --      5.0243                 1.2566                 7.1417

                     34                     35                     36
                      A                      A                      A
 Frequencies --   1517.2719              1526.2919              1536.3126
 Red. masses --      1.0810                 1.0411                 1.4450
 Frc consts  --      1.4663                 1.4289                 2.0095
 IR Inten    --      1.0495                 7.7464                21.3361

                     37                     38                     39
                      A                      A                      A
 Frequencies --   1540.0620              1627.9428              1651.5331
 Red. masses --      1.4609                 6.6122                 5.6388
 Frc consts  --      2.0415                10.3247                 9.0618
 IR Inten    --     31.8017                 0.2846                 5.1453

                     40                     41                     42
                      A                      A                      A
 Frequencies --   3044.9846              3048.7134              3079.2709
 Red. masses --      1.0597                 1.0350                 1.1039
 Frc consts  --      5.7889                 5.6677                 6.1671
 IR Inten    --     30.1100                34.3011                 9.0315

                     43                     44                     45
                      A                      A                      A
 Frequencies --   3118.8497              3122.2784              3180.2738
 Red. masses --      1.1028                 1.1035                 1.0891
 Frc consts  --      6.3201                 6.3384                 6.4902
 IR Inten    --     46.2010                33.2699                15.7374

                     46                     47                     48
                      A                      A                      A
 Frequencies --   3180.9158              3222.0792              3223.0060
 Red. masses --      1.0892                 1.0929                 1.0935
 Frc consts  --      6.4930                 6.6847                 6.6922
 IR Inten    --     12.0274                 7.2489                 0.2195

 - Thermochemistry -
 -------------------
 Temperature   298.150 Kelvin.  Pressure   1.00000 Atm.
 Atom     1 has atomic number  6 and mass  12.00000

 Molecular mass:   183.98876 amu.
 Principal axes and moments of inertia in atomic units:
                           1         2         3
     Eigenvalues --   416.267794050.788074288.96934
           X            0.99996  -0.00011   0.00876
           Y            0.00011   1.00000   0.00005
           Z           -0.00876  -0.00004   0.99996
 This molecule is an asymmetric top.
 Rotational symmetry number  1.
 Rotational temperatures (Kelvin)      0.20807     0.02138     0.02019
 Rotational constants (GHZ):           4.33553     0.44553     0.42079
 Zero-point vibrational energy     386925.2 (Joules/Mol)
                                   92.47735 (Kcal/Mol)
 Warning -- explicit consideration of  11 degrees of freedom as
           vibrations may cause significant error
 Vibrational temperatures:     49.21   111.08   278.55   280.85   358.42
          (Kelvin)            412.42   538.22   547.50   607.25   766.46
                              867.19   933.26  1063.23  1133.88  1148.30
                             1216.31  1222.85  1397.36  1401.13  1408.79
                             1478.11  1550.89  1570.71  1575.68  1651.52
                             1747.61  1773.28  1849.19  1923.40  1955.26
                             1975.11  2066.99  2086.33  2183.02  2195.99
                             2210.41  2215.81  2342.25  2376.19  4381.05
                             4386.42  4430.38  4487.33  4492.26  4575.70
                             4576.63  4635.85  4637.19

 Zero-point correction=                           0.147372 (Hartree/Particle)
 Thermal correction to Energy=                    0.156112
 Thermal correction to Enthalpy=                  0.157056
 Thermal correction to Gibbs Free Energy=         0.111758
 Sum of electronic and zero-point Energies=          -2881.838049
 Sum of electronic and thermal Energies=             -2881.829309
 Sum of electronic and thermal Enthalpies=           -2881.828364
 Sum of electronic and thermal Free Energies=        -2881.873663

                     E (Thermal)             CV                S
                      KCal/Mol        Cal/Mol-Kelvin    Cal/Mol-Kelvin
 Total                   97.962             32.018             95.339
 Electronic               0.000              0.000              0.000
 Translational            0.889              2.981             41.535
 Rotational               0.889              2.981             30.359
 Vibrational             96.184             26.057             23.444
 Vibration     1          0.594              1.983              5.570
 Vibration     2          0.599              1.964              3.961
 Vibration     3          0.635              1.849              2.193
 Vibration     4          0.636              1.847              2.178
 Vibration     5          0.662              1.764              1.737
 Vibration     6          0.684              1.698              1.494
 Vibration     7          0.745              1.525              1.063
 Vibration     8          0.750              1.512              1.037
 Vibration     9          0.784              1.422              0.885
 Vibration    10          0.888              1.178              0.581
 Vibration    11          0.961              1.026              0.445

                           ! Non-Optimized Parameters !
 Normal termination of Gaussian 16 at Mon Aug 27 09:53:08 2018.
 Gaussian 16:  ES64L-G16RevA.03 25-Dec-2016

 ----------------------------------------------------------------------
 # TD(NStates=10, Root=1) b3lyp/6-31G* volume pop=NPA density=current G
 eom=AllCheck Guess=Read
 ----------------------------------------------------------------------

 Structure from the checkpoint file:  "science_arx_83.chk"
 -------------------
 Title Card Required
 -------------------
 Charge =  0 Multiplicity = 1

                         Standard orientation:
 ---------------------------------------------------------------------
 Center     Atomic      Atomic             Coordinates (Angstroms)
 Number     Number       Type             X           Y           Z
 ---------------------------------------------------------------------
      1          6           0        1.317639    1.203844   -0.280630
      2          6           0        2.036783    0.003756   -0.356057
      3          6           0        1.319640   -1.197980   -0.286506
      4          6           0       -0.067984   -1.210900   -0.143772
      5          6           0       -0.751174    0.000686   -0.069627
      6          6           0       -0.070070    1.213722   -0.137805
      7          1           0       -0.615274    2.149939   -0.084717
      8         35           0       -2.656561   -0.001434    0.121620
      9          6           0        3.546733    0.005044   -0.469165
     10          6           0        4.249089   -0.008740    0.900474
     11          1           0        1.848409    2.151691   -0.338452
     12          1           0        1.851984   -2.144654   -0.349052
     13          1           0       -0.611622   -2.148280   -0.095344
     14          1           0        3.870747    0.889792   -1.031426
     15          1           0        3.871059   -0.868090   -1.049190
     16          1           0        3.971227    0.869829    1.493489
     17          1           0        5.338482   -0.007952    0.780467
     18          1           0        3.970693   -0.898674    1.476057
 ---------------------------------------------------------------------

 SCF Done:  E(RB3LYP) =  -2881.98542080     A.U. after    1 cycles

 Excitation energies and oscillator strengths:

 Excited State   1:      Singlet-A      5.1831 eV  239.21 nm  f=0.0058  <S**2>=0.000
      45 -> 48         0.37231
      46 -> 47         0.59940
 This state for optimization and/or second-order correction.
 Total Energy, E(TD-HF/TD-DFT) =  -2881.79494356
 Copying the excited state density for this state as the 1-particle RhoCI density.

 Excited State   2:      Singlet-A      5.4871 eV  225.95 nm  f=0.0024  <S**2>=0.000
      46 -> 49         0.69759

 Excited State   3:      Singlet-A      5.7476 eV  215.72 nm  f=0.2219  <S**2>=0.000
      45 -> 47        -0.24187
      46 -> 48         0.65220

 Excited State   4:      Singlet-A      6.2547 eV  198.23 nm  f=0.0005  <S**2>=0.000
      45 -> 49         0.70377

 Excited State   5:      Singlet-A      6.4665 eV  191.73 nm  f=0.0000  <S**2>=0.000
      44 -> 48         0.70304

 Excited State   6:      Singlet-A      6.5425 eV  189.51 nm  f=0.0001  <S**2>=0.000
      44 -> 47         0.70418

 Excited State   7:      Singlet-A      6.5966 eV  187.95 nm  f=0.1258  <S**2>=0.000
      43 -> 47        -0.34971
      44 -> 49         0.18443
      45 -> 48         0.48351
      46 -> 47        -0.31403

 Excited State   8:      Singlet-A      6.7385 eV  183.99 nm  f=0.0069  <S**2>=0.000
      43 -> 47         0.10455
      44 -> 49         0.68013
      45 -> 48        -0.12959

 Excited State   9:      Singlet-A      6.7856 eV  182.72 nm  f=0.3811  <S**2>=0.000
      43 -> 48         0.31110
      45 -> 47         0.59530
      46 -> 48         0.18911

 Excited State  10:      Singlet-A      7.3486 eV  168.72 nm  f=0.0382  <S**2>=0.000
      43 -> 48         0.22636
      43 -> 49         0.65160

 The electronic state is 1-A.
 Alpha  occ. eigenvalues -- -482.90614 -61.86797 -56.38926 -56.38519 -56.38510
 Alpha  occ. eigenvalues --  -10.24335 -10.20248 -10.20165 -10.20163 -10.19790
 Alpha  occ. eigenvalues --  -10.19787 -10.19478 -10.18275  -8.57944  -6.53334
 Alpha  occ. eigenvalues --   -6.52067  -6.52044  -2.64906  -2.64545  -2.64528
 Alpha  occ. eigenvalues --   -2.63517  -2.63517  -0.87262  -0.81105  -0.76632
 Alpha  occ. eigenvalues --   -0.75517  -0.70897  -0.63020  -0.61874  -0.57967
 Alpha  occ. eigenvalues --   -0.50188  -0.47854  -0.46201  -0.43394  -0.43206
 Alpha  occ. eigenvalues --   -0.42439  -0.39701  -0.37706  -0.36786  -0.36287
 Alpha  occ. eigenvalues --   -0.34229  -0.33798  -0.30240  -0.28258  -0.25959
 Alpha  occ. eigenvalues --   -0.23398
 Alpha virt. eigenvalues --   -0.01047  -0.00965   0.00979   0.09684   0.12221
 Alpha virt. eigenvalues --    0.12368   0.13623   0.15129   0.16009   0.16640
 Alpha virt. eigenvalues --    0.17484   0.18208   0.19488   0.21965   0.24227

 Mulliken charges:
               1
     1  C   -0.205010
     2  C    0.193305
     3  C   -0.204972
     4  C   -0.162480
     5  C    0.066889
     6  C   -0.162579
     7  H    0.142436
     8  Br  -0.029252
     9  C   -0.341918
    10  C   -0.433271
    11  H    0.123744
    12  H    0.123683
    13  H    0.142459
    14  H    0.146429
    15  H    0.146560
    16  H    0.153613
    17  H    0.146766
    18  H    0.153596
 Sum of Mulliken charges =  -0.00000

 Dipole moment (field-independent basis, Debye):
    X=              0.7148    Y=             -0.0002    Z=              0.0471  Tot=              0.7163
 Quadrupole moment (field-independent basis, Debye-Ang):
   XX=            -59.5896   YY=            -62.8749   ZZ=            -68.6983
   XY=              0.0037   XZ=             -0.6453   YZ=              0.0164

 Summary of Natural Population Analysis:

                                       Natural Population
                Natural  -----------------------------------------------
    Atom  No    Charge         Core      Valence    Rydberg      Total
 -----------------------------------------------------------------------
      C    1   -0.26691      1.99905     4.24997    0.01789     6.26691
      C    2    0.02738      1.99905     3.95575    0.01782     5.97262
      C    3   -0.26747      1.99905     4.25053    0.01790     6.26747
      C    4   -0.27904      1.99895     4.25899    0.02110     6.27904
      C    5   -0.09765      1.99860     4.07754    0.02151     6.09765
      C    6   -0.27941      1.99895     4.25936    0.02111     6.27941
      H    7    0.24308      0.00000     0.75587    0.00106     0.75692
     Br    8    0.17788     27.99903     6.80546    0.01763    34.82212
      C    9   -0.47600      1.99929     4.46472    0.01199     6.47600
      C   10   -0.66311      1.99944     4.65658    0.00710     6.66311
      H   11    0.22991      0.00000     0.76905    0.00104     0.77009
      H   12    0.22989      0.00000     0.76907    0.00104     0.77011
      H   13    0.24307      0.00000     0.75588    0.00106     0.75693
      H   14    0.24150      0.00000     0.75644    0.00206     0.75850
      H   15    0.24165      0.00000     0.75626    0.00209     0.75835
      H   16    0.23149      0.00000     0.76726    0.00125     0.76851
      H   17    0.23229      0.00000     0.76654    0.00117     0.76771
      H   18    0.23145      0.00000     0.76731    0.00125     0.76855
 =======================================================================
   * Total *   -0.00000     43.99139    47.84257    0.16604    92.00000

 Normal termination of Gaussian 16 at Mon Aug 27 09:56:48 2018.
