 Gaussian 16, Revision A.03,

 -------------------------
 # opt b3lyp/6-31G* scf=qc
 -------------------------

 -------------------
 Title Card Required
 -------------------
 Symbolic Z-matrix:
 Charge =  0 Multiplicity = 1

 SCF Done:  E(RB3LYP) =  -770.475262666     a.u. after    7 cycles
 SCF Done:  E(RB3LYP) =  -770.476532716     a.u. after    7 cycles
 SCF Done:  E(RB3LYP) =  -770.476637199     a.u. after    3 cycles
 SCF Done:  E(RB3LYP) =  -770.476645304     a.u. after    2 cycles
 SCF Done:  E(RB3LYP) =  -770.476645625     a.u. after    2 cycles
 Optimization completed.
    -- Stationary point found.
 Normal termination of Gaussian 16 at Mon Aug 27 09:49:11 2018.

 ----------------------------------------------------------------------
 # freq b3lyp/6-31G* volume NMR pop=NPA density=current Geom=AllCheck G
 uess=Read
 ----------------------------------------------------------------------

 Structure from the checkpoint file:  "science_arx_72.chk"
 -------------------
 Title Card Required
 -------------------
 Charge =  0 Multiplicity = 1

 SCF Done:  E(RB3LYP) =  -770.476645625     A.U. after    1 cycles

      1  C    Isotropic =    66.9786   Anisotropy =   147.4299

      2  C    Isotropic =    54.3596   Anisotropy =   186.4185

      3  C    Isotropic =    66.9894   Anisotropy =   147.8002

      4  C    Isotropic =    67.4639   Anisotropy =   140.1008

      5  C    Isotropic =    55.4628   Anisotropy =   102.4695

      6  C    Isotropic =    67.4718   Anisotropy =   140.0795

      7  H    Isotropic =    25.2052   Anisotropy =     7.0216

      8  Cl   Isotropic =   731.7074   Anisotropy =   459.0186

      9  C    Isotropic =   157.8848   Anisotropy =    26.5695

     10  C    Isotropic =   169.7577   Anisotropy =    28.2493

     11  H    Isotropic =    25.2045   Anisotropy =     6.7744

     12  H    Isotropic =    25.1997   Anisotropy =     6.8005

     13  H    Isotropic =    25.2027   Anisotropy =     7.0258

     14  H    Isotropic =    29.6908   Anisotropy =     6.4992

     15  H    Isotropic =    29.6759   Anisotropy =     6.5030

     16  H    Isotropic =    31.0899   Anisotropy =     7.0103

     17  H    Isotropic =    30.8914   Anisotropy =    10.2348

     18  H    Isotropic =    31.0877   Anisotropy =     7.0141

  Exact polarizability: 134.764   0.019  89.576  -5.952   0.092  47.122
 Approx polarizability: 189.112   0.048 153.170 -13.557   0.213  68.054

                      1                      2                      3
                      A                      A                      A
 Frequencies --     35.3978                86.3013               206.8153
 Red. masses --      2.5501                 4.8569                 4.1913
 Frc consts  --      0.0019                 0.0213                 0.1056
 IR Inten    --      0.0055                 0.0049                 0.1483

                      4                      5                      6
                      A                      A                      A
 Frequencies --    208.6486               272.3475               349.2698
 Red. masses --      1.4094                 2.3101                 6.5455
 Frc consts  --      0.0362                 0.1010                 0.4705
 IR Inten    --      0.0421                 0.1274                 1.7377

                      7                      8                      9
                      A                      A                      A
 Frequencies --    381.7483               408.7227               420.2063
 Red. masses --      2.4281                 5.0944                 3.0529
 Frc consts  --      0.2085                 0.5014                 0.3176
 IR Inten    --      0.1094                 3.6034                 0.0025

                     10                     11                     12
                      A                      A                      A
 Frequencies --    537.1559               632.4603               649.4152
 Red. masses --      2.8772                 4.3483                 6.8653
 Frc consts  --      0.4891                 1.0248                 1.7059
 IR Inten    --     12.8060                13.5544                 0.0928

                     13                     14                     15
                      A                      A                      A
 Frequencies --    728.5583               796.5436               798.0652
 Red. masses --      3.7372                 4.3112                 1.1623
 Frc consts  --      1.1688                 1.6116                 0.4361
 IR Inten    --      2.4046                 9.5954                 0.7922

                     16                     17                     18
                      A                      A                      A
 Frequencies --    839.0044               840.7968               959.2446
 Red. masses --      1.5149                 1.2472                 1.2921
 Frc consts  --      0.6283                 0.5195                 0.7005
 IR Inten    --     35.8136                 0.0174                 0.0502

                     19                     20                     21
                      A                      A                      A
 Frequencies --    960.6274               978.7808              1032.3850
 Red. masses --      1.3358                 2.3859                 3.9201
 Frc consts  --      0.7263                 1.3467                 2.4617
 IR Inten    --      0.0041                 3.3999                25.3018

                     22                     23                     24
                      A                      A                      A
 Frequencies --   1078.0998              1092.0307              1110.8289
 Red. masses --      1.4670                 1.9021                 2.9623
 Frc consts  --      1.0046                 1.3365                 2.1536
 IR Inten    --      1.1951                 8.7335                53.8849

                     25                     26                     27
                      A                      A                      A
 Frequencies --   1147.9121              1213.0364              1233.4466
 Red. masses --      1.2949                 1.1514                 2.6054
 Frc consts  --      1.0053                 0.9982                 2.3354
 IR Inten    --      3.9491                 0.6097                 1.3522

                     28                     29                     30
                      A                      A                      A
 Frequencies --   1285.3006              1334.0893              1359.3881
 Red. masses --      1.4185                 1.8163                 2.1548
 Frc consts  --      1.3806                 1.9046                 2.3461
 IR Inten    --      0.0325                 0.0092                 0.0612

                     31                     32                     33
                      A                      A                      A
 Frequencies --   1372.7355              1436.3701              1453.2496
 Red. masses --      1.4896                 1.2168                 2.6174
 Frc consts  --      1.6538                 1.4792                 3.2569
 IR Inten    --      4.9956                 1.2714                 5.0334

                     34                     35                     36
                      A                      A                      A
 Frequencies --   1517.4165              1526.2540              1537.2770
 Red. masses --      1.0757                 1.0411                 1.1914
 Frc consts  --      1.4593                 1.4289                 1.6589
 IR Inten    --      0.9460                 7.7464                 8.3314

                     37                     38                     39
                      A                      A                      A
 Frequencies --   1542.1572              1630.3401              1655.6951
 Red. masses --      1.8976                 6.6084                 5.6943
 Frc consts  --      2.6590                10.3490                 9.1970
 IR Inten    --     51.2602                 0.5615                 5.1371

                     40                     41                     42
                      A                      A                      A
 Frequencies --   3044.9903              3048.7890              3079.2033
 Red. masses --      1.0597                 1.0349                 1.1039
 Frc consts  --      5.7892                 5.6677                 6.1668
 IR Inten    --     29.5716                33.9463                 9.1889

                     43                     44                     45
                      A                      A                      A
 Frequencies --   3118.8953              3122.5092              3181.0627
 Red. masses --      1.1028                 1.1035                 1.0891
 Frc consts  --      6.3203                 6.3394                 6.4933
 IR Inten    --     45.5444                33.3721                15.1592

                     46                     47                     48
                      A                      A                      A
 Frequencies --   3181.7071              3220.4965              3221.3891
 Red. masses --      1.0891                 1.0930                 1.0936
 Frc consts  --      6.4957                 6.6792                 6.6863
 IR Inten    --     11.5319                 8.0524                 0.8140

 - Thermochemistry -
 -------------------
 Temperature   298.150 Kelvin.  Pressure   1.00000 Atm.
 Atom     1 has atomic number  6 and mass  12.00000

 Molecular mass:   140.03928 amu.
 Principal axes and moments of inertia in atomic units:
                           1         2         3
     Eigenvalues --   412.566962740.995052982.87605
           X            0.99996  -0.00013   0.00845
           Y            0.00013   1.00000   0.00004
           Z           -0.00845  -0.00004   0.99996
 This molecule is an asymmetric top.
 Rotational symmetry number  1.
 Rotational temperatures (Kelvin)      0.20994     0.03160     0.02904
 Rotational constants (GHZ):           4.37442     0.65843     0.60503
 Zero-point vibrational energy     387991.8 (Joules/Mol)
                                   92.73227 (Kcal/Mol)
 Warning -- explicit consideration of  10 degrees of freedom as
           vibrations may cause significant error
 Vibrational temperatures:     50.93   124.17   297.56   300.20   391.85
          (Kelvin)            502.52   549.25   588.06   604.58   772.85
                              909.97   934.36  1048.23  1146.05  1148.24
                             1207.14  1209.72  1380.14  1382.13  1408.25
                             1485.37  1551.15  1571.19  1598.24  1651.59
                             1745.29  1774.65  1849.26  1919.46  1955.86
                             1975.06  2066.62  2090.90  2183.22  2195.94
                             2211.80  2218.82  2345.70  2382.18  4381.06
                             4386.53  4430.29  4487.39  4492.59  4576.84
                             4577.77  4633.58  4634.86

 Zero-point correction=                           0.147778 (Hartree/Particle)
 Thermal correction to Energy=                    0.156303
 Thermal correction to Enthalpy=                  0.157247
 Thermal correction to Gibbs Free Energy=         0.113256
 Sum of electronic and zero-point Energies=           -770.328867
 Sum of electronic and thermal Energies=              -770.320342
 Sum of electronic and thermal Enthalpies=            -770.319398
 Sum of electronic and thermal Free Energies=         -770.363390

                     E (Thermal)             CV                S
                      KCal/Mol        Cal/Mol-Kelvin    Cal/Mol-Kelvin
 Total                   98.082             31.706             92.588
 Electronic               0.000              0.000              0.000
 Translational            0.889              2.981             40.722
 Rotational               0.889              2.981             29.602
 Vibrational             96.304             25.744             22.264
 Vibration     1          0.594              1.982              5.501
 Vibration     2          0.601              1.959              3.742
 Vibration     3          0.641              1.830              2.072
 Vibration     4          0.642              1.827              2.055
 Vibration     5          0.675              1.724              1.581
 Vibration     6          0.727              1.577              1.169
 Vibration     7          0.751              1.509              1.032
 Vibration     8          0.773              1.451              0.931
 Vibration     9          0.783              1.426              0.891
 Vibration    10          0.892              1.168              0.571

                           ! Non-Optimized Parameters !
 Normal termination of Gaussian 16 at Mon Aug 27 09:52:10 2018.
 Gaussian 16:  ES64L-G16RevA.03 25-Dec-2016

 ----------------------------------------------------------------------
 # TD(NStates=10, Root=1) b3lyp/6-31G* volume pop=NPA density=current G
 eom=AllCheck Guess=Read
 ----------------------------------------------------------------------

 Structure from the checkpoint file:  "science_arx_73.chk"
 -------------------
 Title Card Required
 -------------------
 Charge =  0 Multiplicity = 1

                         Standard orientation:
 ---------------------------------------------------------------------
 Center     Atomic      Atomic             Coordinates (Angstroms)
 Number     Number       Type             X           Y           Z
 ---------------------------------------------------------------------
      1          6           0        0.630384    1.203809   -0.261191
      2          6           0        1.348385    0.004229   -0.352450
      3          6           0        0.633293   -1.197672   -0.267509
      4          6           0       -0.750624   -1.211654   -0.094474
      5          6           0       -1.433520   -0.000118   -0.005047
      6          6           0       -0.753654    1.213475   -0.088073
      7          1           0       -1.299164    2.149064   -0.022982
      8         17           0       -3.181774   -0.002894    0.208816
      9          6           0        2.855452    0.006157   -0.498570
     10          6           0        3.587759   -0.009112    0.855629
     11          1           0        1.159671    2.151614   -0.330567
     12          1           0        1.164897   -2.143806   -0.341973
     13          1           0       -1.293887   -2.148884   -0.034384
     14          1           0        3.167170    0.891605   -1.066646
     15          1           0        3.167632   -0.866056   -1.086613
     16          1           0        3.322355    0.868526    1.455641
     17          1           0        4.674286   -0.007584    0.711933
     18          1           0        3.322344   -0.899978    1.435831
 ---------------------------------------------------------------------

 SCF Done:  E(RB3LYP) =  -770.476645625     A.U. after    1 cycles

 Excitation energies and oscillator strengths:

 Excited State   1:      Singlet-A      5.2411 eV  236.56 nm  f=0.0061  <S**2>=0.000
      36 -> 39         0.39493
      37 -> 38         0.58573
 This state for optimization and/or second-order correction.
 Total Energy, E(TD-HF/TD-DFT) =  -770.284037737
 Copying the excited state density for this state as the 1-particle RhoCI density.

 Excited State   2:      Singlet-A      5.8748 eV  211.04 nm  f=0.1737  <S**2>=0.000
      36 -> 38        -0.29515
      37 -> 39         0.63716

 Excited State   3:      Singlet-A      6.1702 eV  200.94 nm  f=0.0011  <S**2>=0.000
      37 -> 40         0.70072

 Excited State   4:      Singlet-A      6.8226 eV  181.73 nm  f=0.0694  <S**2>=0.000
      36 -> 39        -0.29593
      36 -> 40         0.60193
      37 -> 38         0.19611

 Excited State   5:      Singlet-A      6.8845 eV  180.09 nm  f=0.2045  <S**2>=0.000
      34 -> 38        -0.16500
      36 -> 39         0.47067
      36 -> 40         0.36937
      37 -> 38        -0.32434

 Excited State   6:      Singlet-A      6.9399 eV  178.65 nm  f=0.6623  <S**2>=0.000
      34 -> 39         0.13205
      36 -> 38         0.62373
      37 -> 39         0.28312

 Excited State   7:      Singlet-A      7.0999 eV  174.63 nm  f=0.0000  <S**2>=0.000
      35 -> 39         0.70027

 Excited State   8:      Singlet-A      7.1681 eV  172.97 nm  f=0.0001  <S**2>=0.000
      35 -> 38         0.70054

 Excited State   9:      Singlet-A      7.7807 eV  159.35 nm  f=0.0523  <S**2>=0.000
      32 -> 39        -0.13255
      33 -> 38        -0.28782
      34 -> 38         0.59883
      36 -> 39         0.13356

 Excited State  10:      Singlet-A      7.8122 eV  158.71 nm  f=0.0885  <S**2>=0.000
      33 -> 39        -0.10292
      34 -> 39         0.66616
      36 -> 38        -0.10706

 The electronic state is 1-A.
 Alpha  occ. eigenvalues -- -101.54422 -10.24913 -10.20219 -10.20169 -10.20167
 Alpha  occ. eigenvalues --  -10.19806 -10.19803 -10.19475 -10.18271  -9.46051
 Alpha  occ. eigenvalues --   -7.22442  -7.21479  -7.21451  -0.88670  -0.83935
 Alpha  occ. eigenvalues --   -0.77982  -0.75556  -0.71514  -0.63150  -0.61995
 Alpha  occ. eigenvalues --   -0.58065  -0.50660  -0.48046  -0.46602  -0.43545
 Alpha  occ. eigenvalues --   -0.43446  -0.42516  -0.40429  -0.38771  -0.37398
 Alpha  occ. eigenvalues --   -0.36472  -0.34264  -0.34157  -0.32192  -0.30855
 Alpha  occ. eigenvalues --   -0.25974  -0.23730
 Alpha virt. eigenvalues --   -0.01041  -0.00876   0.03201   0.09787   0.12330
 Alpha virt. eigenvalues --    0.12441   0.13649   0.15195   0.15962   0.16708
 Alpha virt. eigenvalues --    0.17534   0.18358   0.19572   0.22454   0.24675

 Mulliken charges:
               1
     1  C   -0.196266
     2  C    0.187564
     3  C   -0.196187
     4  C   -0.141107
     5  C   -0.074101
     6  C   -0.141179
     7  H    0.147621
     8  Cl   0.036516
     9  C   -0.342268
    10  C   -0.433393
    11  H    0.127032
    12  H    0.126969
    13  H    0.147640
    14  H    0.147428
    15  H    0.147585
    16  H    0.154098
    17  H    0.147983
    18  H    0.154065
 Sum of Mulliken charges =  -0.00000

 Dipole moment (field-independent basis, Debye):
    X=              1.5077    Y=              0.0012    Z=             -0.0562  Tot=              1.5087
 Quadrupole moment (field-independent basis, Debye-Ang):
   XX=            -58.1231   YY=            -56.6873   ZZ=            -63.0537
   XY=              0.0003   XZ=             -0.5482   YZ=              0.0189

 Summary of Natural Population Analysis:

                                       Natural Population
                Natural  -----------------------------------------------
    Atom  No    Charge         Core      Valence    Rydberg      Total
 -----------------------------------------------------------------------
      C    1   -0.25552      1.99905     4.23875    0.01771     6.25552
      C    2    0.02188      1.99905     3.96112    0.01795     5.97812
      C    3   -0.25610      1.99905     4.23932    0.01772     6.25610
      C    4   -0.27070      1.99897     4.25105    0.02068     6.27070
      C    5   -0.02542      1.99856     4.00477    0.02209     6.02542
      C    6   -0.27104      1.99897     4.25139    0.02068     6.27104
      H    7    0.24397      0.00000     0.75499    0.00105     0.75603
     Cl    8    0.06718      9.99964     6.91369    0.01949    16.93282
      C    9   -0.47676      1.99929     4.46544    0.01203     6.47676
      C   10   -0.66317      1.99944     4.65660    0.00713     6.66317
      H   11    0.23053      0.00000     0.76842    0.00105     0.76947
      H   12    0.23052      0.00000     0.76844    0.00105     0.76948
      H   13    0.24396      0.00000     0.75500    0.00105     0.75604
      H   14    0.24205      0.00000     0.75589    0.00206     0.75795
      H   15    0.24222      0.00000     0.75568    0.00210     0.75778
      H   16    0.23173      0.00000     0.76704    0.00124     0.76827
      H   17    0.23300      0.00000     0.76580    0.00120     0.76700
      H   18    0.23166      0.00000     0.76710    0.00123     0.76834
 =======================================================================
   * Total *    0.00000     25.99203    47.84048    0.16749    74.00000

 Normal termination of Gaussian 16 at Mon Aug 27 09:56:33 2018.
