 Gaussian 16, Revision A.03,

 -------------------------
 # opt b3lyp/6-31G* scf=qc
 -------------------------

 -------------------
 Title Card Required
 -------------------
 Symbolic Z-matrix:
 Charge =  0 Multiplicity = 1

 SCF Done:  E(RB3LYP) =  -806.365716696     a.u. after    7 cycles
 SCF Done:  E(RB3LYP) =  -806.366996453     a.u. after    5 cycles
 SCF Done:  E(RB3LYP) =  -806.367093912     a.u. after    4 cycles
 SCF Done:  E(RB3LYP) =  -806.367101771     a.u. after    3 cycles
 SCF Done:  E(RB3LYP) =  -806.367102966     a.u. after    2 cycles
 SCF Done:  E(RB3LYP) =  -806.367103279     a.u. after    2 cycles
 SCF Done:  E(RB3LYP) =  -806.367103465     a.u. after    2 cycles
 SCF Done:  E(RB3LYP) =  -806.367103529     a.u. after    2 cycles
 Optimization completed.
    -- Stationary point found.
 Normal termination of Gaussian 16 at Mon Aug 27 09:50:29 2018.

 ----------------------------------------------------------------------
 # freq b3lyp/6-31G* volume NMR pop=NPA density=current Geom=AllCheck G
 uess=Read
 ----------------------------------------------------------------------

 Structure from the checkpoint file:  "science_arx_42.chk"
 -------------------
 Title Card Required
 -------------------
 Charge =  0 Multiplicity = 1

 SCF Done:  E(RB3LYP) =  -806.367103529     A.U. after    1 cycles

      1  C    Isotropic =    85.9094   Anisotropy =   141.5372

      2  C    Isotropic =    40.5003   Anisotropy =   128.2451

      3  C    Isotropic =    77.5504   Anisotropy =   133.8417

      4  C    Isotropic =    66.4806   Anisotropy =   140.7166

      5  C    Isotropic =    61.9600   Anisotropy =    93.7516

      6  C    Isotropic =    66.8738   Anisotropy =   140.6465

      7  H    Isotropic =    25.2419   Anisotropy =     7.1259

      8  Cl   Isotropic =   742.6232   Anisotropy =   457.6379

      9  O    Isotropic =   237.6261   Anisotropy =    82.5380

     10  C    Isotropic =   137.3615   Anisotropy =    65.4694

     11  H    Isotropic =    25.8992   Anisotropy =     7.0332

     12  H    Isotropic =    25.5698   Anisotropy =     5.5662

     13  H    Isotropic =    25.2281   Anisotropy =     6.7905

     14  H    Isotropic =    28.3042   Anisotropy =     7.9649

     15  H    Isotropic =    28.7039   Anisotropy =     7.9745

     16  H    Isotropic =    28.7045   Anisotropy =     7.9729

  Exact polarizability: 130.175   0.971  83.830  -0.001  -0.002  37.619
 Approx polarizability: 187.598  -3.133 143.065  -0.004  -0.003  55.353

                      1                      2                      3
                      A                      A                      A
 Frequencies --     77.5455               140.2103               205.1554
 Red. masses --      3.6030                 5.3428                 4.5897
 Frc consts  --      0.0128                 0.0619                 0.1138
 IR Inten    --      1.4134                 3.6457                 1.2890

                      4                      5                      6
                      A                      A                      A
 Frequencies --    246.1572               310.3347               340.8824
 Red. masses --      1.1495                 4.7676                 4.9215
 Frc consts  --      0.0410                 0.2705                 0.3369
 IR Inten    --      0.0182                 2.4652                 1.7635

                      7                      8                      9
                      A                      A                      A
 Frequencies --    366.8512               427.6827               502.7225
 Red. masses --      8.5664                 3.1821                 4.2023
 Frc consts  --      0.6792                 0.3429                 0.6257
 IR Inten    --      1.0761                 0.0000                 0.0336

                     10                     11                     12
                      A                      A                      A
 Frequencies --    518.2494               635.1366               648.9979
 Red. masses --      2.6427                 6.5270                 6.9416
 Frc consts  --      0.4182                 1.5513                 1.7227
 IR Inten    --      8.0457                31.1612                13.9487

                     13                     14                     15
                      A                      A                      A
 Frequencies --    703.0999               815.0415               816.8918
 Red. masses --      3.8617                 1.2798                 5.7190
 Frc consts  --      1.1248                 0.5009                 2.2485
 IR Inten    --      0.0512                 7.1827                 1.0653

                     16                     17                     18
                      A                      A                      A
 Frequencies --    838.6053               935.6085               955.2126
 Red. masses --      1.5994                 1.2929                 1.2907
 Frc consts  --      0.6627                 0.6668                 0.6939
 IR Inten    --     52.2484                 0.0305                 0.0368

                     19                     20                     21
                      A                      A                      A
 Frequencies --   1024.5992              1076.7622              1111.9705
 Red. masses --      3.5823                 7.2692                 2.7498
 Frc consts  --      2.2157                 4.9657                 2.0032
 IR Inten    --     12.8092                63.1852                38.1854

                     22                     23                     24
                      A                      A                      A
 Frequencies --   1138.9037              1185.1522              1204.9012
 Red. masses --      1.3095                 1.2700                 1.1552
 Frc consts  --      1.0007                 1.0510                 0.9881
 IR Inten    --      7.6877                 0.7879                18.6691

                     25                     26                     27
                      A                      A                      A
 Frequencies --   1218.4236              1298.2113              1333.4833
 Red. masses --      1.3842                 5.0690                 1.2979
 Frc consts  --      1.2107                 5.0334                 1.3598
 IR Inten    --      7.4103               232.7512                 0.7990

                     28                     29                     30
                      A                      A                      A
 Frequencies --   1352.1941              1455.8437              1498.8423
 Red. masses --      7.6485                 3.0825                 1.2080
 Frc consts  --      8.2396                 3.8493                 1.5990
 IR Inten    --     54.4608                 0.0807                30.8370

                     31                     32                     33
                      A                      A                      A
 Frequencies --   1521.4463              1533.6093              1547.0594
 Red. masses --      1.0479                 1.1101                 2.0616
 Frc consts  --      1.4292                 1.5384                 2.9072
 IR Inten    --      5.8141                77.3578               113.5389

                     34                     35                     36
                      A                      A                      A
 Frequencies --   1633.2875              1660.2696              3026.0623
 Red. masses --      6.9867                 5.7215                 1.0348
 Frc consts  --     10.9812                 9.2921                 5.5830
 IR Inten    --     10.2951                31.6416                52.4486

                     37                     38                     39
                      A                      A                      A
 Frequencies --   3085.5620              3159.6572              3211.8849
 Red. masses --      1.1068                 1.0997                 1.0880
 Frc consts  --      6.2087                 6.4686                 6.6130
 IR Inten    --     43.0642                24.5394                 5.2232

                     40                     41                     42
                      A                      A                      A
 Frequencies --   3215.7796              3226.6651              3231.9192
 Red. masses --      1.0887                 1.0951                 1.0933
 Frc consts  --      6.6335                 6.7176                 6.7282
 IR Inten    --      2.9901                 5.0252                 6.1634

 - Thermochemistry -
 -------------------
 Temperature   298.150 Kelvin.  Pressure   1.00000 Atm.
 Atom     1 has atomic number  6 and mass  12.00000

 Molecular mass:   142.01854 amu.
 Principal axes and moments of inertia in atomic units:
                           1         2         3
     Eigenvalues --   372.558002656.575043017.59931
           X            0.99985   0.01709   0.00001
           Y           -0.01709   0.99985  -0.00000
           Z           -0.00001   0.00000   1.00000
 This molecule is an asymmetric top.
 Rotational symmetry number  1.
 Rotational temperatures (Kelvin)      0.23248     0.03260     0.02870
 Rotational constants (GHZ):           4.84419     0.67935     0.59807
 Zero-point vibrational energy     325604.8 (Joules/Mol)
                                   77.82142 (Kcal/Mol)
 Warning -- explicit consideration of  10 degrees of freedom as
           vibrations may cause significant error
 Vibrational temperatures:    111.57   201.73   295.17   354.17   446.50
          (Kelvin)            490.45   527.82   615.34   723.31   745.65
                              913.82   933.76  1011.60  1172.66  1175.33
                             1206.57  1346.13  1374.34  1474.17  1549.22
                             1599.88  1638.63  1705.17  1733.58  1753.04
                             1867.84  1918.58  1945.51  2094.63  2156.50
                             2189.02  2206.52  2225.87  2349.94  2388.76
                             4353.83  4439.44  4546.04  4621.19  4626.79
                             4642.45  4650.01

 Zero-point correction=                           0.124016 (Hartree/Particle)
 Thermal correction to Energy=                    0.132080
 Thermal correction to Enthalpy=                  0.133025
 Thermal correction to Gibbs Free Energy=         0.090721
 Sum of electronic and zero-point Energies=           -806.243087
 Sum of electronic and thermal Energies=              -806.235023
 Sum of electronic and thermal Enthalpies=            -806.234079
 Sum of electronic and thermal Free Energies=         -806.276382

                     E (Thermal)             CV                S
                      KCal/Mol        Cal/Mol-Kelvin    Cal/Mol-Kelvin
 Total                   82.882             30.162             89.035
 Electronic               0.000              0.000              0.000
 Translational            0.889              2.981             40.764
 Rotational               0.889              2.981             29.481
 Vibrational             81.104             24.200             18.790
 Vibration     1          0.599              1.964              3.952
 Vibration     2          0.615              1.913              2.801
 Vibration     3          0.640              1.833              2.086
 Vibration     4          0.661              1.769              1.758
 Vibration     5          0.699              1.654              1.361
 Vibration     6          0.720              1.594              1.208
 Vibration     7          0.740              1.540              1.093
 Vibration     8          0.789              1.410              0.866
 Vibration     9          0.858              1.244              0.651
 Vibration    10          0.873              1.210              0.614

 Optimization completed.
    -- Stationary point found.
 Normal termination of Gaussian 16 at Mon Aug 27 09:53:00 2018.
 Gaussian 16:  ES64L-G16RevA.03 25-Dec-2016

 ----------------------------------------------------------------------
 # TD(NStates=10, Root=1) b3lyp/6-31G* volume pop=NPA density=current G
 eom=AllCheck Guess=Read
 ----------------------------------------------------------------------

 Structure from the checkpoint file:  "science_arx_43.chk"
 -------------------
 Title Card Required
 -------------------
 Charge =  0 Multiplicity = 1

                         Standard orientation:
 ---------------------------------------------------------------------
 Center     Atomic      Atomic             Coordinates (Angstroms)
 Number     Number       Type             X           Y           Z
 ---------------------------------------------------------------------
      1          6           0       -0.797237   -1.001122    0.000174
      2          6           0       -1.365063    0.278103    0.000116
      3          6           0       -0.530950    1.406463    0.000048
      4          6           0        0.850484    1.261379   -0.000009
      5          6           0        1.407803   -0.019903    0.000013
      6          6           0        0.593322   -1.146468    0.000114
      7          1           0        1.035227   -2.137322    0.000163
      8         17           0        3.159334   -0.206908   -0.000091
      9          8           0       -2.704927    0.534115    0.000128
     10          6           0       -3.599351   -0.567520   -0.000258
     11          1           0       -1.417575   -1.889807    0.000322
     12          1           0       -0.988207    2.390762    0.000032
     13          1           0        1.494029    2.134739   -0.000070
     14          1           0       -4.602677   -0.137998   -0.000657
     15          1           0       -3.472397   -1.190749    0.894858
     16          1           0       -3.471717   -1.190701   -0.895307
 ---------------------------------------------------------------------

 SCF Done:  E(RB3LYP) =  -806.367103529     A.U. after    1 cycles

 Excitation energies and oscillator strengths:

 Excited State   1:      Singlet-A      4.9672 eV  249.61 nm  f=0.0321  <S**2>=0.000
      36 -> 39        -0.27317
      37 -> 38         0.64723
 This state for optimization and/or second-order correction.
 Total Energy, E(TD-HF/TD-DFT) =  -806.184564040
 Copying the excited state density for this state as the 1-particle RhoCI density.

 Excited State   2:      Singlet-A      5.7616 eV  215.19 nm  f=0.2094  <S**2>=0.000
      36 -> 38         0.26591
      37 -> 39         0.64669

 Excited State   3:      Singlet-A      5.8255 eV  212.83 nm  f=0.0006  <S**2>=0.000
      37 -> 40         0.70190

 Excited State   4:      Singlet-A      6.9196 eV  179.18 nm  f=0.4327  <S**2>=0.000
      32 -> 38         0.10844
      35 -> 38        -0.21287
      36 -> 38         0.46546
      36 -> 39        -0.37181
      37 -> 38        -0.17182
      37 -> 39        -0.21481

 Excited State   5:      Singlet-A      6.9461 eV  178.49 nm  f=0.0000  <S**2>=0.000
      36 -> 40         0.70627

 Excited State   6:      Singlet-A      6.9935 eV  177.28 nm  f=0.4275  <S**2>=0.000
      32 -> 38        -0.12987
      35 -> 38         0.18886
      36 -> 38         0.44285
      36 -> 39         0.43847
      37 -> 38         0.16331
      37 -> 39        -0.15375

 Excited State   7:      Singlet-A      7.0997 eV  174.63 nm  f=0.0001  <S**2>=0.000
      34 -> 38         0.70059

 Excited State   8:      Singlet-A      7.1687 eV  172.95 nm  f=0.0503  <S**2>=0.000
      35 -> 38         0.64335
      36 -> 39        -0.24783
      37 -> 38        -0.10682

 Excited State   9:      Singlet-A      7.3800 eV  168.00 nm  f=0.0000  <S**2>=0.000
      34 -> 39         0.69970

 Excited State  10:      Singlet-A      7.6017 eV  163.10 nm  f=0.0026  <S**2>=0.000
      35 -> 39         0.69681

 The electronic state is 1-A.
 Alpha  occ. eigenvalues -- -101.54241 -19.18532 -10.25625 -10.24771 -10.24472
 Alpha  occ. eigenvalues --  -10.20458 -10.20351 -10.19990 -10.19604  -9.45863
 Alpha  occ. eigenvalues --   -7.22257  -7.21286  -7.21268  -1.07143  -0.88443
 Alpha  occ. eigenvalues --   -0.83119  -0.76208  -0.74669  -0.69352  -0.62436
 Alpha  occ. eigenvalues --   -0.59209  -0.54245  -0.49434  -0.48049  -0.47525
 Alpha  occ. eigenvalues --   -0.45737  -0.43614  -0.42519  -0.39519  -0.38552
 Alpha  occ. eigenvalues --   -0.37368  -0.35492  -0.33617  -0.30741  -0.30297
 Alpha  occ. eigenvalues --   -0.26209  -0.22017
 Alpha virt. eigenvalues --   -0.01182   0.00295   0.03359   0.09555   0.10445
 Alpha virt. eigenvalues --    0.13775   0.14371   0.14981   0.15358   0.16210
 Alpha virt. eigenvalues --    0.17172   0.19666   0.23426   0.28422   0.29277

 Mulliken charges:
               1
     1  C   -0.200978
     2  C    0.361317
     3  C   -0.193062
     4  C   -0.162736
     5  C   -0.057429
     6  C   -0.170521
     7  H    0.141008
     8  Cl   0.029722
     9  O   -0.446203
    10  C   -0.229063
    11  H    0.126579
    12  H    0.132067
    13  H    0.140723
    14  H    0.180628
    15  H    0.173973
    16  H    0.173975
 Sum of Mulliken charges =  -0.00000

 Dipole moment (field-independent basis, Debye):
    X=             -3.0292    Y=             -1.2466    Z=             -0.0004  Tot=              3.2757
 Quadrupole moment (field-independent basis, Debye-Ang):
   XX=            -49.9182   YY=            -56.1086   ZZ=            -61.6493
   XY=              4.6335   XZ=              0.0016   YZ=             -0.0004

 Summary of Natural Population Analysis:

                                       Natural Population
                Natural  -----------------------------------------------
    Atom  No    Charge         Core      Valence    Rydberg      Total
 -----------------------------------------------------------------------
      C    1   -0.34345      1.99905     4.32730    0.01710     6.34345
      C    2    0.34093      1.99879     3.63724    0.02304     5.65907
      C    3   -0.32361      1.99906     4.30418    0.02037     6.32361
      C    4   -0.30825      1.99896     4.28873    0.02056     6.30825
      C    5    0.00348      1.99853     3.97608    0.02190     5.99652
      C    6   -0.30879      1.99896     4.28820    0.02163     6.30879
      H    7    0.24393      0.00000     0.75505    0.00103     0.75607
     Cl    8    0.06075      9.99964     6.92055    0.01906    16.93925
      O    9   -0.42680      1.99975     6.41533    0.01173     8.42680
      C   10   -0.32595      1.99942     4.31249    0.01405     6.32595
      H   11    0.23162      0.00000     0.76743    0.00095     0.76838
      H   12    0.24163      0.00000     0.75718    0.00119     0.75837
      H   13    0.24454      0.00000     0.75449    0.00097     0.75546
      H   14    0.23321      0.00000     0.76626    0.00053     0.76679
      H   15    0.21839      0.00000     0.77966    0.00196     0.78161
      H   16    0.21839      0.00000     0.77966    0.00196     0.78161
 =======================================================================
   * Total *    0.00000     25.99217    47.82982    0.17802    74.00000

 Normal termination of Gaussian 16 at Mon Aug 27 09:57:11 2018.
