 Gaussian 16, Revision A.03,

 -------------------------
 # opt b3lyp/6-31G* scf=qc
 -------------------------

 -------------------
 Title Card Required
 -------------------
 Symbolic Z-matrix:
 Charge =  0 Multiplicity = 1

 SCF Done:  E(RB3LYP) =  -1028.87975778     a.u. after    7 cycles
 SCF Done:  E(RB3LYP) =  -1028.88110286     a.u. after    7 cycles
 SCF Done:  E(RB3LYP) =  -1028.88133161     a.u. after    4 cycles
 SCF Done:  E(RB3LYP) =  -1028.88134950     a.u. after    3 cycles
 SCF Done:  E(RB3LYP) =  -1028.88135050     a.u. after    2 cycles
 SCF Done:  E(RB3LYP) =  -1028.88135069     a.u. after    2 cycles
 SCF Done:  E(RB3LYP) =  -1028.88135101     a.u. after    3 cycles
 SCF Done:  E(RB3LYP) =  -1028.88135238     a.u. after    5 cycles
 SCF Done:  E(RB3LYP) =  -1028.88135614     a.u. after    9 cycles
 SCF Done:  E(RB3LYP) =  -1028.88135869     a.u. after    7 cycles
 SCF Done:  E(RB3LYP) =  -1028.88126523     a.u. after   13 cycles
 SCF Done:  E(RB3LYP) =  -1028.87040083     a.u. after   12 cycles
 SCF Done:  E(RB3LYP) =  -1028.87073584     a.u. after   14 cycles
 SCF Done:  E(RB3LYP) =  -1028.88149067     a.u. after    2 cycles
 SCF Done:  E(RB3LYP) =  -1028.88151506     a.u. after    3 cycles
 SCF Done:  E(RB3LYP) =  -1028.88151607     a.u. after    5 cycles
 SCF Done:  E(RB3LYP) =  -1028.88151655     a.u. after    3 cycles
 SCF Done:  E(RB3LYP) =  -1028.88151666     a.u. after    2 cycles
 Optimization completed.
    -- Stationary point found.
 Normal termination of Gaussian 16 at Mon Aug 27 10:06:17 2018.

 ----------------------------------------------------------------------
 # freq b3lyp/6-31G* volume NMR pop=NPA density=current Geom=AllCheck G
 uess=Read
 ----------------------------------------------------------------------

 Structure from the checkpoint file:  "science_arx_12.chk"
 -------------------
 Title Card Required
 -------------------
 Charge =  0 Multiplicity = 1

 SCF Done:  E(RB3LYP) =  -1028.88151666     A.U. after    1 cycles

      1  C    Isotropic =    68.6657   Anisotropy =   165.1538

      2  C    Isotropic =    64.8074   Anisotropy =   150.2788

      3  C    Isotropic =    68.6704   Anisotropy =   165.1488

      4  C    Isotropic =    67.1198   Anisotropy =   143.6832

      5  C    Isotropic =    49.8673   Anisotropy =   113.3502

      6  C    Isotropic =    67.1224   Anisotropy =   143.6868

      7  H    Isotropic =    25.0296   Anisotropy =     7.0658

      8  Cl   Isotropic =   713.3882   Anisotropy =   454.0810

      9  C    Isotropic =    63.3362   Anisotropy =    12.6156

     10  F    Isotropic =   273.3825   Anisotropy =   121.9086

     11  F    Isotropic =   248.4832   Anisotropy =   126.6517

     12  F    Isotropic =   273.4272   Anisotropy =   121.8183

     13  H    Isotropic =    24.7856   Anisotropy =     7.8419

     14  H    Isotropic =    24.7859   Anisotropy =     7.8412

     15  H    Isotropic =    25.0296   Anisotropy =     7.0662

  Exact polarizability: 118.461   0.000  81.968  -0.586   0.000  36.554
 Approx polarizability: 175.920   0.001 141.842  -1.393   0.000  56.266

                      1                      2                      3
                      A                      A                      A
 Frequencies --     21.7945                79.7102               162.9071
 Red. masses --      6.1514                12.6435                12.1412
 Frc consts  --      0.0017                 0.0473                 0.1898
 IR Inten    --      0.0304                 0.9167                 1.7573

                      4                      5                      6
                      A                      A                      A
 Frequencies --    209.8265               276.4830               301.4048
 Red. masses --      9.8521                18.6174                 7.7623
 Frc consts  --      0.2556                 0.8385                 0.4155
 IR Inten    --      0.0705                 0.3006                 0.2035

                      7                      8                      9
                      A                      A                      A
 Frequencies --    385.1404               407.1161               419.5903
 Red. masses --      7.3913                 6.9537                 3.1844
 Frc consts  --      0.6460                 0.6791                 0.3303
 IR Inten    --      1.5448                 1.0612                 0.0499

                     10                     11                     12
                      A                      A                      A
 Frequencies --    494.6057               502.3633               574.4952
 Red. masses --      5.5963                 9.3523                12.2794
 Frc consts  --      0.8066                 1.3906                 2.3878
 IR Inten    --      1.8528                32.2350                 0.0001

                     13                     14                     15
                      A                      A                      A
 Frequencies --    591.6204               644.6772               706.2877
 Red. masses --      4.5233                 7.1912                10.8461
 Frc consts  --      0.9328                 1.7609                 3.1878
 IR Inten    --      9.4106                 0.7731                 0.1470

                     16                     17                     18
                      A                      A                      A
 Frequencies --    731.3530               790.1363               844.9017
 Red. masses --      4.4281                 8.7938                 1.2454
 Frc consts  --      1.3955                 3.2347                 0.5238
 IR Inten    --      2.8369                10.7733                 0.1366

                     19                     20                     21
                      A                      A                      A
 Frequencies --    848.9517               969.3297               971.1676
 Red. masses --      1.5467                 1.2814                 1.3388
 Frc consts  --      0.6568                 0.7094                 0.7439
 IR Inten    --     53.1779                 0.6714                 0.0809

                     22                     23                     24
                      A                      A                      A
 Frequencies --   1030.1922              1090.2911              1112.2512
 Red. masses --      4.6572                 4.8031                 2.9278
 Frc consts  --      2.9122                 3.3640                 2.1340
 IR Inten    --     65.3401                73.7941                74.7479

                     25                     26                     27
                      A                      A                      A
 Frequencies --   1136.1740              1188.2407              1214.0565
 Red. masses --      1.5033                10.7705                 5.8019
 Frc consts  --      1.1433                 8.9597                 5.0385
 IR Inten    --     35.3070               256.7427               155.0534

                     28                     29                     30
                      A                      A                      A
 Frequencies --   1215.4071              1335.6093              1342.8377
 Red. masses --      1.1596                 1.3837                 5.5604
 Frc consts  --      1.0093                 1.4543                 5.9075
 IR Inten    --      6.8263                 0.1673               360.7728

                     31                     32                     33
                      A                      A                      A
 Frequencies --   1351.9266              1447.0439              1543.4255
 Red. masses --      6.5672                 2.9208                 2.4365
 Frc consts  --      7.0719                 3.6034                 3.4198
 IR Inten    --      3.1781                20.2062                16.2916

                     34                     35                     36
                      A                      A                      A
 Frequencies --   1635.3544              1660.8808              3218.5481
 Red. masses --      7.2013                 5.6262                 1.0885
 Frc consts  --     11.3471                 9.1441                 6.6437
 IR Inten    --      5.0473                55.1634                 1.7870

                     37                     38                     39
                      A                      A                      A
 Frequencies --   3219.7564              3232.3002              3233.6244
 Red. masses --      1.0884                 1.0948                 1.0955
 Frc consts  --      6.6477                 6.7391                 6.7493
 IR Inten    --      0.2400                 3.7255                 0.0318

 - Thermochemistry -
 -------------------
 Temperature   298.150 Kelvin.  Pressure   1.00000 Atm.
 Atom     1 has atomic number  6 and mass  12.00000

 Molecular mass:   179.99536 amu.
 Principal axes and moments of inertia in atomic units:
                           1         2         3
     Eigenvalues --   639.870874089.235564409.49707
           X            1.00000   0.00000  -0.00006
           Y           -0.00000   1.00000   0.00000
           Z            0.00006  -0.00000   1.00000
 This molecule is an asymmetric top.
 Rotational symmetry number  1.
 Warning -- assumption of classical behavior for rotation
           may cause significant error
 Rotational temperatures (Kelvin)      0.13536     0.02118     0.01964
 Rotational constants (GHZ):           2.82048     0.44134     0.40929
 Zero-point vibrational energy     252063.8 (Joules/Mol)
                                   60.24470 (Kcal/Mol)
 Warning -- explicit consideration of  13 degrees of freedom as
           vibrations may cause significant error
 Vibrational temperatures:     31.36   114.69   234.39   301.89   397.80
          (Kelvin)            433.65   554.13   585.75   603.70   711.63
                              722.79   826.57   851.21   927.55  1016.19
                             1052.25  1136.83  1215.63  1221.45  1394.65
                             1397.29  1482.22  1568.69  1600.28  1634.70
                             1709.61  1746.76  1748.70  1921.64  1932.04
                             1945.12  2081.97  2220.65  2352.91  2389.64
                             4630.77  4632.51  4650.56  4652.46

 Zero-point correction=                           0.096006 (Hartree/Particle)
 Thermal correction to Energy=                    0.105091
 Thermal correction to Enthalpy=                  0.106035
 Thermal correction to Gibbs Free Energy=         0.059700
 Sum of electronic and zero-point Energies=          -1028.785511
 Sum of electronic and thermal Energies=             -1028.776426
 Sum of electronic and thermal Enthalpies=           -1028.775481
 Sum of electronic and thermal Free Energies=        -1028.821817

                     E (Thermal)             CV                S
                      KCal/Mol        Cal/Mol-Kelvin    Cal/Mol-Kelvin
 Total                   65.946             33.592             97.521
 Electronic               0.000              0.000              0.000
 Translational            0.889              2.981             41.470
 Rotational               0.889              2.981             30.824
 Vibrational             64.168             27.630             25.227
 Vibration     1          0.593              1.985              6.464
 Vibration     2          0.600              1.963              3.898
 Vibration     3          0.623              1.888              2.516
 Vibration     4          0.642              1.826              2.045
 Vibration     5          0.678              1.717              1.555
 Vibration     6          0.693              1.671              1.409
 Vibration     7          0.754              1.502              1.019
 Vibration     8          0.772              1.455              0.937
 Vibration     9          0.782              1.428              0.893
 Vibration    10          0.850              1.262              0.672
 Vibration    11          0.858              1.245              0.652
 Vibration    12          0.931              1.086              0.496
 Vibration    13          0.949              1.050              0.464

 Optimization completed.
    -- Stationary point found.
 Normal termination of Gaussian 16 at Mon Aug 27 10:08:55 2018.
 Gaussian 16:  ES64L-G16RevA.03 25-Dec-2016

 ----------------------------------------------------------------------
 # TD(NStates=10, Root=1) b3lyp/6-31G* volume pop=NPA density=current G
 eom=AllCheck Guess=Read
 ----------------------------------------------------------------------

 Structure from the checkpoint file:  "science_arx_13.chk"
 -------------------
 Title Card Required
 -------------------
 Charge =  0 Multiplicity = 1

                         Standard orientation:
 ---------------------------------------------------------------------
 Center     Atomic      Atomic             Coordinates (Angstroms)
 Number     Number       Type             X           Y           Z
 ---------------------------------------------------------------------
      1          6           0        0.074880    1.210037   -0.029465
      2          6           0        0.773104   -0.000036   -0.037881
      3          6           0        0.074817   -1.210102   -0.029480
      4          6           0       -1.318239   -1.215783   -0.012671
      5          6           0       -2.002152    0.000022   -0.003153
      6          6           0       -1.318208    1.215764   -0.012633
      7          1           0       -1.868411    2.150277   -0.010165
      8         17           0       -3.757150    0.000016    0.016320
      9          6           0        2.277315   -0.000032    0.002208
     10          9           0        2.795326    1.090369   -0.605186
     11          9           0        2.743024    0.000325    1.273086
     12          9           0        2.795393   -1.090631   -0.604603
     13          1           0        0.617889    2.149129   -0.044133
     14          1           0        0.617794   -2.149219   -0.044136
     15          1           0       -1.868519   -2.150249   -0.010242
 ---------------------------------------------------------------------

 SCF Done:  E(RB3LYP) =  -1028.88151666     A.U. after    1 cycles

 Excitation energies and oscillator strengths:

 Excited State   1:      Singlet-A      5.2809 eV  234.78 nm  f=0.0001  <S**2>=0.000
      44 -> 46        -0.45832
      45 -> 47         0.53677
 This state for optimization and/or second-order correction.
 Total Energy, E(TD-HF/TD-DFT) =  -1028.68744600
 Copying the excited state density for this state as the 1-particle RhoCI density.

 Excited State   2:      Singlet-A      5.8192 eV  213.06 nm  f=0.1637  <S**2>=0.000
      44 -> 47         0.27009
      45 -> 46         0.64972

 Excited State   3:      Singlet-A      6.4855 eV  191.17 nm  f=0.0008  <S**2>=0.000
      45 -> 48         0.70343

 Excited State   4:      Singlet-A      6.7150 eV  184.64 nm  f=0.0000  <S**2>=0.000
      43 -> 46         0.70290

 Excited State   5:      Singlet-A      6.7424 eV  183.89 nm  f=0.2675  <S**2>=0.000
      42 -> 47         0.21349
      44 -> 46         0.50245
      45 -> 47         0.44328

 Excited State   6:      Singlet-A      6.9524 eV  178.33 nm  f=0.5145  <S**2>=0.000
      42 -> 46        -0.20172
      44 -> 47         0.62538
      45 -> 46        -0.24397

 Excited State   7:      Singlet-A      7.0347 eV  176.25 nm  f=0.0002  <S**2>=0.000
      44 -> 48         0.70624

 Excited State   8:      Singlet-A      7.0714 eV  175.33 nm  f=0.0002  <S**2>=0.000
      43 -> 47         0.70335

 Excited State   9:      Singlet-A      7.7937 eV  159.08 nm  f=0.1255  <S**2>=0.000
      41 -> 46         0.18586
      42 -> 46         0.64150
      44 -> 47         0.16195
      45 -> 46        -0.11577

 Excited State  10:      Singlet-A      7.8805 eV  157.33 nm  f=0.0189  <S**2>=0.000
      41 -> 46         0.67685
      42 -> 46        -0.17412

 The electronic state is 1-A.
 Alpha  occ. eigenvalues -- -101.56094 -24.72956 -24.72953 -24.72319 -10.43829
 Alpha  occ. eigenvalues --  -10.27193 -10.22773 -10.22355 -10.22351 -10.22163
 Alpha  occ. eigenvalues --  -10.22162  -9.47728  -7.24127  -7.23156  -7.23116
 Alpha  occ. eigenvalues --   -1.30506  -1.21997  -1.21467  -0.90831  -0.86007
 Alpha  occ. eigenvalues --   -0.77867  -0.77862  -0.69568  -0.64447  -0.62519
 Alpha  occ. eigenvalues --   -0.58321  -0.58236  -0.57727  -0.50482  -0.48939
 Alpha  occ. eigenvalues --   -0.47791  -0.45859  -0.45805  -0.45435  -0.42620
 Alpha  occ. eigenvalues --   -0.41820  -0.41701  -0.40741  -0.40130  -0.38129
 Alpha  occ. eigenvalues --   -0.37194  -0.34752  -0.32464  -0.28111  -0.26482
 Alpha virt. eigenvalues --   -0.03962  -0.03014   0.01785   0.10627   0.11096
 Alpha virt. eigenvalues --    0.12338   0.13693   0.15420   0.18751   0.21074
 Alpha virt. eigenvalues --    0.21341   0.22028   0.26871   0.27371   0.29709

 Mulliken charges:
               1
     1  C   -0.167315
     2  C   -0.001301
     3  C   -0.167312
     4  C   -0.142480
     5  C   -0.072937
     6  C   -0.142480
     7  H    0.163775
     8  Cl   0.053257
     9  C    0.783038
    10  F   -0.268556
    11  F   -0.258274
    12  F   -0.268500
    13  H    0.162658
    14  H    0.162654
    15  H    0.163772
 Sum of Mulliken charges =   0.00000

 Dipole moment (field-independent basis, Debye):
    X=             -1.6370    Y=             -0.0003    Z=             -0.0793  Tot=              1.6389
 Quadrupole moment (field-independent basis, Debye-Ang):
   XX=            -72.0694   YY=            -61.2675   ZZ=            -69.3815
   XY=             -0.0010   XZ=             -0.1879   YZ=              0.0002

 Summary of Natural Population Analysis:

                                       Natural Population
                Natural  -----------------------------------------------
    Atom  No    Charge         Core      Valence    Rydberg      Total
 -----------------------------------------------------------------------
      C    1   -0.22108      1.99908     4.20343    0.01857     6.22108
      C    2   -0.12897      1.99889     4.11288    0.01720     6.12897
      C    3   -0.22108      1.99908     4.20342    0.01857     6.22108
      C    4   -0.24440      1.99897     4.22531    0.02012     6.24440
      C    5   -0.04934      1.99860     4.02839    0.02235     6.04934
      C    6   -0.24438      1.99897     4.22529    0.02012     6.24438
      H    7    0.25066      0.00000     0.74834    0.00099     0.74934
     Cl    8    0.08039      9.99963     6.89983    0.02014    16.91961
      C    9    1.11145      1.99908     2.81921    0.07026     4.88855
      F   10   -0.36245      1.99993     7.35628    0.00624     9.36245
      F   11   -0.35966      1.99993     7.35350    0.00623     9.35966
      F   12   -0.36242      1.99993     7.35625    0.00624     9.36242
      H   13    0.25030      0.00000     0.74831    0.00139     0.74970
      H   14    0.25030      0.00000     0.74831    0.00139     0.74970
      H   15    0.25066      0.00000     0.74835    0.00099     0.74934
 =======================================================================
   * Total *    0.00000     29.99210    59.77709    0.23081    90.00000

 Normal termination of Gaussian 16 at Mon Aug 27 10:12:30 2018.
