 Gaussian 16, Revision A.03,

 -------------------------
 # opt b3lyp/genecp scf=qc
 -------------------------

 -------------------
 Title Card Required
 -------------------
 Symbolic Z-matrix:
 Charge =  0 Multiplicity = 1

 SCF Done:  E(RB3LYP) =  -321.650119859     a.u. after    8 cycles
 SCF Done:  E(RB3LYP) =  -321.651911276     a.u. after    9 cycles
 SCF Done:  E(RB3LYP) =  -321.652022473     a.u. after    3 cycles
 SCF Done:  E(RB3LYP) =  -321.652030202     a.u. after    3 cycles
 Optimization completed.
    -- Stationary point found.
 Normal termination of Gaussian 16 at Mon Aug 27 09:48:41 2018.

 ----------------------------------------------------------------------
 # freq b3lyp/genecp volume NMR pop=NPA density=current Geom=AllCheck G
 uess=Read
 ----------------------------------------------------------------------

 Structure from the checkpoint file:  "science_arx_92.chk"
 -------------------
 Title Card Required
 -------------------
 Charge =  0 Multiplicity = 1

 SCF Done:  E(RB3LYP) =  -321.652030202     A.U. after    1 cycles

      1  C    Isotropic =    67.1175   Anisotropy =   144.3401

      2  C    Isotropic =    53.6978   Anisotropy =   188.4898

      3  C    Isotropic =    67.1266   Anisotropy =   144.6153

      4  C    Isotropic =    61.0658   Anisotropy =   136.2365

      5  C    Isotropic =    62.4658   Anisotropy =    93.8380

      6  C    Isotropic =    61.0663   Anisotropy =   136.2201

      7  H    Isotropic =    25.1702   Anisotropy =     8.5431

      8  I    Isotropic =    44.6004   Anisotropy =    30.0984

      9  C    Isotropic =   158.4837   Anisotropy =    26.5178

     10  C    Isotropic =   170.3334   Anisotropy =    28.2205

     11  H    Isotropic =    25.3265   Anisotropy =     6.8570

     12  H    Isotropic =    25.3227   Anisotropy =     6.8763

     13  H    Isotropic =    25.1684   Anisotropy =     8.5457

     14  H    Isotropic =    29.7455   Anisotropy =     6.5014

     15  H    Isotropic =    29.7340   Anisotropy =     6.5059

     16  H    Isotropic =    31.1362   Anisotropy =     6.9761

     17  H    Isotropic =    30.9195   Anisotropy =    10.2603

     18  H    Isotropic =    31.1352   Anisotropy =     6.9760

  Exact polarizability: 163.805   0.018  87.931  -5.482   0.084  43.200
 Approx polarizability: 220.178   0.046 149.567 -12.612   0.188  61.152

                      1                      2                      3
                      A                      A                      A
 Frequencies --     34.3583                70.2354               176.1247
 Red. masses --      2.6055                 4.5258                 2.5887
 Frc consts  --      0.0018                 0.0132                 0.0473
 IR Inten    --      0.0000                 0.0794                 0.0244

                      4                      5                      6
                      A                      A                      A
 Frequencies --    180.5363               238.9719               239.1737
 Red. masses --      4.6206                 2.5733                 1.9881
 Frc consts  --      0.0887                 0.0866                 0.0670
 IR Inten    --      0.1864                 0.8071                 0.5602

                      7                      8                      9
                      A                      A                      A
 Frequencies --    363.8698               370.0049               416.6507
 Red. masses --      4.1833                 2.1789                 2.9947
 Frc consts  --      0.3263                 0.1758                 0.3063
 IR Inten    --      1.0170                 0.0034                 0.0006

                     10                     11                     12
                      A                      A                      A
 Frequencies --    522.0675               585.6499               645.3994
 Red. masses --      3.3508                 3.7862                 6.8789
 Frc consts  --      0.5381                 0.7651                 1.6882
 IR Inten    --     14.0861                11.2923                 0.2275

                     13                     14                     15
                      A                      A                      A
 Frequencies --    727.1679               782.6511               798.3026
 Red. masses --      3.4957                 3.9473                 1.1601
 Frc consts  --      1.0891                 1.4246                 0.4356
 IR Inten    --      1.8163                15.7907                 0.8416

                     16                     17                     18
                      A                      A                      A
 Frequencies --    834.7674               844.6539               964.5764
 Red. masses --      1.4971                 1.2480                 1.3035
 Frc consts  --      0.6147                 0.5246                 0.7146
 IR Inten    --     30.9183                 0.0155                 0.0003

                     19                     20                     21
                      A                      A                      A
 Frequencies --    966.1776               979.1179              1015.7775
 Red. masses --      1.3474                 2.3848                 5.9770
 Frc consts  --      0.7411                 1.3470                 3.6335
 IR Inten    --      0.0035                 8.9568                60.1921

                     22                     23                     24
                      A                      A                      A
 Frequencies --   1078.6225              1083.2845              1092.8006
 Red. masses --      1.4764                 2.4912                 1.8594
 Frc consts  --      1.0120                 1.7224                 1.3083
 IR Inten    --      0.9342                 9.7013                20.2722

                     25                     26                     27
                      A                      A                      A
 Frequencies --   1149.7656              1219.6955              1233.6475
 Red. masses --      1.3257                 1.1313                 2.6434
 Frc consts  --      1.0326                 0.9916                 2.3703
 IR Inten    --      2.8011                 0.6546                 6.0438

                     28                     29                     30
                      A                      A                      A
 Frequencies --   1285.2484              1335.5432              1357.2116
 Red. masses --      1.4336                 2.1669                 1.7651
 Frc consts  --      1.3953                 2.2773                 1.9156
 IR Inten    --      0.0047                 0.0000                 0.0349

                     31                     32                     33
                      A                      A                      A
 Frequencies --   1373.1527              1437.3201              1446.4703
 Red. masses --      1.4905                 1.2168                 2.4791
 Frc consts  --      1.6558                 1.4811                 3.0561
 IR Inten    --      4.2922                 1.1637                 7.6418

                     34                     35                     36
                      A                      A                      A
 Frequencies --   1517.6565              1526.6725              1534.1073
 Red. masses --      1.0901                 1.0410                 1.8814
 Frc consts  --      1.4793                 1.4295                 2.6088
 IR Inten    --      1.3802                 7.8016                38.5447

                     37                     38                     39
                      A                      A                      A
 Frequencies --   1539.3322              1624.8620              1646.7888
 Red. masses --      1.1609                 6.5452                 5.5502
 Frc consts  --      1.6207                10.1814                 8.8682
 IR Inten    --     12.7868                 0.1038                 8.2860

                     40                     41                     42
                      A                      A                      A
 Frequencies --   3046.0925              3049.2561              3080.2502
 Red. masses --      1.0595                 1.0352                 1.1039
 Frc consts  --      5.7919                 5.6710                 6.1711
 IR Inten    --     30.2801                34.7474                 8.7680

                     43                     44                     45
                      A                      A                      A
 Frequencies --   3119.1855              3122.6187              3180.3705
 Red. masses --      1.1028                 1.1036                 1.0890
 Frc consts  --      6.3216                 6.3400                 6.4899
 IR Inten    --     46.5903                33.2909                15.0833

                     46                     47                     48
                      A                      A                      A
 Frequencies --   3180.9496              3223.3260              3224.0130
 Red. masses --      1.0891                 1.0928                 1.0935
 Frc consts  --      6.4930                 6.6897                 6.6966
 IR Inten    --     11.6297                10.0391                 0.2437

 - Thermochemistry -
 -------------------
 Temperature   298.150 Kelvin.  Pressure   1.00000 Atm.
 Atom     1 has atomic number  6 and mass  12.00000

 Molecular mass:   231.97083 amu.
 Principal axes and moments of inertia in atomic units:
                           1         2         3
     Eigenvalues --   418.628085253.569405489.45239
           X            0.99997  -0.00008   0.00814
           Y            0.00008   1.00000   0.00004
           Z           -0.00814  -0.00004   0.99997
 This molecule is an asymmetric top.
 Rotational symmetry number  1.
 Rotational temperatures (Kelvin)      0.20690     0.01649     0.01578
 Rotational constants (GHZ):           4.31108     0.34353     0.32877
 Zero-point vibrational energy     385583.2 (Joules/Mol)
                                   92.15660 (Kcal/Mol)
 Warning -- explicit consideration of  11 degrees of freedom as
           vibrations may cause significant error
 Vibrational temperatures:     49.43   101.05   253.40   259.75   343.83
          (Kelvin)            344.12   523.53   532.35   599.47   751.14
                              842.62   928.59  1046.23  1126.06  1148.58
                             1201.04  1215.27  1387.81  1390.11  1408.73
                             1461.48  1551.90  1558.60  1572.30  1654.26
                             1754.87  1774.94  1849.19  1921.55  1952.72
                             1975.66  2067.98  2081.15  2183.57  2196.54
                             2207.24  2214.76  2337.81  2369.36  4382.65
                             4387.20  4431.79  4487.81  4492.75  4575.84
                             4576.68  4637.65  4638.64

 Zero-point correction=                           0.146861 (Hartree/Particle)
 Thermal correction to Energy=                    0.155805
 Thermal correction to Enthalpy=                  0.156749
 Thermal correction to Gibbs Free Energy=         0.110363
 Sum of electronic and zero-point Energies=           -321.505169
 Sum of electronic and thermal Energies=              -321.496225
 Sum of electronic and thermal Enthalpies=            -321.495281
 Sum of electronic and thermal Free Energies=         -321.541667

                     E (Thermal)             CV                S
                      KCal/Mol        Cal/Mol-Kelvin    Cal/Mol-Kelvin
 Total                   97.769             32.376             97.629
 Electronic               0.000              0.000              0.000
 Translational            0.889              2.981             42.226
 Rotational               0.889              2.981             30.869
 Vibrational             95.992             26.415             24.534
 Vibration     1          0.594              1.983              5.560
 Vibration     2          0.598              1.968              4.147
 Vibration     3          0.628              1.872              2.369
 Vibration     4          0.629              1.866              2.323
 Vibration     5          0.657              1.781              1.811
 Vibration     6          0.657              1.781              1.809
 Vibration     7          0.737              1.547              1.106
 Vibration     8          0.742              1.534              1.080
 Vibration     9          0.780              1.434              0.903
 Vibration    10          0.877              1.201              0.605
 Vibration    11          0.943              1.062              0.475

                           ! Non-Optimized Parameters !
 Normal termination of Gaussian 16 at Mon Aug 27 09:51:20 2018.
 Gaussian 16:  ES64L-G16RevA.03 25-Dec-2016

 ----------------------------------------------------------------------
 # TD(NStates=10, Root=1) b3lyp/genecp volume pop=NPA density=current G
 eom=AllCheck Guess=Read
 ----------------------------------------------------------------------

 Structure from the checkpoint file:  "science_arx_93.chk"
 -------------------
 Title Card Required
 -------------------
 Charge =  0 Multiplicity = 1

                         Standard orientation:
 ---------------------------------------------------------------------
 Center     Atomic      Atomic             Coordinates (Angstroms)
 Number     Number       Type             X           Y           Z
 ---------------------------------------------------------------------
      1          6           0        1.869416    1.202953   -0.288983
      2          6           0        2.589378    0.003200   -0.355258
      3          6           0        1.870900   -1.197775   -0.294213
      4          6           0        0.480289   -1.210713   -0.168678
      5          6           0       -0.205101    0.000901   -0.103287
      6          6           0        0.478752    1.213624   -0.163388
      7          1           0       -0.056694    2.155775   -0.118030
      8         53           0       -2.344267   -0.000837    0.084635
      9          6           0        4.100734    0.004152   -0.449541
     10          6           0        4.784831   -0.007867    0.929693
     11          1           0        2.400566    2.151102   -0.340367
     12          1           0        2.403173   -2.145068   -0.349794
     13          1           0       -0.053979   -2.153730   -0.127474
     14          1           0        4.432139    0.888262   -1.008527
     15          1           0        4.432404   -0.869989   -1.023908
     16          1           0        4.499221    0.871710    1.517592
     17          1           0        5.875754   -0.007541    0.824122
     18          1           0        4.498387   -0.896983    1.502661
 ---------------------------------------------------------------------

 SCF Done:  E(RB3LYP) =  -321.652030202     A.U. after    1 cycles

 Excitation energies and oscillator strengths:

 Excited State   1:      Singlet-A      4.4465 eV  278.84 nm  f=0.0015  <S**2>=0.000
      32 -> 33         0.70550
 This state for optimization and/or second-order correction.
 Total Energy, E(TD-HF/TD-DFT) =  -321.488625421
 Copying the excited state density for this state as the 1-particle RhoCI density.

 Excited State   2:      Singlet-A      5.1604 eV  240.26 nm  f=0.0048  <S**2>=0.000
      31 -> 33         0.11615
      31 -> 35         0.34618
      32 -> 34         0.59742

 Excited State   3:      Singlet-A      5.2056 eV  238.17 nm  f=0.0002  <S**2>=0.000
      31 -> 33         0.69707

 Excited State   4:      Singlet-A      5.2861 eV  234.55 nm  f=0.0019  <S**2>=0.000
      30 -> 33         0.70348

 Excited State   5:      Singlet-A      5.6134 eV  220.87 nm  f=0.2220  <S**2>=0.000
      31 -> 34        -0.18318
      32 -> 35         0.67042

 Excited State   6:      Singlet-A      5.8866 eV  210.62 nm  f=0.0016  <S**2>=0.000
      29 -> 33         0.70326

 Excited State   7:      Singlet-A      6.0496 eV  204.94 nm  f=0.0000  <S**2>=0.000
      30 -> 35         0.70196

 Excited State   8:      Singlet-A      6.0980 eV  203.32 nm  f=0.0001  <S**2>=0.000
      30 -> 34         0.70227

 Excited State   9:      Singlet-A      6.2920 eV  197.05 nm  f=0.0494  <S**2>=0.000
      29 -> 34         0.47742
      31 -> 35        -0.43100
      32 -> 34         0.28236

 Excited State  10:      Singlet-A      6.5493 eV  189.31 nm  f=0.0370  <S**2>=0.000
      28 -> 33         0.12529
      29 -> 35         0.47618
      31 -> 34         0.49569

 The electronic state is 1-A.
 Alpha  occ. eigenvalues --  -10.23478 -10.19857 -10.19776 -10.19775 -10.19245
 Alpha  occ. eigenvalues --  -10.19244 -10.18845 -10.17538  -0.86825  -0.79682
 Alpha  occ. eigenvalues --   -0.75522  -0.73764  -0.67494  -0.62565  -0.61810
 Alpha  occ. eigenvalues --   -0.57933  -0.49879  -0.47750  -0.46036  -0.43436
 Alpha  occ. eigenvalues --   -0.43017  -0.42415  -0.39342  -0.36723  -0.36279
 Alpha  occ. eigenvalues --   -0.36237  -0.34282  -0.32950  -0.28512  -0.26391
 Alpha  occ. eigenvalues --   -0.25971  -0.23248
 Alpha virt. eigenvalues --   -0.03083  -0.01083  -0.01039   0.09510   0.11899
 Alpha virt. eigenvalues --    0.12312   0.13616   0.15177   0.15915   0.16698
 Alpha virt. eigenvalues --    0.17493   0.18327   0.19534   0.22643   0.24914

 Mulliken charges:
               1
     1  C   -0.164782
     2  C    0.195427
     3  C   -0.164589
     4  C   -0.076506
     5  C   -0.244418
     6  C   -0.076412
     7  H    0.148951
     8  I   -0.039423
     9  C   -0.343339
    10  C   -0.440181
    11  H    0.130806
    12  H    0.130801
    13  H    0.148936
    14  H    0.158103
    15  H    0.158292
    16  H    0.159424
    17  H    0.159538
    18  H    0.159371
 Sum of Mulliken charges =  -0.00000

 Dipole moment (field-independent basis, Debye):
    X=              6.1790    Y=              0.0028    Z=             -0.3395  Tot=              6.1883
 Quadrupole moment (field-independent basis, Debye-Ang):
   XX=            -65.7242   YY=            -64.0814   ZZ=            -69.3460
   XY=             -0.0049   XZ=             -0.1565   YZ=              0.0134

 Summary of Natural Population Analysis:

                                       Natural Population
                Natural  -----------------------------------------------
    Atom  No    Charge         Core      Valence    Rydberg      Total
 -----------------------------------------------------------------------
      C    1   -0.21912      1.99889     4.20661    0.01362     6.21912
      C    2    0.05661      1.99885     3.92850    0.01603     5.94339
      C    3   -0.21904      1.99889     4.20653    0.01362     6.21904
      C    4   -0.20629      1.99878     4.19040    0.01711     6.20629
      C    5   -0.25051      1.99874     4.22019    0.03158     6.25051
      C    6   -0.20612      1.99878     4.19023    0.01710     6.20612
      H    7    0.23696      0.00000     0.75912    0.00392     0.76304
      I    8    0.04383     46.00000     6.92931    0.02686    52.95617
      C    9   -0.48038      1.99914     4.46928    0.01196     6.48038
      C   10   -0.66317      1.99928     4.65631    0.00757     6.66317
      H   11    0.23317      0.00000     0.76438    0.00245     0.76683
      H   12    0.23316      0.00000     0.76439    0.00245     0.76684
      H   13    0.23697      0.00000     0.75911    0.00392     0.76303
      H   14    0.24838      0.00000     0.74990    0.00172     0.75162
      H   15    0.24859      0.00000     0.74969    0.00172     0.75141
      H   16    0.23362      0.00000     0.76516    0.00122     0.76638
      H   17    0.23979      0.00000     0.75921    0.00100     0.76021
      H   18    0.23355      0.00000     0.76523    0.00122     0.76645
 =======================================================================
   * Total *   -0.00000     61.99137    47.83355    0.17508   110.00000

 Normal termination of Gaussian 16 at Mon Aug 27 09:54:36 2018.
