 Gaussian 16, Revision A.03,

 -------------------------
 # opt b3lyp/genecp scf=qc
 -------------------------

 -------------------
 Title Card Required
 -------------------
 Symbolic Z-matrix:
 Charge =  0 Multiplicity = 1

 SCF Done:  E(RB3LYP) =  -580.052821771     a.u. after    7 cycles
 SCF Done:  E(RB3LYP) =  -580.054683878     a.u. after    8 cycles
 SCF Done:  E(RB3LYP) =  -580.054907499     a.u. after    4 cycles
 SCF Done:  E(RB3LYP) =  -580.054927571     a.u. after    3 cycles
 SCF Done:  E(RB3LYP) =  -580.054928204     a.u. after    2 cycles
 SCF Done:  E(RB3LYP) =  -580.054928367     a.u. after    2 cycles
 SCF Done:  E(RB3LYP) =  -580.054928593     a.u. after    3 cycles
 SCF Done:  E(RB3LYP) =  -580.054929464     a.u. after    4 cycles
 SCF Done:  E(RB3LYP) =  -580.054931535     a.u. after    9 cycles
 SCF Done:  E(RB3LYP) =  -580.054933717     a.u. after    7 cycles
 SCF Done:  E(RB3LYP) =  -580.001073026     a.u. after   17 cycles
 SCF Done:  E(RB3LYP) =  -580.051369780     a.u. after   10 cycles
 SCF Done:  E(RB3LYP) =  -580.054978322     a.u. after    2 cycles
 SCF Done:  E(RB3LYP) =  -580.055039709     a.u. after   11 cycles
 SCF Done:  E(RB3LYP) =  -580.055056153     a.u. after    4 cycles
 SCF Done:  E(RB3LYP) =  -580.055061662     a.u. after    9 cycles
 SCF Done:  E(RB3LYP) =  -580.055062973     a.u. after    4 cycles
 SCF Done:  E(RB3LYP) =  -580.055063142     a.u. after    3 cycles
 Optimization completed.
    -- Stationary point found.

 1\1\GINC-DELLA-R4C3N2\FOpt\RB3LYP\GenECP\C7H4F3I1\BJS4\27-Aug-2018\0\\
 # opt b3lyp/genecp scf=qc\\Title Card Required\\0,1\C,-0.7684124633,1.
 1587107024,0.0142691828\C,0.6207120701,1.2324642973,-0.1107140956\C,1.
 3789731891,0.061516228,-0.1803092842\C,0.7535563447,-1.1840412151,-0.1
 250485316\C,-0.6343918001,-1.2438914218,0.0012931456\C,-1.4032808302,-
 0.0820913669,0.0703733711\H,-2.4821434772,-0.1352432113,0.1635088786\I
 ,-1.6019113093,-3.1526727702,0.0852883941\C,1.3054332831,2.573023935,-
 0.1139515233\F,0.5207285379,3.535676757,-0.6456369694\F,1.6228291317,2

 Normal termination of Gaussian 16 at Mon Aug 27 10:07:57 2018.

 ----------------------------------------------------------------------
 # freq b3lyp/genecp volume NMR pop=NPA density=current Geom=AllCheck G
 uess=Read
 ----------------------------------------------------------------------

 Structure from the checkpoint file:  "science_arx_32.chk"
 -------------------
 Title Card Required
 -------------------
 Charge =  0 Multiplicity = 1

 SCF Done:  E(RB3LYP) =  -580.055063142     A.U. after    1 cycles

      1  C    Isotropic =    69.4041   Anisotropy =   161.4735

      2  C    Isotropic =    64.2929   Anisotropy =   152.2687

      3  C    Isotropic =    69.4034   Anisotropy =   161.4714

      4  C    Isotropic =    60.7979   Anisotropy =   140.4562

      5  C    Isotropic =    55.2864   Anisotropy =   110.5013

      6  C    Isotropic =    60.8025   Anisotropy =   140.4652

      7  H    Isotropic =    24.9624   Anisotropy =     8.5978

      8  I    Isotropic =    43.7250   Anisotropy =    30.5873

      9  C    Isotropic =    64.0080   Anisotropy =    12.3424

     10  F    Isotropic =   274.9306   Anisotropy =   120.9818

     11  F    Isotropic =   249.9596   Anisotropy =   125.0175

     12  F    Isotropic =   274.9298   Anisotropy =   120.9885

     13  H    Isotropic =    24.9476   Anisotropy =     7.9004

     14  H    Isotropic =    24.9474   Anisotropy =     7.9014

     15  H    Isotropic =    24.9624   Anisotropy =     8.5989

  Exact polarizability: 146.237   0.002  80.365  -0.622   0.000  32.680
 Approx polarizability: 206.593   0.003 138.438  -1.383   0.000  49.812

                      1                      2                      3
                      A                      A                      A
 Frequencies --     19.2504                63.8657               133.5362
 Red. masses --      6.1420                10.7119                11.1156
 Frc consts  --      0.0013                 0.0257                 0.1168
 IR Inten    --      0.0313                 0.5116                 0.9261

                      4                      5                      6
                      A                      A                      A
 Frequencies --    183.2529               194.4963               254.6355
 Red. masses --     17.9375                11.0741                 6.4724
 Frc consts  --      0.3549                 0.2468                 0.2473
 IR Inten    --      0.0444                 0.2236                 0.2982

                      7                      8                      9
                      A                      A                      A
 Frequencies --    368.5718               402.0395               406.8272
 Red. masses --      7.1491                 7.6273                 8.8530
 Frc consts  --      0.5722                 0.7264                 0.8633
 IR Inten    --      3.5279                 1.6501                18.4231

                     10                     11                     12
                      A                      A                      A
 Frequencies --    415.6636               490.4092               574.1464
 Red. masses --      3.1158                 6.0573                12.6088
 Frc consts  --      0.3172                 0.8583                 2.4489
 IR Inten    --      0.0729                 2.9241                 0.0026

                     13                     14                     15
                      A                      A                      A
 Frequencies --    591.3728               641.3008               679.7151
 Red. masses --      4.8784                 7.1420                 9.9895
 Frc consts  --      1.0052                 1.7306                 2.7192
 IR Inten    --     11.5219                 1.0114                 0.1675

                     16                     17                     18
                      A                      A                      A
 Frequencies --    730.1629               779.1886               843.7601
 Red. masses --      4.0290                 9.8240                 1.5206
 Frc consts  --      1.2656                 3.5142                 0.6378
 IR Inten    --      2.0719                17.9107                46.8805

                     19                     20                     21
                      A                      A                      A
 Frequencies --    849.1506               973.7183               976.1261
 Red. masses --      1.2465                 1.2879                 1.3507
 Frc consts  --      0.5295                 0.7195                 0.7583
 IR Inten    --      0.1410                 0.8072                 0.0725

                     22                     23                     24
                      A                      A                      A
 Frequencies --   1015.4824              1076.3454              1095.4467
 Red. masses --      6.7246                 5.1479                 2.4239
 Frc consts  --      4.0857                 3.5138                 1.7137
 IR Inten    --    117.7507                 5.3697               124.0743

                     25                     26                     27
                      A                      A                      A
 Frequencies --   1137.6667              1191.2832              1217.2304
 Red. masses --      1.5562                11.1769                 5.8518
 Frc consts  --      1.1867                 9.3455                 5.1084
 IR Inten    --     31.0003               257.5920               157.6806

                     28                     29                     30
                      A                      A                      A
 Frequencies --   1221.8980              1338.7585              1344.5694
 Red. masses --      1.1497                 1.7130                 5.5469
 Frc consts  --      1.0114                 1.8089                 5.9084
 IR Inten    --      8.1973                 0.0154               350.1691

                     31                     32                     33
                      A                      A                      A
 Frequencies --   1348.1290              1439.5160              1536.6938
 Red. masses --      3.3422                 2.7454                 2.3500
 Frc consts  --      3.5788                 3.3518                 3.2696
 IR Inten    --      2.2057                25.6246                13.7290

                     34                     35                     36
                      A                      A                      A
 Frequencies --   1630.6236              1653.1463              3218.5473
 Red. masses --      7.1911                 5.4983                 1.0886
 Frc consts  --     11.2655                 8.8533                 6.6440
 IR Inten    --      3.2851                73.2896                 0.5708

                     37                     38                     39
                      A                      A                      A
 Frequencies --   3219.7417              3233.6360              3234.8053
 Red. masses --      1.0883                 1.0945                 1.0954
 Frc consts  --      6.6472                 6.7430                 6.7533
 IR Inten    --      0.2131                 5.2173                 0.6273

 - Thermochemistry -
 -------------------
 Temperature   298.150 Kelvin.  Pressure   1.00000 Atm.
 Atom     1 has atomic number  6 and mass  12.00000

 Molecular mass:   271.92691 amu.
 Principal axes and moments of inertia in atomic units:
                           1         2         3
     Eigenvalues --   639.776998145.913618466.08122
           X            1.00000  -0.00000  -0.00001
           Y            0.00000   1.00000   0.00000
           Z            0.00001  -0.00000   1.00000
 This molecule is an asymmetric top.
 Rotational symmetry number  1.
 Warning -- assumption of classical behavior for rotation
           may cause significant error
 Rotational temperatures (Kelvin)      0.13538     0.01063     0.01023
 Rotational constants (GHZ):           2.82089     0.22155     0.21317
 Zero-point vibrational energy     249569.2 (Joules/Mol)
                                   59.64847 (Kcal/Mol)
 Warning -- explicit consideration of  13 degrees of freedom as
           vibrations may cause significant error
 Vibrational temperatures:     27.70    91.89   192.13   263.66   279.84
          (Kelvin)            366.36   530.29   578.45   585.33   598.05
                              705.59   826.07   850.85   922.69   977.96
                             1050.54  1121.08  1213.98  1221.74  1400.96
                             1404.43  1461.05  1548.62  1576.10  1636.85
                             1713.99  1751.32  1758.04  1926.17  1934.54
                             1939.66  2071.14  2210.96  2346.10  2378.51
                             4630.77  4632.49  4652.48  4654.16

 Zero-point correction=                           0.095056 (Hartree/Particle)
 Thermal correction to Energy=                    0.104581
 Thermal correction to Enthalpy=                  0.105526
 Thermal correction to Gibbs Free Energy=         0.056699
 Sum of electronic and zero-point Energies=           -579.960007
 Sum of electronic and thermal Energies=              -579.950482
 Sum of electronic and thermal Enthalpies=            -579.949538
 Sum of electronic and thermal Free Energies=         -579.998365

                     E (Thermal)             CV                S
                      KCal/Mol        Cal/Mol-Kelvin    Cal/Mol-Kelvin
 Total                   65.626             34.268            102.765
 Electronic               0.000              0.000              0.000
 Translational            0.889              2.981             42.700
 Rotational               0.889              2.981             32.156
 Vibrational             63.848             28.306             27.909
 Vibration     1          0.593              1.986              6.710
 Vibration     2          0.597              1.972              4.334
 Vibration     3          0.613              1.920              2.894
 Vibration     4          0.631              1.863              2.295
 Vibration     5          0.635              1.848              2.185
 Vibration     6          0.665              1.755              1.698
 Vibration     7          0.741              1.537              1.086
 Vibration     8          0.768              1.466              0.955
 Vibration     9          0.772              1.455              0.938
 Vibration    10          0.779              1.436              0.907
 Vibration    11          0.846              1.271              0.683
 Vibration    12          0.930              1.087              0.496
 Vibration    13          0.949              1.050              0.465

 Optimization completed.
    -- Stationary point found.

 1\1\GINC-DELLA-R4C3N2\Freq\RB3LYP\GenECP\C7H4F3I1\BJS4\27-Aug-2018\0\\
 # freq b3lyp/genecp volume NMR pop=NPA density=current Geom=AllCheck G
 uess=Read\\Title Card Required\\0,1\C,-0.7684124633,1.1587107024,0.014
 2691828\C,0.6207120701,1.2324642973,-0.1107140956\C,1.3789731891,0.061
 516228,-0.1803092842\C,0.7535563447,-1.1840412151,-0.1250485316\C,-0.6
 343918001,-1.2438914218,0.0012931456\C,-1.4032808302,-0.0820913669,0.0
 703733711\H,-2.4821434772,-0.1352432113,0.1635088786\I,-1.6019113093,-
 3.1526727702,0.0852883941\C,1.3054332831,2.573023935,-0.1139515233\F,0

 Normal termination of Gaussian 16 at Mon Aug 27 10:10:24 2018.
 Gaussian 16:  ES64L-G16RevA.03 25-Dec-2016

 ----------------------------------------------------------------------
 # TD(NStates=10, Root=1) b3lyp/genecp volume pop=NPA density=current G
 eom=AllCheck Guess=Read
 ----------------------------------------------------------------------

 Structure from the checkpoint file:  "science_arx_33.chk"
 -------------------
 Title Card Required
 -------------------
 Charge =  0 Multiplicity = 1

                         Standard orientation:
 ---------------------------------------------------------------------
 Center     Atomic      Atomic             Coordinates (Angstroms)
 Number     Number       Type             X           Y           Z
 ---------------------------------------------------------------------
      1          6           0        1.312503    1.209686   -0.032347
      2          6           0        2.010730    0.000072   -0.038696
      3          6           0        1.312470   -1.209603   -0.032370
      4          6           0       -0.082312   -1.214898   -0.019347
      5          6           0       -0.767658    0.000086   -0.011671
      6          6           0       -0.082344    1.215005   -0.019336
      7          1           0       -0.620822    2.156007   -0.018361
      8         53           0       -2.909212   -0.000019    0.006821
      9          6           0        3.515424   -0.000005    0.004309
     10          9           0        4.034496    1.090325   -0.601411
     11          9           0        3.976447    0.000082    1.276317
     12          9           0        4.034346   -1.090558   -0.601155
     13          1           0        1.854705    2.149472   -0.045883
     14          1           0        1.854746   -2.149348   -0.045920
     15          1           0       -0.620883   -2.155846   -0.018383
 ---------------------------------------------------------------------

 SCF Done:  E(RB3LYP) =  -580.055063142     A.U. after    1 cycles

 Excitation energies and oscillator strengths:

 Excited State   1:      Singlet-A      4.6354 eV  267.47 nm  f=0.0018  <S**2>=0.000
      40 -> 41         0.70524
 This state for optimization and/or second-order correction.
 Total Energy, E(TD-HF/TD-DFT) =  -579.884714286
 Copying the excited state density for this state as the 1-particle RhoCI density.

 Excited State   2:      Singlet-A      5.1656 eV  240.02 nm  f=0.0003  <S**2>=0.000
      38 -> 42         0.38683
      40 -> 43         0.57721

 Excited State   3:      Singlet-A      5.2643 eV  235.52 nm  f=0.0017  <S**2>=0.000
      39 -> 41         0.69957

 Excited State   4:      Singlet-A      5.3656 eV  231.07 nm  f=0.1833  <S**2>=0.000
      37 -> 42         0.11439
      38 -> 43        -0.12984
      40 -> 42         0.68179

 Excited State   5:      Singlet-A      5.3822 eV  230.36 nm  f=0.0000  <S**2>=0.000
      38 -> 41         0.70521

 Excited State   6:      Singlet-A      5.6081 eV  221.08 nm  f=0.0000  <S**2>=0.000
      39 -> 42         0.70533

 Excited State   7:      Singlet-A      5.9452 eV  208.54 nm  f=0.0000  <S**2>=0.000
      39 -> 43         0.70611

 Excited State   8:      Singlet-A      6.1175 eV  202.67 nm  f=0.0677  <S**2>=0.000
      37 -> 43        -0.39263
      38 -> 42         0.46227
      40 -> 43        -0.36114

 Excited State   9:      Singlet-A      6.1342 eV  202.12 nm  f=0.0013  <S**2>=0.000
      37 -> 41         0.70227

 Excited State  10:      Singlet-A      6.5118 eV  190.40 nm  f=0.0097  <S**2>=0.000
      36 -> 41         0.10925
      37 -> 42         0.48441
      38 -> 43         0.49841

 The electronic state is 1-A.
 Alpha  occ. eigenvalues --  -24.72446 -24.72442 -24.71814 -10.43568 -10.25581
 Alpha  occ. eigenvalues --  -10.22292 -10.21716 -10.21714 -10.21669 -10.21668
 Alpha  occ. eigenvalues --   -1.30505  -1.21987  -1.21460  -0.89084  -0.80508
 Alpha  occ. eigenvalues --   -0.77740  -0.72020  -0.67602  -0.64198  -0.61871
 Alpha  occ. eigenvalues --   -0.58327  -0.58194  -0.57723  -0.48742  -0.48464
 Alpha  occ. eigenvalues --   -0.47720  -0.45780  -0.45776  -0.45359  -0.42539
 Alpha  occ. eigenvalues --   -0.41779  -0.40121  -0.39621  -0.39104  -0.37830
 Alpha  occ. eigenvalues --   -0.35283  -0.30964  -0.28024  -0.27742  -0.25415
 Alpha virt. eigenvalues --   -0.04500  -0.04045  -0.02976   0.09987   0.11150
 Alpha virt. eigenvalues --    0.12399   0.13717   0.15498   0.18768   0.21145
 Alpha virt. eigenvalues --    0.21424   0.22913   0.26773   0.27180   0.32086

 Mulliken charges:
               1
     1  C   -0.147033
     2  C   -0.005657
     3  C   -0.147014
     4  C   -0.079610
     5  C   -0.252841
     6  C   -0.079620
     7  H    0.154326
     8  I    0.056998
     9  C    0.890754
    10  F   -0.290074
    11  F   -0.282641
    12  F   -0.290083
    13  H    0.159081
    14  H    0.159087
    15  H    0.154326
 Sum of Mulliken charges =   0.00000

 Dipole moment (field-independent basis, Debye):
    X=              1.3687    Y=              0.0003    Z=             -0.1020  Tot=              1.3725
 Quadrupole moment (field-independent basis, Debye-Ang):
   XX=            -90.3033   YY=            -69.4150   ZZ=            -75.3887
   XY=              0.0004   XZ=             -0.2384   YZ=              0.0001

 Summary of Natural Population Analysis:

                                       Natural Population
                Natural  -----------------------------------------------
    Atom  No    Charge         Core      Valence    Rydberg      Total
 -----------------------------------------------------------------------
      C    1   -0.20574      1.99891     4.19182    0.01501     6.20574
      C    2   -0.10493      1.99871     4.09061    0.01560     6.10493
      C    3   -0.20575      1.99891     4.19183    0.01501     6.20575
      C    4   -0.20187      1.99878     4.18615    0.01694     6.20187
      C    5   -0.27323      1.99874     4.24394    0.03056     6.27323
      C    6   -0.20187      1.99878     4.18614    0.01694     6.20187
      H    7    0.23985      0.00000     0.75623    0.00391     0.76015
      I    8    0.15611     46.00000     6.81582    0.02808    52.84389
      C    9    1.13633      1.99893     2.79512    0.06962     4.86367
      F   10   -0.36204      1.99990     7.35554    0.00660     9.36204
      F   11   -0.35751      1.99990     7.35084    0.00677     9.35751
      F   12   -0.36205      1.99990     7.35555    0.00660     9.36205
      H   13    0.25142      0.00000     0.74605    0.00253     0.74858
      H   14    0.25143      0.00000     0.74604    0.00253     0.74857
      H   15    0.23985      0.00000     0.75623    0.00391     0.76015
 =======================================================================
   * Total *    0.00000     65.99148    59.76791    0.24061   126.00000

 Normal termination of Gaussian 16 at Mon Aug 27 10:13:31 2018.
