 Gaussian 16, Revision A.03,

 -------------------------
 # opt b3lyp/genecp scf=qc
 -------------------------

 -------------------
 Title Card Required
 -------------------
 Symbolic Z-matrix:
 Charge =  0 Multiplicity = 1

 SCF Done:  E(RB3LYP) =  -357.540587041     a.u. after    7 cycles
 SCF Done:  E(RB3LYP) =  -357.542384887     a.u. after    9 cycles
 SCF Done:  E(RB3LYP) =  -357.542485653     a.u. after    3 cycles
 SCF Done:  E(RB3LYP) =  -357.542493708     a.u. after    3 cycles
 SCF Done:  E(RB3LYP) =  -357.542494803     a.u. after    2 cycles
 SCF Done:  E(RB3LYP) =  -357.542495619     a.u. after    3 cycles
 SCF Done:  E(RB3LYP) =  -357.542495908     a.u. after    3 cycles
 Optimization completed.
    -- Stationary point found.

 1\1\GINC-DELLA-R4C3N2\FOpt\RB3LYP\GenECP\C7H7I1O1\BJS4\27-Aug-2018\0\\
 # opt b3lyp/genecp scf=qc\\Title Card Required\\0,1\C,-0.8069993854,1.
 1642216071,-0.0250549313\C,0.588808741,1.264136415,-0.0458917913\C,1.3
 663034959,0.0960299009,-0.0541437871\C,0.7602140993,-1.1550954693,-0.0
 41758385\C,-0.634246814,-1.2449639,-0.0209564437\C,-1.4163539406,-0.09
 55392737,-0.0126092654\H,-2.4988369551,-0.1617484677,0.0035209119\I,-1
 .5739412642,-3.1743480222,-0.0016898504\O,1.2837946914,2.4365187729,-0
 .059222514\C,0.5527203452,3.6524301496,-0.0525506321\H,-1.4330764131,2

 Normal termination of Gaussian 16 at Mon Aug 27 09:50:36 2018.

 ----------------------------------------------------------------------
 # freq b3lyp/genecp volume NMR pop=NPA density=current Geom=AllCheck G
 uess=Read
 ----------------------------------------------------------------------

 Structure from the checkpoint file:  "science_arx_62.chk"
 -------------------
 Title Card Required
 -------------------
 Charge =  0 Multiplicity = 1

 SCF Done:  E(RB3LYP) =  -357.542495908     A.U. after    1 cycles

      1  C    Isotropic =    85.6482   Anisotropy =   138.9573

      2  C    Isotropic =    39.9285   Anisotropy =   131.1507

      3  C    Isotropic =    77.4707   Anisotropy =   131.2176

      4  C    Isotropic =    60.4374   Anisotropy =   136.5932

      5  C    Isotropic =    70.6964   Anisotropy =    83.4748

      6  C    Isotropic =    60.5908   Anisotropy =   137.0266

      7  H    Isotropic =    25.2249   Anisotropy =     8.6564

      8  I    Isotropic =    44.9013   Anisotropy =    29.9999

      9  O    Isotropic =   237.6998   Anisotropy =    83.5398

     10  C    Isotropic =   138.1194   Anisotropy =    65.2821

     11  H    Isotropic =    25.9939   Anisotropy =     7.1394

     12  H    Isotropic =    25.6806   Anisotropy =     5.6197

     13  H    Isotropic =    25.2245   Anisotropy =     8.2892

     14  H    Isotropic =    28.3370   Anisotropy =     8.0116

     15  H    Isotropic =    28.7574   Anisotropy =     8.0033

     16  H    Isotropic =    28.7585   Anisotropy =     8.0023

  Exact polarizability: 158.200   0.858  82.322  -0.001  -0.003  33.705
 Approx polarizability: 217.249  -3.933 139.087  -0.005  -0.005  48.854

                      1                      2                      3
                      A                      A                      A
 Frequencies --     69.3356               125.8936               159.7637
 Red. masses --      3.8132                 4.7573                 5.0249
 Frc consts  --      0.0108                 0.0444                 0.0756
 IR Inten    --      1.2304                 2.9232                 0.7984

                      4                      5                      6
                      A                      A                      A
 Frequencies --    218.6464               240.2318               295.6793
 Red. masses --      9.9484                 1.1919                 3.6737
 Frc consts  --      0.2802                 0.0405                 0.1892
 IR Inten    --      1.0709                 0.1627                 1.1604

                      7                      8                      9
                      A                      A                      A
 Frequencies --    319.5601               425.1725               476.3546
 Red. masses --      3.9301                 3.1135                 4.3197
 Frc consts  --      0.2365                 0.3316                 0.5775
 IR Inten    --      3.9036                 0.0006                 0.4262

                     10                     11                     12
                      A                      A                      A
 Frequencies --    517.3565               588.5728               641.3855
 Red. masses --      2.7983                 5.8652                 7.1075
 Frc consts  --      0.4413                 1.1971                 1.7227
 IR Inten    --     10.5849                35.5767                 1.2066

                     13                     14                     15
                      A                      A                      A
 Frequencies --    704.7916               805.5398               817.5886
 Red. masses --      3.3974                 5.5621                 1.2961
 Frc consts  --      0.9943                 2.1265                 0.5104
 IR Inten    --      0.0039                 2.9177                 8.9765

                     16                     17                     18
                      A                      A                      A
 Frequencies --    838.7379               943.7499               962.9931
 Red. masses --      1.5875                 1.3057                 1.3055
 Frc consts  --      0.6580                 0.6852                 0.7133
 IR Inten    --     45.7465                 0.0582                 0.1451

                     19                     20                     21
                      A                      A                      A
 Frequencies --   1011.2510              1073.1981              1085.7047
 Red. masses --      5.3796                 5.3009                 2.5507
 Frc consts  --      3.2413                 3.5972                 1.7714
 IR Inten    --     39.2409                53.1154                13.5058

                     22                     23                     24
                      A                      A                      A
 Frequencies --   1140.8944              1184.9566              1211.5957
 Red. masses --      1.3393                 1.2703                 1.1657
 Frc consts  --      1.0271                 1.0509                 1.0082
 IR Inten    --      6.5468                 0.7991                23.2352

                     25                     26                     27
                      A                      A                      A
 Frequencies --   1219.5175              1300.1027              1338.2824
 Red. masses --      1.3737                 4.9368                 1.2821
 Frc consts  --      1.2037                 4.9164                 1.3529
 IR Inten    --     12.3707               272.1258                 1.3680

                     28                     29                     30
                      A                      A                      A
 Frequencies --   1349.8751              1448.2685              1499.3067
 Red. masses --      7.4038                 2.9219                 1.2125
 Frc consts  --      7.9486                 3.6108                 1.6059
 IR Inten    --     76.6739                 0.8220                31.8297

                     31                     32                     33
                      A                      A                      A
 Frequencies --   1522.0909              1533.4000              1542.1484
 Red. masses --      1.0479                 1.1701                 1.8350
 Frc consts  --      1.4303                 1.6210                 2.5712
 IR Inten    --      5.8265               100.8298                72.4901

                     34                     35                     36
                      A                      A                      A
 Frequencies --   1628.1658              1651.8117              3027.0063
 Red. masses --      6.9275                 5.5440                 1.0348
 Frc consts  --     10.8199                 8.9124                 5.5866
 IR Inten    --     12.5121                38.0724                54.4285

                     37                     38                     39
                      A                      A                      A
 Frequencies --   3086.5380              3160.4639              3212.4075
 Red. masses --      1.1069                 1.0998                 1.0881
 Frc consts  --      6.2127                 6.4724                 6.6159
 IR Inten    --     42.5475                25.5321                 3.1117

                     40                     41                     42
                      A                      A                      A
 Frequencies --   3217.3962              3228.6252              3232.8048
 Red. masses --      1.0883                 1.0948                 1.0935
 Frc consts  --      6.6376                 6.7239                 6.7335
 IR Inten    --      1.7870                 6.6073                 8.7587

 - Thermochemistry -
 -------------------
 Temperature   298.150 Kelvin.  Pressure   1.00000 Atm.
 Atom     1 has atomic number  6 and mass  12.00000

 Molecular mass:   233.95009 amu.
 Principal axes and moments of inertia in atomic units:
                           1         2         3
     Eigenvalues --   376.848065208.232575573.54697
           X            0.99992   0.01267   0.00000
           Y           -0.01267   0.99992  -0.00000
           Z           -0.00001   0.00000   1.00000
 This molecule is an asymmetric top.
 Rotational symmetry number  1.
 Rotational temperatures (Kelvin)      0.22984     0.01663     0.01554
 Rotational constants (GHZ):           4.78904     0.34652     0.32380
 Zero-point vibrational energy     323333.7 (Joules/Mol)
                                   77.27860 (Kcal/Mol)
 Warning -- explicit consideration of  11 degrees of freedom as
           vibrations may cause significant error
 Vibrational temperatures:     99.76   181.13   229.86   314.58   345.64
          (Kelvin)            425.42   459.78   611.73   685.37   744.36
                              846.82   922.81  1014.04  1158.99  1176.33
                             1206.76  1357.85  1385.53  1454.96  1544.09
                             1562.09  1641.49  1704.89  1743.22  1754.61
                             1870.56  1925.49  1942.17  2083.74  2157.17
                             2189.95  2206.22  2218.81  2342.57  2376.59
                             4355.19  4440.84  4547.20  4621.94  4629.12
                             4645.27  4651.29

 Zero-point correction=                           0.123151 (Hartree/Particle)
 Thermal correction to Energy=                    0.131627
 Thermal correction to Enthalpy=                  0.132571
 Thermal correction to Gibbs Free Energy=         0.087915
 Sum of electronic and zero-point Energies=           -357.419345
 Sum of electronic and thermal Energies=              -357.410869
 Sum of electronic and thermal Enthalpies=            -357.409925
 Sum of electronic and thermal Free Energies=         -357.454581

                     E (Thermal)             CV                S
                      KCal/Mol        Cal/Mol-Kelvin    Cal/Mol-Kelvin
 Total                   82.597             30.799             93.987
 Electronic               0.000              0.000              0.000
 Translational            0.889              2.981             42.252
 Rotational               0.889              2.981             30.771
 Vibrational             80.819             24.837             20.965
 Vibration     1          0.598              1.969              4.172
 Vibration     2          0.611              1.927              3.008
 Vibration     3          0.622              1.892              2.553
 Vibration     4          0.646              1.813              1.970
 Vibration     5          0.657              1.779              1.801
 Vibration     6          0.690              1.682              1.441
 Vibration     7          0.705              1.636              1.312
 Vibration     8          0.787              1.415              0.875
 Vibration     9          0.833              1.303              0.720
 Vibration    10          0.872              1.212              0.616
 Vibration    11          0.946              1.056              0.470

 Optimization completed.
    -- Stationary point found.

 1\1\GINC-DELLA-R4C3N2\Freq\RB3LYP\GenECP\C7H7I1O1\BJS4\27-Aug-2018\0\\
 # freq b3lyp/genecp volume NMR pop=NPA density=current Geom=AllCheck G
 uess=Read\\Title Card Required\\0,1\C,-0.8069993854,1.1642216071,-0.02
 50549313\C,0.588808741,1.264136415,-0.0458917913\C,1.3663034959,0.0960
 299009,-0.0541437871\C,0.7602140993,-1.1550954693,-0.041758385\C,-0.63
 4246814,-1.2449639,-0.0209564437\C,-1.4163539406,-0.0955392737,-0.0126
 092654\H,-2.4988369551,-0.1617484677,0.0035209119\I,-1.5739412642,-3.1
 743480222,-0.0016898504\O,1.2837946914,2.4365187729,-0.059222514\C,0.5

 Normal termination of Gaussian 16 at Mon Aug 27 09:52:52 2018.
 Gaussian 16:  ES64L-G16RevA.03 25-Dec-2016

 ----------------------------------------------------------------------
 # TD(NStates=10, Root=1) b3lyp/genecp volume pop=NPA density=current G
 eom=AllCheck Guess=Read
 ----------------------------------------------------------------------

 Structure from the checkpoint file:  "science_arx_63.chk"
 -------------------
 Title Card Required
 -------------------
 Charge =  0 Multiplicity = 1

                         Standard orientation:
 ---------------------------------------------------------------------
 Center     Atomic      Atomic             Coordinates (Angstroms)
 Number     Number       Type             X           Y           Z
 ---------------------------------------------------------------------
      1          6           0       -1.982525   -0.984957    0.000159
      2          6           0       -2.596304    0.272808    0.000117
      3          6           0       -1.802862    1.430172   -0.000012
      4          6           0       -0.415881    1.334805   -0.000072
      5          6           0        0.188074    0.074539   -0.000016
      6          6           0       -0.586313   -1.080130    0.000087
      7          1           0       -0.120776   -2.059767    0.000123
      8         53           0        2.328844   -0.077199   -0.000015
      9          8           0       -3.943418    0.480044    0.000315
     10          6           0       -4.798546   -0.652083   -0.000319
     11          1           0       -2.569687   -1.896100    0.000222
     12          1           0       -2.294796    2.397803   -0.000073
     13          1           0        0.185237    2.237510   -0.000205
     14          1           0       -5.816423   -0.258246   -0.000611
     15          1           0       -4.649778   -1.270713    0.894661
     16          1           0       -4.649042   -1.270233   -0.895498
 ---------------------------------------------------------------------

 SCF Done:  E(RB3LYP) =  -357.542495908     A.U. after    1 cycles

 Excitation energies and oscillator strengths:

 Excited State   1:      Singlet-A      4.1747 eV  296.99 nm  f=0.0010  <S**2>=0.000
      32 -> 33         0.70397
 This state for optimization and/or second-order correction.
 Total Energy, E(TD-HF/TD-DFT) =  -357.389076834
 Copying the excited state density for this state as the 1-particle RhoCI density.

 Excited State   2:      Singlet-A      4.9229 eV  251.85 nm  f=0.0273  <S**2>=0.000
      31 -> 35         0.25363
      32 -> 34         0.65355

 Excited State   3:      Singlet-A      5.2996 eV  233.95 nm  f=0.0017  <S**2>=0.000
      30 -> 33         0.70685

 Excited State   4:      Singlet-A      5.3062 eV  233.66 nm  f=0.0001  <S**2>=0.000
      31 -> 33         0.70664

 Excited State   5:      Singlet-A      5.6248 eV  220.42 nm  f=0.2684  <S**2>=0.000
      31 -> 34        -0.20736
      32 -> 35         0.66399

 Excited State   6:      Singlet-A      5.6314 eV  220.17 nm  f=0.0018  <S**2>=0.000
      29 -> 33         0.70245

 Excited State   7:      Singlet-A      6.0312 eV  205.57 nm  f=0.0000  <S**2>=0.000
      30 -> 34         0.70584

 Excited State   8:      Singlet-A      6.2600 eV  198.06 nm  f=0.0019  <S**2>=0.000
      29 -> 34         0.65346
      31 -> 34        -0.13918
      31 -> 35        -0.20820

 Excited State   9:      Singlet-A      6.3327 eV  195.78 nm  f=0.0000  <S**2>=0.000
      30 -> 35         0.70534

 Excited State  10:      Singlet-A      6.5780 eV  188.48 nm  f=0.0504  <S**2>=0.000
      26 -> 33         0.10928
      29 -> 35         0.52402
      31 -> 34         0.38025
      31 -> 35        -0.21869

 The electronic state is 1-A.
 Alpha  occ. eigenvalues --  -19.18145 -10.25334 -10.24064 -10.23032 -10.20062
 Alpha  occ. eigenvalues --  -10.19940 -10.19398 -10.19011  -1.07252  -0.86405
 Alpha  occ. eigenvalues --   -0.77147  -0.75902  -0.71335  -0.66283  -0.62240
 Alpha  occ. eigenvalues --   -0.58849  -0.54211  -0.49161  -0.47598  -0.46620
 Alpha  occ. eigenvalues --   -0.45376  -0.43556  -0.42328  -0.38931  -0.37380
 Alpha  occ. eigenvalues --   -0.34372  -0.33796  -0.33560  -0.27228  -0.26288
 Alpha  occ. eigenvalues --   -0.26168  -0.21882
 Alpha virt. eigenvalues --   -0.02923  -0.01205   0.00140   0.09273   0.10304
 Alpha virt. eigenvalues --    0.13588   0.14265   0.14963   0.15337   0.16175
 Alpha virt. eigenvalues --    0.17211   0.19664   0.24064   0.28309   0.28900

 Mulliken charges:
               1
     1  C   -0.182773
     2  C    0.379954
     3  C   -0.149328
     4  C   -0.087217
     5  C   -0.234802
     6  C   -0.085153
     7  H    0.154941
     8  I   -0.118391
     9  O   -0.436483
    10  C   -0.232355
    11  H    0.143251
    12  H    0.152299
    13  H    0.154365
    14  H    0.189053
    15  H    0.176319
    16  H    0.176320
 Sum of Mulliken charges =  -0.00000

 Dipole moment (field-independent basis, Debye):
    X=             -8.7485    Y=             -0.8888    Z=             -0.0007  Tot=              8.7935
 Quadrupole moment (field-independent basis, Debye-Ang):
   XX=            -57.9913   YY=            -62.0411   ZZ=            -68.4312
   XY=              6.4454   XZ=              0.0035   YZ=             -0.0005

 Summary of Natural Population Analysis:

                                       Natural Population
                Natural  -----------------------------------------------
    Atom  No    Charge         Core      Valence    Rydberg      Total
 -----------------------------------------------------------------------
      C    1   -0.29135      1.99891     4.27987    0.01257     6.29135
      C    2    0.37628      1.99860     3.60312    0.02200     5.62372
      C    3   -0.23274      1.99890     4.21901    0.01482     6.23274
      C    4   -0.22004      1.99880     4.20446    0.01678     6.22004
      C    5   -0.24421      1.99875     4.21251    0.03295     6.24421
      C    6   -0.19693      1.99880     4.18093    0.01720     6.19693
      H    7    0.23975      0.00000     0.75603    0.00422     0.76025
      I    8   -0.05535     46.00000     7.02977    0.02558    53.05535
      O    9   -0.45459      1.99966     6.44330    0.01163     8.45459
      C   10   -0.32317      1.99927     4.30956    0.01434     6.32317
      H   11    0.23817      0.00000     0.75957    0.00227     0.76183
      H   12    0.24782      0.00000     0.74967    0.00252     0.75218
      H   13    0.24202      0.00000     0.75403    0.00395     0.75798
      H   14    0.23825      0.00000     0.76106    0.00069     0.76175
      H   15    0.21805      0.00000     0.78033    0.00162     0.78195
      H   16    0.21805      0.00000     0.78033    0.00162     0.78195
 =======================================================================
   * Total *   -0.00000     61.99170    47.82354    0.18476   110.00000

 Normal termination of Gaussian 16 at Mon Aug 27 09:55:54 2018.
