 Gaussian 16, Revision A.03,

 -------------------------
 # opt b3lyp/6-31G* scf=qc
 -------------------------

 -------------------
 Title Card Required
 -------------------
 Symbolic Z-matrix:
 Charge =  0 Multiplicity = 1

 SCF Done:  E(RB3LYP) =  -2819.38941670     a.u. after    8 cycles
 SCF Done:  E(RB3LYP) =  -2819.39063717     a.u. after   18 cycles
 SCF Done:  E(RB3LYP) =  -2819.39076871     a.u. after    5 cycles
 SCF Done:  E(RB3LYP) =  -2819.39077803     a.u. after    3 cycles
 SCF Done:  E(RB3LYP) =  -2819.39077958     a.u. after    2 cycles
 Optimization completed.
    -- Stationary point found.
 Normal termination of Gaussian 16 at Mon Aug 27 09:48:45 2018.

 ----------------------------------------------------------------------
 # freq b3lyp/6-31G* volume NMR pop=NPA density=current Geom=AllCheck G
 uess=Read
 ----------------------------------------------------------------------

 Structure from the checkpoint file:  "science_arx_112.chk"
 -------------------
 Title Card Required
 -------------------
 Charge =  0 Multiplicity = 1

 SCF Done:  E(RB3LYP) =  -2819.39077958     A.U. after    1 cycles

      1  C    Isotropic =    60.1310   Anisotropy =   178.7042

      2  C    Isotropic =    74.4501   Anisotropy =   160.4640

      3  H    Isotropic =    25.3527   Anisotropy =     4.3629

      4  C    Isotropic =    46.6797   Anisotropy =   149.9058

      5  N    Isotropic =   -58.2610   Anisotropy =   471.3800

      6  C    Isotropic =    32.6304   Anisotropy =    82.9734

      7  C    Isotropic =    67.5165   Anisotropy =   133.1971

      8  H    Isotropic =    25.1330   Anisotropy =     9.1445

      9  Br   Isotropic =  2016.8169   Anisotropy =  1378.7193

     10  H    Isotropic =    24.9236   Anisotropy =     4.6561

     11  H    Isotropic =    23.8810   Anisotropy =     5.0496

  Exact polarizability: 107.451  -2.016  71.538  -0.000  -0.000  30.761
 Approx polarizability: 168.762  -3.193 127.583  -0.000   0.000  48.339

                      1                      2                      3
                      A                      A                      A
 Frequencies --    162.3826               261.4954               310.1893
 Red. masses --      5.2041                 6.0292                13.2679
 Frc consts  --      0.0808                 0.2429                 0.7522
 IR Inten    --      0.9814                 1.1484                 6.0033

                      4                      5                      6
                      A                      A                      A
 Frequencies --    420.5653               485.4730               622.6123
 Red. masses --      3.4821                 3.2736                 7.4680
 Frc consts  --      0.3629                 0.4546                 1.7057
 IR Inten    --      3.7813                 2.2315                 2.7800

                      7                      8                      9
                      A                      A                      A
 Frequencies --    712.9581               748.5601               780.9092
 Red. masses --      7.0409                 4.1770                 1.3086
 Frc consts  --      2.1086                 1.3790                 0.4702
 IR Inten    --     34.8494                 0.0978                42.4555

                     10                     11                     12
                      A                      A                      A
 Frequencies --    904.3516               976.0525              1001.0951
 Red. masses --      1.2850                 1.3916                 7.1523
 Frc consts  --      0.6192                 0.7811                 4.2233
 IR Inten    --      0.2260                 0.1335                10.5052

                     13                     14                     15
                      A                      A                      A
 Frequencies --   1006.2465              1068.0569              1104.1012
 Red. masses --      1.2950                 3.3339                 2.0028
 Frc consts  --      0.7726                 2.2407                 1.4385
 IR Inten    --      0.0104                17.1654                51.7664

                     16                     17                     18
                      A                      A                      A
 Frequencies --   1134.7698              1184.1514              1313.2468
 Red. masses --      1.9779                 1.1348                 4.6862
 Frc consts  --      1.5006                 0.9376                 4.7618
 IR Inten    --     45.5475                 3.5833                 3.8666

                     19                     20                     21
                      A                      A                      A
 Frequencies --   1327.3635              1460.7132              1500.2437
 Red. masses --      1.6383                 2.0716                 2.0178
 Frc consts  --      1.7007                 2.6043                 2.6758
 IR Inten    --      0.3732                62.3847                58.6694

                     22                     23                     24
                      A                      A                      A
 Frequencies --   1625.3498              1627.4490              3186.7095
 Red. masses --      5.2065                 5.8837                 1.0890
 Frc consts  --      8.1039                 9.1816                 6.5156
 IR Inten    --     73.5640                32.4084                14.9131

                     25                     26                     27
                      A                      A                      A
 Frequencies --   3200.6082              3221.0773              3239.4363
 Red. masses --      1.0896                 1.0960                 1.0947
 Frc consts  --      6.5764                 6.6999                 6.7687
 IR Inten    --     10.4423                15.3860                 1.3833

 - Thermochemistry -
 -------------------
 Temperature   298.150 Kelvin.  Pressure   1.00000 Atm.
 Atom     1 has atomic number  6 and mass  12.00000

 Molecular mass:   156.95271 amu.
 Principal axes and moments of inertia in atomic units:
                           1         2         3
     Eigenvalues --   306.984421783.665382090.64980
           X            1.00000   0.00127  -0.00000
           Y           -0.00127   1.00000   0.00000
           Z            0.00000  -0.00000   1.00000
 This molecule is an asymmetric top.
 Rotational symmetry number  1.
 Rotational temperatures (Kelvin)      0.28214     0.04856     0.04143
 Rotational constants (GHZ):           5.87893     1.01182     0.86324
 Zero-point vibrational energy     206871.2 (Joules/Mol)
                                   49.44341 (Kcal/Mol)
 Warning -- explicit consideration of   5 degrees of freedom as
           vibrations may cause significant error
 Vibrational temperatures:    233.63   376.23   446.29   605.10   698.49
          (Kelvin)            895.80  1025.79  1077.01  1123.55  1301.16
                             1404.32  1440.35  1447.76  1536.70  1588.56
                             1632.68  1703.73  1889.47  1909.78  2101.64
                             2158.52  2338.52  2341.54  4584.96  4604.96
                             4634.41  4660.83

 Zero-point correction=                           0.078793 (Hartree/Particle)
 Thermal correction to Energy=                    0.084381
 Thermal correction to Enthalpy=                  0.085325
 Thermal correction to Gibbs Free Energy=         0.047963
 Sum of electronic and zero-point Energies=          -2819.311986
 Sum of electronic and thermal Energies=             -2819.306399
 Sum of electronic and thermal Enthalpies=           -2819.305455
 Sum of electronic and thermal Free Energies=        -2819.342817

                     E (Thermal)             CV                S
                      KCal/Mol        Cal/Mol-Kelvin    Cal/Mol-Kelvin
 Total                   52.950             20.397             78.635
 Electronic               0.000              0.000              0.000
 Translational            0.889              2.981             41.062
 Rotational               0.889              2.981             28.528
 Vibrational             51.172             14.435              9.046
 Vibration     1          0.622              1.889              2.522
 Vibration     2          0.669              1.743              1.652
 Vibration     3          0.699              1.654              1.361
 Vibration     4          0.783              1.426              0.890
 Vibration     5          0.842              1.282              0.695

 Optimization completed.
    -- Stationary point found.
 Normal termination of Gaussian 16 at Mon Aug 27 09:50:33 2018.
 Gaussian 16:  ES64L-G16RevA.03 25-Dec-2016

 ----------------------------------------------------------------------
 # TD(NStates=10, Root=1) b3lyp/6-31G* volume pop=NPA density=current G
 eom=AllCheck Guess=Read
 ----------------------------------------------------------------------

 Structure from the checkpoint file:  "science_arx_113.chk"
 -------------------
 Title Card Required
 -------------------
 Charge =  0 Multiplicity = 1

                         Standard orientation:
 ---------------------------------------------------------------------
 Center     Atomic      Atomic             Coordinates (Angstroms)
 Number     Number       Type             X           Y           Z
 ---------------------------------------------------------------------
      1          6           0        2.191219    1.179149   -0.000003
      2          6           0        2.842294   -0.056536   -0.000005
      3          1           0        3.925525   -0.124348   -0.000011
      4          6           0        2.063162   -1.211336   -0.000005
      5          7           0        0.721098   -1.195401    0.000008
      6          6           0        0.133744   -0.015660    0.000022
      7          6           0        0.799304    1.212980    0.000006
      8          1           0        0.245922    2.144508    0.000001
      9         35           0       -1.790819   -0.006106   -0.000003
     10          1           0        2.757291    2.106610   -0.000009
     11          1           0        2.523887   -2.196831   -0.000007
 ---------------------------------------------------------------------

 SCF Done:  E(RB3LYP) =  -2819.39077958     A.U. after    1 cycles

 Excitation energies and oscillator strengths:

 Excited State   1:      Singlet-A      5.0954 eV  243.32 nm  f=0.0037  <S**2>=0.000
      36 -> 39         0.15804
      37 -> 39         0.68737
 This state for optimization and/or second-order correction.
 Total Energy, E(TD-HF/TD-DFT) =  -2819.20352526
 Copying the excited state density for this state as the 1-particle RhoCI density.

 Excited State   2:      Singlet-A      5.1642 eV  240.08 nm  f=0.0415  <S**2>=0.000
      35 -> 40        -0.22984
      38 -> 39         0.66154

 Excited State   3:      Singlet-A      5.3519 eV  231.66 nm  f=0.0001  <S**2>=0.000
      36 -> 40         0.15556
      37 -> 40         0.68849

 Excited State   4:      Singlet-A      5.7943 eV  213.98 nm  f=0.1131  <S**2>=0.000
      35 -> 39         0.17078
      37 -> 41        -0.13998
      38 -> 40         0.65308

 Excited State   5:      Singlet-A      5.8142 eV  213.24 nm  f=0.0001  <S**2>=0.000
      36 -> 39         0.67161
      36 -> 40        -0.14670
      37 -> 39        -0.15348

 Excited State   6:      Singlet-A      5.9864 eV  207.11 nm  f=0.0002  <S**2>=0.000
      38 -> 41         0.69992

 Excited State   7:      Singlet-A      6.0838 eV  203.79 nm  f=0.0000  <S**2>=0.000
      36 -> 39         0.14868
      36 -> 40         0.66892
      37 -> 40        -0.15471

 Excited State   8:      Singlet-A      6.4473 eV  192.30 nm  f=0.0234  <S**2>=0.000
      34 -> 39         0.40311
      34 -> 40         0.12931
      35 -> 39        -0.27796
      35 -> 40         0.33850
      37 -> 41         0.30095
      38 -> 40         0.14476

 Excited State   9:      Singlet-A      6.6602 eV  186.16 nm  f=0.0244  <S**2>=0.000
      34 -> 39        -0.25196
      35 -> 39         0.12873
      36 -> 41        -0.41493
      37 -> 41         0.47216

 Excited State  10:      Singlet-A      6.8646 eV  180.61 nm  f=0.0141  <S**2>=0.000
      34 -> 40        -0.18505
      35 -> 39         0.26122
      35 -> 40         0.14515
      36 -> 41         0.49940
      37 -> 41         0.33411

 The electronic state is 1-A.
 Alpha  occ. eigenvalues -- -482.90569 -61.86795 -56.38904 -56.38511 -56.38505
 Alpha  occ. eigenvalues --  -14.34855 -10.28216 -10.24082 -10.22575 -10.21840
 Alpha  occ. eigenvalues --  -10.21347  -8.57976  -6.53363  -6.52124  -6.52057
 Alpha  occ. eigenvalues --   -2.64937  -2.64596  -2.64543  -2.63555  -2.63554
 Alpha  occ. eigenvalues --   -0.96731  -0.82100  -0.80913  -0.74062  -0.65031
 Alpha  occ. eigenvalues --   -0.62595  -0.53254  -0.50004  -0.47681  -0.43456
 Alpha  occ. eigenvalues --   -0.42204  -0.41647  -0.37493  -0.31867  -0.29901
 Alpha  occ. eigenvalues --   -0.28516  -0.27270  -0.25464
 Alpha virt. eigenvalues --   -0.03775  -0.02579   0.00899   0.09318   0.12977
 Alpha virt. eigenvalues --    0.13383   0.15945   0.16391   0.22945   0.24985
 Alpha virt. eigenvalues --    0.27840   0.30399   0.31203   0.40390   0.42896

 Mulliken charges:
               1
     1  C   -0.179385
     2  C   -0.114358
     3  H    0.155200
     4  C    0.000058
     5  N   -0.377829
     6  C    0.269204
     7  C   -0.149198
     8  H    0.162754
     9  Br  -0.067855
    10  H    0.132320
    11  H    0.169090
 Sum of Mulliken charges =  -0.00000

 Dipole moment (field-independent basis, Debye):
    X=              1.1207    Y=             -0.1425    Z=             -0.0000  Tot=              1.1297
 Quadrupole moment (field-independent basis, Debye-Ang):
   XX=            -46.1222   YY=            -48.3870   ZZ=            -55.6437
   XY=             -1.9958   XZ=             -0.0001   YZ=              0.0001

 Summary of Natural Population Analysis:

                                       Natural Population
                Natural  -----------------------------------------------
    Atom  No    Charge         Core      Valence    Rydberg      Total
 -----------------------------------------------------------------------
      C    1   -0.34107      1.99910     4.32266    0.01931     6.34107
      C    2   -0.23721      1.99906     4.22433    0.01383     6.23721
      H    3    0.25844      0.00000     0.74101    0.00054     0.74156
      C    4   -0.11264      1.99912     4.09201    0.02150     6.11264
      N    5   -0.19551      1.99877     5.17629    0.02045     7.19551
      C    6    0.07894      1.99876     3.89245    0.02986     5.92106
      C    7   -0.30756      1.99889     4.29201    0.01666     6.30756
      H    8    0.26705      0.00000     0.73220    0.00075     0.73295
     Br    9    0.09281     27.99911     6.89083    0.01724    34.90719
      H   10    0.24362      0.00000     0.75577    0.00062     0.75638
      H   11    0.25312      0.00000     0.74626    0.00063     0.74688
 =======================================================================
   * Total *    0.00000     39.99280    35.86580    0.14140    76.00000

 Normal termination of Gaussian 16 at Mon Aug 27 09:53:07 2018.
