 Gaussian 16, Revision A.03,

 -------------------------
 # opt b3lyp/6-31G* scf=qc
 -------------------------

 -------------------
 Title Card Required
 -------------------
 Symbolic Z-matrix:
 Charge =  0 Multiplicity = 1

 SCF Done:  E(RB3LYP) =  -707.881297326     a.u. after    7 cycles
 SCF Done:  E(RB3LYP) =  -707.882846517     a.u. after    6 cycles
 SCF Done:  E(RB3LYP) =  -707.883122530     a.u. after    4 cycles
 SCF Done:  E(RB3LYP) =  -707.883133562     a.u. after    2 cycles
 SCF Done:  E(RB3LYP) =  -707.883135809     a.u. after    2 cycles
 Optimization completed.
    -- Stationary point found.
 Normal termination of Gaussian 16 at Mon Aug 27 09:47:54 2018.

 ----------------------------------------------------------------------
 # freq b3lyp/6-31G* volume NMR pop=NPA density=current Geom=AllCheck G
 uess=Read
 ----------------------------------------------------------------------

 Structure from the checkpoint file:  "science_arx_102.chk"
 -------------------
 Title Card Required
 -------------------
 Charge =  0 Multiplicity = 1

 SCF Done:  E(RB3LYP) =  -707.883135809     A.U. after    1 cycles

      1  C    Isotropic =    59.7767   Anisotropy =   180.2342

      2  C    Isotropic =    74.6817   Anisotropy =   160.4992

      3  H    Isotropic =    25.3527   Anisotropy =     4.4292

      4  C    Isotropic =    47.1342   Anisotropy =   151.1499

      5  N    Isotropic =   -51.9232   Anisotropy =   467.8836

      6  C    Isotropic =    35.1772   Anisotropy =    86.1934

      7  C    Isotropic =    71.1477   Anisotropy =   135.2201

      8  H    Isotropic =    25.2516   Anisotropy =     7.3686

      9  Cl   Isotropic =   644.9029   Anisotropy =   568.2450

     10  H    Isotropic =    24.8765   Anisotropy =     4.6079

     11  H    Isotropic =    23.8817   Anisotropy =     5.1387

  Exact polarizability:  94.616   2.146  67.354  -0.000   0.000  25.389
 Approx polarizability: 149.025   2.748 117.720  -0.000  -0.000  38.217

                      1                      2                      3
                      A                      A                      A
 Frequencies --    177.5329               311.7645               420.1955
 Red. masses --      5.4494                 6.8221                14.3990
 Frc consts  --      0.1012                 0.3907                 1.4979
 IR Inten    --      0.4095                 0.5149                 9.1753

                      4                      5                      6
                      A                      A                      A
 Frequencies --    420.8918               493.1290               626.3550
 Red. masses --      3.5355                 3.2075                 7.3935
 Frc consts  --      0.3690                 0.4596                 1.7090
 IR Inten    --      3.6501                 1.8993                 2.6817

                      7                      8                      9
                      A                      A                      A
 Frequencies --    738.7769               745.2441               780.9335
 Red. masses --      7.0450                 4.2070                 1.3242
 Frc consts  --      2.2655                 1.3766                 0.4758
 IR Inten    --     39.1853                 0.0157                46.1727

                     10                     11                     12
                      A                      A                      A
 Frequencies --    898.5611               975.5281              1003.6323
 Red. masses --      1.2836                 1.3892                 7.0846
 Frc consts  --      0.6106                 0.7789                 4.2045
 IR Inten    --      0.2756                 0.1531                 9.2353

                     13                     14                     15
                      A                      A                      A
 Frequencies --   1005.3827              1071.6794              1112.3331
 Red. masses --      1.2925                 2.7386                 1.8588
 Frc consts  --      0.7697                 1.8531                 1.3550
 IR Inten    --      0.0042                11.1946                32.2963

                     16                     17                     18
                      A                      A                      A
 Frequencies --   1147.4326              1183.7524              1316.9551
 Red. masses --      2.4663                 1.1330                 5.8702
 Frc consts  --      1.9131                 0.9354                 5.9985
 IR Inten    --     82.4051                 2.5144                 2.0372

                     19                     20                     21
                      A                      A                      A
 Frequencies --   1327.5940              1464.2382              1501.9694
 Red. masses --      1.5319                 2.1034                 2.0336
 Frc consts  --      1.5907                 2.6570                 2.7029
 IR Inten    --      1.1785                63.8961                50.9460

                     22                     23                     24
                      A                      A                      A
 Frequencies --   1629.2616              1631.3959              3186.5581
 Red. masses --      5.9124                 5.2728                 1.0891
 Frc consts  --      9.2470                 8.2682                 6.5155
 IR Inten    --     48.9666                48.9100                14.6467

                     25                     26                     27
                      A                      A                      A
 Frequencies --   3201.3697              3221.6331              3237.2077
 Red. masses --      1.0895                 1.0958                 1.0950
 Frc consts  --      6.5788                 6.7012                 6.7609
 IR Inten    --      9.7343                14.6409                 1.7310

 - Thermochemistry -
 -------------------
 Temperature   298.150 Kelvin.  Pressure   1.00000 Atm.
 Atom     1 has atomic number  6 and mass  12.00000

 Molecular mass:   113.00323 amu.
 Principal axes and moments of inertia in atomic units:
                           1         2         3
     Eigenvalues --   307.023141117.846201424.86934
           X            0.99999   0.00317  -0.00000
           Y           -0.00317   0.99999   0.00000
           Z            0.00000  -0.00000   1.00000
 This molecule is an asymmetric top.
 Rotational symmetry number  1.
 Rotational temperatures (Kelvin)      0.28211     0.07748     0.06079
 Rotational constants (GHZ):           5.87819     1.61448     1.26660
 Zero-point vibrational energy     208337.5 (Joules/Mol)
                                   49.79385 (Kcal/Mol)
 Warning -- explicit consideration of   5 degrees of freedom as
           vibrations may cause significant error
 Vibrational temperatures:    255.43   448.56   604.57   605.57   709.50
          (Kelvin)            901.19  1062.94  1072.24  1123.59  1292.83
                             1403.57  1444.00  1446.52  1541.91  1600.40
                             1650.90  1703.16  1894.80  1910.11  2106.71
                             2161.00  2344.14  2347.21  4584.75  4606.06
                             4635.21  4657.62

 Zero-point correction=                           0.079352 (Hartree/Particle)
 Thermal correction to Energy=                    0.084714
 Thermal correction to Enthalpy=                  0.085658
 Thermal correction to Gibbs Free Energy=         0.049634
 Sum of electronic and zero-point Energies=           -707.803784
 Sum of electronic and thermal Energies=              -707.798422
 Sum of electronic and thermal Enthalpies=            -707.797478
 Sum of electronic and thermal Free Energies=         -707.833502

                     E (Thermal)             CV                S
                      KCal/Mol        Cal/Mol-Kelvin    Cal/Mol-Kelvin
 Total                   53.159             19.973             75.819
 Electronic               0.000              0.000              0.000
 Translational            0.889              2.981             40.082
 Rotational               0.889              2.981             27.683
 Vibrational             51.381             14.011              8.054
 Vibration     1          0.628              1.870              2.354
 Vibration     2          0.700              1.651              1.353
 Vibration     3          0.783              1.426              0.891
 Vibration     4          0.783              1.425              0.889
 Vibration     5          0.849              1.265              0.676

 Optimization completed.
    -- Stationary point found.
 Normal termination of Gaussian 16 at Mon Aug 27 09:49:31 2018.
 Gaussian 16:  ES64L-G16RevA.03 25-Dec-2016

 ----------------------------------------------------------------------
 # TD(NStates=10, Root=1) b3lyp/6-31G* volume pop=NPA density=current G
 eom=AllCheck Guess=Read
 ----------------------------------------------------------------------

 Structure from the checkpoint file:  "science_arx_103.chk"
 -------------------
 Title Card Required
 -------------------
 Charge =  0 Multiplicity = 1

                         Standard orientation:
 ---------------------------------------------------------------------
 Center     Atomic      Atomic             Coordinates (Angstroms)
 Number     Number       Type             X           Y           Z
 ---------------------------------------------------------------------
      1          6           0       -1.588747    1.179618    0.000003
      2          6           0       -2.240437   -0.055521    0.000005
      3          1           0       -3.323627   -0.123124    0.000008
      4          6           0       -1.461303   -1.210181    0.000006
      5          7           0       -0.119715   -1.196880   -0.000007
      6          6           0        0.469552   -0.015936   -0.000021
      7          6           0       -0.197065    1.212800   -0.000005
      8          1           0        0.356356    2.144601   -0.000000
      9         17           0        2.234761   -0.012928    0.000006
     10          1           0       -2.154729    2.107055    0.000008
     11          1           0       -1.922942   -2.195283    0.000006
 ---------------------------------------------------------------------

 SCF Done:  E(RB3LYP) =  -707.883135809     A.U. after    1 cycles

 Excitation energies and oscillator strengths:

 Excited State   1:      Singlet-A      5.1667 eV  239.97 nm  f=0.0040  <S**2>=0.000
      28 -> 30         0.70497
 This state for optimization and/or second-order correction.
 Total Energy, E(TD-HF/TD-DFT) =  -707.693263153
 Copying the excited state density for this state as the 1-particle RhoCI density.

 Excited State   2:      Singlet-A      5.3336 eV  232.46 nm  f=0.0436  <S**2>=0.000
      27 -> 31        -0.28880
      29 -> 30         0.64371

 Excited State   3:      Singlet-A      5.4301 eV  228.33 nm  f=0.0001  <S**2>=0.000
      28 -> 31         0.70576

 Excited State   4:      Singlet-A      6.0957 eV  203.40 nm  f=0.1083  <S**2>=0.000
      27 -> 30         0.25418
      29 -> 31         0.64588

 Excited State   5:      Singlet-A      6.5532 eV  189.20 nm  f=0.0000  <S**2>=0.000
      26 -> 30         0.68409
      26 -> 31        -0.17285

 Excited State   6:      Singlet-A      6.8066 eV  182.15 nm  f=0.0003  <S**2>=0.000
      26 -> 31        -0.39451
      29 -> 32         0.57571

 Excited State   7:      Singlet-A      6.8235 eV  181.70 nm  f=0.0003  <S**2>=0.000
      26 -> 30         0.14706
      26 -> 31         0.55822
      29 -> 32         0.40388

 Excited State   8:      Singlet-A      6.9375 eV  178.72 nm  f=0.0645  <S**2>=0.000
      25 -> 30         0.40083
      27 -> 30        -0.19358
      27 -> 31         0.43576
      28 -> 32         0.24298
      29 -> 30         0.17596
      29 -> 31         0.12877

 Excited State   9:      Singlet-A      7.1854 eV  172.55 nm  f=0.2855  <S**2>=0.000
      25 -> 31        -0.28229
      27 -> 30         0.56296
      27 -> 31         0.22921
      29 -> 30         0.10008
      29 -> 31        -0.16184

 Excited State  10:      Singlet-A      7.4559 eV  166.29 nm  f=0.1239  <S**2>=0.000
      25 -> 30        -0.28893
      28 -> 32         0.61337
      29 -> 31         0.10148

 The electronic state is 1-A.
 Alpha  occ. eigenvalues -- -101.54528 -14.34827 -10.28816 -10.24069 -10.22595
 Alpha  occ. eigenvalues --  -10.21868 -10.21316  -9.46211  -7.22596  -7.21653
 Alpha  occ. eigenvalues --   -7.21589  -0.97102  -0.85379  -0.82128  -0.75599
 Alpha  occ. eigenvalues --   -0.65144  -0.62865  -0.53487  -0.50243  -0.48172
 Alpha  occ. eigenvalues --   -0.44238  -0.42669  -0.42045  -0.38564  -0.33945
 Alpha  occ. eigenvalues --   -0.31330  -0.30090  -0.27649  -0.26145
 Alpha virt. eigenvalues --   -0.03753  -0.02518   0.03313   0.09499   0.13023
 Alpha virt. eigenvalues --    0.13360   0.16051   0.16450   0.23376   0.27221
 Alpha virt. eigenvalues --    0.28161   0.30754   0.36989   0.41009   0.41873

 Mulliken charges:
               1
     1  C   -0.176165
     2  C   -0.112158
     3  H    0.156151
     4  C   -0.002980
     5  N   -0.346055
     6  C    0.130562
     7  C   -0.137008
     8  H    0.167131
     9  Cl   0.014623
    10  H    0.133206
    11  H    0.172692
 Sum of Mulliken charges =  -0.00000

 Dipole moment (field-independent basis, Debye):
    X=             -1.4874    Y=             -0.2218    Z=              0.0000  Tot=              1.5038
 Quadrupole moment (field-independent basis, Debye-Ang):
   XX=            -43.3283   YY=            -42.4073   ZZ=            -49.9083
   XY=              1.7898   XZ=             -0.0000   YZ=             -0.0000

 Summary of Natural Population Analysis:

                                       Natural Population
                Natural  -----------------------------------------------
    Atom  No    Charge         Core      Valence    Rydberg      Total
 -----------------------------------------------------------------------
      C    1   -0.33837      1.99910     4.32006    0.01920     6.33837
      C    2   -0.23573      1.99905     4.22289    0.01379     6.23573
      H    3    0.25893      0.00000     0.74053    0.00054     0.74107
      C    4   -0.12035      1.99912     4.09943    0.02180     6.12035
      N    5   -0.17886      1.99880     5.16338    0.01668     7.17886
      C    6    0.13994      1.99874     3.83205    0.02927     5.86006
      C    7   -0.31195      1.99890     4.29650    0.01655     6.31195
      H    8    0.26862      0.00000     0.73071    0.00067     0.73138
     Cl    9    0.01764      9.99966     6.96366    0.01904    16.98236
      H   10    0.24402      0.00000     0.75536    0.00061     0.75598
      H   11    0.25610      0.00000     0.74331    0.00059     0.74390
 =======================================================================
   * Total *   -0.00000     21.99338    35.86787    0.13875    58.00000

 Normal termination of Gaussian 16 at Mon Aug 27 09:52:07 2018.
