 Gaussian 16, Revision A.03,

 -------------------------
 # opt b3lyp/genecp scf=qc
 -------------------------

 -------------------
 Title Card Required
 -------------------
 Symbolic Z-matrix:
 Charge =  0 Multiplicity = 1

 SCF Done:  E(RB3LYP) =  -259.055854946     a.u. after    7 cycles
 SCF Done:  E(RB3LYP) =  -259.057961011     a.u. after   10 cycles
 SCF Done:  E(RB3LYP) =  -259.058213081     a.u. after    6 cycles
 SCF Done:  E(RB3LYP) =  -259.058230528     a.u. after    3 cycles
 SCF Done:  E(RB3LYP) =  -259.058234090     a.u. after    3 cycles
 Optimization completed.
    -- Stationary point found.

 1\1\GINC-DELLA-R4C3N4\FOpt\RB3LYP\GenECP\C5H4I1N1\BJS4\27-Aug-2018\0\\
 # opt b3lyp/genecp scf=qc\\Title Card Required\\0,1\C,-0.6291137738,-1
 .2493425633,-0.0041773673\C,-1.3837425145,-0.0744052011,0.0213601609\H
 ,-2.4688076106,-0.1002195222,0.0334383318\C,-0.7070620839,1.1430324653
 ,0.0310863377\N,0.6325216069,1.2364646207,0.0170643187\C,1.3199208016,
 0.1161308858,-0.0069128654\C,0.7619582281,-1.165418261,-0.0189290798\H
 ,1.3860083113,-2.0508452721,-0.0388124032\I,3.4810980231,0.2909227882,
 -0.0292053427\H,-1.1143016053,-2.2216767168,-0.0125817171\H,-1.2480293

 Normal termination of Gaussian 16 at Mon Aug 27 09:48:22 2018.

 ----------------------------------------------------------------------
 # freq b3lyp/genecp volume NMR pop=NPA density=current Geom=AllCheck G
 uess=Read
 ----------------------------------------------------------------------

 Structure from the checkpoint file:  "science_arx_122.chk"
 -------------------
 Title Card Required
 -------------------
 Charge =  0 Multiplicity = 1

 SCF Done:  E(RB3LYP) =  -259.058234090     A.U. after    1 cycles

      1  C    Isotropic =    61.1743   Anisotropy =   176.4126

      2  C    Isotropic =    74.4251   Anisotropy =   160.2340

      3  H    Isotropic =    25.4437   Anisotropy =     4.5469

      4  C    Isotropic =    47.0547   Anisotropy =   148.0032

      5  N    Isotropic =   -71.1502   Anisotropy =   465.5713

      6  C    Isotropic =    30.9187   Anisotropy =    68.9863

      7  C    Isotropic =    63.1037   Anisotropy =   127.7949

      8  H    Isotropic =    25.2665   Anisotropy =     8.6985

      9  I    Isotropic =    41.6254   Anisotropy =    32.9317

     10  H    Isotropic =    25.1284   Anisotropy =     4.5404

     11  H    Isotropic =    24.0069   Anisotropy =     5.2239

  Exact polarizability: 123.959   2.464  65.491   0.000   0.000  21.609
 Approx polarizability: 185.081   4.950 114.510  -0.000  -0.000  31.942

                      1                      2                      3
                      A                      A                      A
 Frequencies --    146.8451               225.8991               242.5440
 Red. masses --      5.1204                 5.7507                11.7527
 Frc consts  --      0.0651                 0.1729                 0.4074
 IR Inten    --      1.4698                 0.9785                 6.3639

                      4                      5                      6
                      A                      A                      A
 Frequencies --    416.2448               471.5310               616.4979
 Red. masses --      3.4131                 3.4554                 7.5720
 Frc consts  --      0.3484                 0.4527                 1.6956
 IR Inten    --      4.4621                 2.3236                 3.4149

                      7                      8                      9
                      A                      A                      A
 Frequencies --    694.2357               744.2781               775.4251
 Red. masses --      7.1861                 5.2472                 1.2160
 Frc consts  --      2.0406                 1.7126                 0.4308
 IR Inten    --     47.7783                 0.1775                41.0902

                     10                     11                     12
                      A                      A                      A
 Frequencies --    903.3008               975.0617               995.8871
 Red. masses --      1.2698                 1.3908                 7.1508
 Frc consts  --      0.6104                 0.7791                 4.1785
 IR Inten    --      0.0519                 0.0573                15.8805

                     13                     14                     15
                      A                      A                      A
 Frequencies --   1008.8545              1061.5678              1095.5098
 Red. masses --      1.3039                 4.7731                 1.9440
 Frc consts  --      0.7819                 3.1691                 1.3746
 IR Inten    --      0.0133                41.0964                80.6875

                     16                     17                     18
                      A                      A                      A
 Frequencies --   1127.7745              1185.7702              1309.9763
 Red. masses --      1.7430                 1.1413                 4.1082
 Frc consts  --      1.3061                 0.9455                 4.1536
 IR Inten    --     22.7438                 3.6258                10.2896

                     19                     20                     21
                      A                      A                      A
 Frequencies --   1327.9041              1458.2313              1498.5974
 Red. masses --      1.7066                 2.0397                 2.0007
 Frc consts  --      1.7731                 2.5555                 2.6473
 IR Inten    --      2.0692                63.2969                87.3404

                     22                     23                     24
                      A                      A                      A
 Frequencies --   1619.8078              1625.2008              3190.2459
 Red. masses --      4.8449                 6.2267                 1.0886
 Frc consts  --      7.4897                 9.6900                 6.5275
 IR Inten    --     71.0642                71.2469                13.4904

                     25                     26                     27
                      A                      A                      A
 Frequencies --   3201.1239              3222.3155              3241.3372
 Red. masses --      1.0899                 1.0962                 1.0947
 Frc consts  --      6.5800                 6.7063                 6.7763
 IR Inten    --     11.1777                16.6889                 2.5455

 - Thermochemistry -
 -------------------
 Temperature   298.150 Kelvin.  Pressure   1.00000 Atm.
 Atom     1 has atomic number  6 and mass  12.00000

 Molecular mass:   204.93477 amu.
 Principal axes and moments of inertia in atomic units:
                           1         2         3
     Eigenvalues --   306.612122419.773502726.38562
           X            1.00000  -0.00258  -0.00000
           Y            0.00258   1.00000   0.00000
           Z            0.00000  -0.00000   1.00000
 This molecule is an asymmetric top.
 Rotational symmetry number  1.
 Rotational temperatures (Kelvin)      0.28249     0.03579     0.03177
 Rotational constants (GHZ):           5.88607     0.74583     0.66195
 Zero-point vibrational energy     205649.8 (Joules/Mol)
                                   49.15149 (Kcal/Mol)
 Warning -- explicit consideration of   6 degrees of freedom as
           vibrations may cause significant error
 Vibrational temperatures:    211.28   325.02   348.97   598.88   678.43
          (Kelvin)            887.00   998.85  1070.85  1115.66  1299.65
                             1402.90  1432.86  1451.52  1527.36  1576.19
                             1622.62  1706.06  1884.76  1910.56  2098.07
                             2156.15  2330.54  2338.30  4590.05  4605.70
                             4636.19  4663.56

 Zero-point correction=                           0.078328 (Hartree/Particle)
 Thermal correction to Energy=                    0.084114
 Thermal correction to Enthalpy=                  0.085058
 Thermal correction to Gibbs Free Energy=         0.046587
 Sum of electronic and zero-point Energies=           -258.979906
 Sum of electronic and thermal Energies=              -258.974120
 Sum of electronic and thermal Enthalpies=            -258.973176
 Sum of electronic and thermal Free Energies=         -259.011647

                     E (Thermal)             CV                S
                      KCal/Mol        Cal/Mol-Kelvin    Cal/Mol-Kelvin
 Total                   52.782             20.726             80.971
 Electronic               0.000              0.000              0.000
 Translational            0.889              2.981             41.857
 Rotational               0.889              2.981             29.094
 Vibrational             51.005             14.765             10.020
 Vibration     1          0.617              1.906              2.713
 Vibration     2          0.650              1.802              1.911
 Vibration     3          0.659              1.775              1.784
 Vibration     4          0.779              1.435              0.905
 Vibration     5          0.828              1.313              0.733
 Vibration     6          0.976              0.997              0.422

 Optimization completed.
    -- Stationary point found.

 1\1\GINC-DELLA-R4C3N4\Freq\RB3LYP\GenECP\C5H4I1N1\BJS4\27-Aug-2018\0\\
 # freq b3lyp/genecp volume NMR pop=NPA density=current Geom=AllCheck G
 uess=Read\\Title Card Required\\0,1\C,-0.6291137738,-1.2493425633,-0.0
 041773673\C,-1.3837425145,-0.0744052011,0.0213601609\H,-2.4688076106,-
 0.1002195222,0.0334383318\C,-0.7070620839,1.1430324653,0.0310863377\N,
 0.6325216069,1.2364646207,0.0170643187\C,1.3199208016,0.1161308858,-0.
 0069128654\C,0.7619582281,-1.165418261,-0.0189290798\H,1.3860083113,-2
 .0508452721,-0.0388124032\I,3.4810980231,0.2909227882,-0.0292053427\H,

 Normal termination of Gaussian 16 at Mon Aug 27 09:49:46 2018.
 Gaussian 16:  ES64L-G16RevA.03 25-Dec-2016

 ----------------------------------------------------------------------
 # TD(NStates=10, Root=1) b3lyp/genecp volume pop=NPA density=current G
 eom=AllCheck Guess=Read
 ----------------------------------------------------------------------

 Structure from the checkpoint file:  "science_arx_123.chk"
 -------------------
 Title Card Required
 -------------------
 Charge =  0 Multiplicity = 1

                         Standard orientation:
 ---------------------------------------------------------------------
 Center     Atomic      Atomic             Coordinates (Angstroms)
 Number     Number       Type             X           Y           Z
 ---------------------------------------------------------------------
      1          6           0       -2.672596    1.177447    0.000001
      2          6           0       -3.323696   -0.058135    0.000002
      3          1           0       -4.407033   -0.125665    0.000002
      4          6           0       -2.545042   -1.213056    0.000003
      5          7           0       -1.202311   -1.191028   -0.000002
      6          6           0       -0.613513   -0.015631   -0.000008
      7          6           0       -1.279380    1.213375   -0.000002
      8          1           0       -0.733550    2.149262    0.000001
      9         53           0        1.554805   -0.004062    0.000001
     10          1           0       -3.239428    2.104600    0.000003
     11          1           0       -3.003105   -2.199722    0.000002
 ---------------------------------------------------------------------

 SCF Done:  E(RB3LYP) =  -259.058234090     A.U. after    1 cycles

 Excitation energies and oscillator strengths:

 Excited State   1:      Singlet-A      4.7654 eV  260.17 nm  f=0.0017  <S**2>=0.000
      24 -> 26         0.70527
 This state for optimization and/or second-order correction.
 Total Energy, E(TD-HF/TD-DFT) =  -258.883108148
 Copying the excited state density for this state as the 1-particle RhoCI density.

 Excited State   2:      Singlet-A      4.9494 eV  250.51 nm  f=0.0183  <S**2>=0.000
      20 -> 27         0.10881
      21 -> 27        -0.10245
      23 -> 26        -0.21833
      24 -> 25         0.64797

 Excited State   3:      Singlet-A      4.9544 eV  250.25 nm  f=0.0036  <S**2>=0.000
      22 -> 25        -0.47382
      23 -> 25         0.52184

 Excited State   4:      Singlet-A      5.0958 eV  243.31 nm  f=0.0079  <S**2>=0.000
      22 -> 26         0.11276
      23 -> 26         0.65956
      24 -> 25         0.18947

 Excited State   5:      Singlet-A      5.2037 eV  238.26 nm  f=0.0004  <S**2>=0.000
      22 -> 27        -0.47323
      23 -> 27         0.51550

 Excited State   6:      Singlet-A      5.3258 eV  232.80 nm  f=0.0012  <S**2>=0.000
      22 -> 25         0.51556
      22 -> 27        -0.12137
      23 -> 25         0.46702

 Excited State   7:      Singlet-A      5.3819 eV  230.37 nm  f=0.0245  <S**2>=0.000
      21 -> 27        -0.13693
      22 -> 26        -0.34857
      24 -> 27         0.58710

 Excited State   8:      Singlet-A      5.5895 eV  221.82 nm  f=0.0000  <S**2>=0.000
      22 -> 27         0.50797
      23 -> 27         0.48212

 Excited State   9:      Singlet-A      5.8051 eV  213.58 nm  f=0.2654  <S**2>=0.000
      19 -> 26         0.12176
      22 -> 26         0.57521
      23 -> 26        -0.10476
      24 -> 25        -0.10179
      24 -> 27         0.34466

 Excited State  10:      Singlet-A      5.9935 eV  206.86 nm  f=0.0003  <S**2>=0.000
      21 -> 26         0.70567

 The electronic state is 1-A.
 Alpha  occ. eigenvalues --  -14.34833 -10.27343 -10.23696 -10.22118 -10.21513
 Alpha  occ. eigenvalues --  -10.20925  -0.96634  -0.82167  -0.78470  -0.68604
 Alpha  occ. eigenvalues --   -0.65089  -0.61912  -0.53188  -0.49973  -0.47577
 Alpha  occ. eigenvalues --   -0.43117  -0.42039  -0.41385  -0.35966  -0.30872
 Alpha  occ. eigenvalues --   -0.29436  -0.27322  -0.25955  -0.24792
 Alpha virt. eigenvalues --   -0.03884  -0.03390  -0.02723   0.09048   0.12962
 Alpha virt. eigenvalues --    0.13270   0.15894   0.16467   0.23083   0.27368
 Alpha virt. eigenvalues --    0.29243   0.31032   0.35830   0.39208   0.39598

 Mulliken charges:
               1
     1  C   -0.100440
     2  C   -0.117284
     3  H    0.156615
     4  C    0.018145
     5  N   -0.294156
     6  C   -0.131518
     7  C   -0.060365
     8  H    0.153338
     9  I    0.074978
    10  H    0.146223
    11  H    0.154464
 Sum of Mulliken charges =  -0.00000

 Dipole moment (field-independent basis, Debye):
    X=             -4.2431    Y=              1.7374    Z=              0.0000  Tot=              4.5850
 Quadrupole moment (field-independent basis, Debye-Ang):
   XX=            -45.8808   YY=            -53.3316   ZZ=            -54.2347
   XY=             -0.2021   XZ=             -0.0000   YZ=             -0.0000

 Summary of Natural Population Analysis:

                                       Natural Population
                Natural  -----------------------------------------------
    Atom  No    Charge         Core      Valence    Rydberg      Total
 -----------------------------------------------------------------------
      C    1   -0.21006      1.99896     4.19649    0.01461     6.21006
      C    2   -0.22918      1.99893     4.21719    0.01306     6.22918
      H    3    0.24665      0.00000     0.75217    0.00118     0.75335
      C    4    0.05212      1.99906     3.92580    0.02302     5.94788
      N    5   -0.46363      1.99916     5.43745    0.02702     7.46363
      C    6   -0.05550      1.99884     4.01395    0.04271     6.05550
      C    7   -0.22970      1.99874     4.21497    0.01599     6.22970
      H    8    0.24016      0.00000     0.75616    0.00369     0.75984
      I    9    0.18280     46.00000     6.78912    0.02808    52.81720
      H   10    0.24007      0.00000     0.75779    0.00213     0.75993
      H   11    0.22626      0.00000     0.77198    0.00176     0.77374
 =======================================================================
   * Total *   -0.00000     57.99370    35.83306    0.17324    94.00000

 Normal termination of Gaussian 16 at Mon Aug 27 09:51:54 2018.
