 Gaussian 16, Revision A.03,

 -------------------------
 # opt b3lyp/6-31G* scf=qc
 -------------------------

 -------------------
 Title Card Required
 -------------------
 Symbolic Z-matrix:
 Charge =  0 Multiplicity = 1

 SCF Done:  E(RB3LYP) =  -2819.38756027     a.u. after    8 cycles
 SCF Done:  E(RB3LYP) =  -2819.38854047     a.u. after   10 cycles
 SCF Done:  E(RB3LYP) =  -2819.38861614     a.u. after    4 cycles
 Optimization completed.
    -- Stationary point found.
 Normal termination of Gaussian 16 at Mon Aug 27 09:46:58 2018.

 ----------------------------------------------------------------------
 # freq b3lyp/6-31G* volume NMR pop=NPA density=current Geom=AllCheck G
 uess=Read
 ----------------------------------------------------------------------

 Structure from the checkpoint file:  "science_arx_142.chk"
 -------------------
 Title Card Required
 -------------------
 Charge =  0 Multiplicity = 1

 SCF Done:  E(RB3LYP) =  -2819.38861614     A.U. after    1 cycles

      1  C    Isotropic =    72.0812   Anisotropy =   151.9967

      2  C    Isotropic =    48.7090   Anisotropy =   159.0246

      3  H    Isotropic =    23.7471   Anisotropy =     5.4285

      4  N    Isotropic =   -67.6873   Anisotropy =   522.8215

      5  C    Isotropic =    44.7664   Anisotropy =   134.8016

      6  C    Isotropic =    55.9424   Anisotropy =   107.8136

      7  C    Isotropic =    58.7947   Anisotropy =   157.8651

      8  H    Isotropic =    24.8495   Anisotropy =     8.9259

      9  Br   Isotropic =  2226.0918   Anisotropy =  1089.1799

     10  H    Isotropic =    25.2618   Anisotropy =     5.1926

     11  H    Isotropic =    23.7118   Anisotropy =    10.0014

  Exact polarizability: 106.141   3.001  71.074  -0.000   0.000  30.811
 Approx polarizability: 169.916   1.577 127.435  -0.000  -0.000  48.359

                      1                      2                      3
                      A                      A                      A
 Frequencies --    175.2296               247.9595               319.0814
 Red. masses --      4.5158                 5.6309                11.5878
 Frc consts  --      0.0817                 0.2040                 0.6951
 IR Inten    --      0.0045                 0.6665                 3.2581

                      4                      5                      6
                      A                      A                      A
 Frequencies --    414.3194               468.1141               622.6070
 Red. masses --      3.0645                 4.3314                 7.9094
 Frc consts  --      0.3099                 0.5592                 1.8064
 IR Inten    --      2.5713                 0.0097                 5.7481

                      7                      8                      9
                      A                      A                      A
 Frequencies --    713.8194               721.1881               816.8329
 Red. masses --      7.4462                 2.3726                 1.4766
 Frc consts  --      2.2354                 0.7271                 0.5805
 IR Inten    --     13.8442                20.9135                19.5972

                     10                     11                     12
                      A                      A                      A
 Frequencies --    947.1414               970.5960               998.3042
 Red. masses --      1.3319                 1.3983                 1.3650
 Frc consts  --      0.7040                 0.7761                 0.8015
 IR Inten    --      0.2231                 1.1359                 0.2289

                     13                     14                     15
                      A                      A                      A
 Frequencies --   1020.1809              1062.7023              1111.3415
 Red. masses --      6.6731                 4.0459                 2.1612
 Frc consts  --      4.0919                 2.6921                 1.5727
 IR Inten    --     51.8100                 0.5755                32.6298

                     16                     17                     18
                      A                      A                      A
 Frequencies --   1145.0826              1231.3397              1298.0707
 Red. masses --      1.4460                 1.4202                 7.2661
 Frc consts  --      1.1171                 1.2687                 7.2135
 IR Inten    --      4.2634                 1.5012                 0.1517

                     19                     20                     21
                      A                      A                      A
 Frequencies --   1366.3873              1460.4802              1508.8013
 Red. masses --      1.2777                 2.1598                 1.9890
 Frc consts  --      1.4055                 2.7142                 2.6678
 IR Inten    --      4.2409                30.3452                23.3809

                     22                     23                     24
                      A                      A                      A
 Frequencies --   1618.6870              1624.5835              3181.8083
 Red. masses --      5.8312                 5.4832                 1.0886
 Frc consts  --      9.0020                 8.5265                 6.4933
 IR Inten    --      3.5260                 9.5882                16.9570

                     25                     26                     27
                      A                      A                      A
 Frequencies --   3196.6549              3208.6863              3227.7663
 Red. masses --      1.0917                 1.0921                 1.0955
 Frc consts  --      6.5729                 6.6247                 6.7243
 IR Inten    --      8.6961                12.5138                 3.9676

 - Thermochemistry -
 -------------------
 Temperature   298.150 Kelvin.  Pressure   1.00000 Atm.
 Atom     1 has atomic number  6 and mass  12.00000

 Molecular mass:   156.95271 amu.
 Principal axes and moments of inertia in atomic units:
                           1         2         3
     Eigenvalues --   309.008641817.539522126.54816
           X            0.99992   0.01291  -0.00000
           Y           -0.01291   0.99992   0.00000
           Z            0.00000  -0.00000   1.00000
 This molecule is an asymmetric top.
 Rotational symmetry number  1.
 Rotational temperatures (Kelvin)      0.28030     0.04765     0.04073
 Rotational constants (GHZ):           5.84042     0.99296     0.84867
 Zero-point vibrational energy     207419.1 (Joules/Mol)
                                   49.57436 (Kcal/Mol)
 Warning -- explicit consideration of   5 degrees of freedom as
           vibrations may cause significant error
 Vibrational temperatures:    252.12   356.76   459.09   596.11   673.51
          (Kelvin)            895.79  1027.03  1037.63  1175.24  1362.73
                             1396.47  1436.34  1467.81  1528.99  1598.97
                             1647.52  1771.62  1867.63  1965.93  2101.31
                             2170.83  2328.93  2337.41  4577.91  4599.27
                             4616.58  4644.04

 Zero-point correction=                           0.079002 (Hartree/Particle)
 Thermal correction to Energy=                    0.084581
 Thermal correction to Enthalpy=                  0.085525
 Thermal correction to Gibbs Free Energy=         0.048174
 Sum of electronic and zero-point Energies=          -2819.309614
 Sum of electronic and thermal Energies=             -2819.304035
 Sum of electronic and thermal Enthalpies=           -2819.303091
 Sum of electronic and thermal Free Energies=        -2819.340442

                     E (Thermal)             CV                S
                      KCal/Mol        Cal/Mol-Kelvin    Cal/Mol-Kelvin
 Total                   53.075             20.318             78.612
 Electronic               0.000              0.000              0.000
 Translational            0.889              2.981             41.062
 Rotational               0.889              2.981             28.570
 Vibrational             51.298             14.356              8.980
 Vibration     1          0.627              1.873              2.379
 Vibration     2          0.662              1.766              1.745
 Vibration     3          0.705              1.637              1.315
 Vibration     4          0.778              1.439              0.911
 Vibration     5          0.825              1.321              0.743

 Optimization completed.
    -- Stationary point found.
 Normal termination of Gaussian 16 at Mon Aug 27 09:48:37 2018.
 Gaussian 16:  ES64L-G16RevA.03 25-Dec-2016

 ----------------------------------------------------------------------
 # TD(NStates=10, Root=1) b3lyp/6-31G* volume pop=NPA density=current G
 eom=AllCheck Guess=Read
 ----------------------------------------------------------------------

 Structure from the checkpoint file:  "science_arx_143.chk"
 -------------------
 Title Card Required
 -------------------
 Charge =  0 Multiplicity = 1

                         Standard orientation:
 ---------------------------------------------------------------------
 Center     Atomic      Atomic             Coordinates (Angstroms)
 Number     Number       Type             X           Y           Z
 ---------------------------------------------------------------------
      1          6           0        2.204164    1.159258   -0.000000
      2          6           0        2.822014   -0.092195   -0.000001
      3          1           0        3.907263   -0.173005   -0.000002
      4          7           0        2.146652   -1.247876    0.000000
      5          6           0        0.811523   -1.192745    0.000001
      6          6           0        0.112206    0.014994    0.000002
      7          6           0        0.811483    1.218875    0.000001
      8          1           0        0.283431    2.166509    0.000000
      9         35           0       -1.795958    0.004641   -0.000000
     10          1           0        2.797239    2.069023   -0.000000
     11          1           0        0.275705   -2.138960   -0.000001
 ---------------------------------------------------------------------

 SCF Done:  E(RB3LYP) =  -2819.38861614     A.U. after    1 cycles

 Excitation energies and oscillator strengths:

 Excited State   1:      Singlet-A      4.8835 eV  253.89 nm  f=0.0042  <S**2>=0.000
      37 -> 39         0.70375
 This state for optimization and/or second-order correction.
 Total Energy, E(TD-HF/TD-DFT) =  -2819.20915180
 Copying the excited state density for this state as the 1-particle RhoCI density.

 Excited State   2:      Singlet-A      5.1712 eV  239.76 nm  f=0.0000  <S**2>=0.000
      37 -> 40         0.70436

 Excited State   3:      Singlet-A      5.2052 eV  238.19 nm  f=0.0378  <S**2>=0.000
      36 -> 40         0.24795
      38 -> 39         0.64006
      38 -> 40        -0.13183

 Excited State   4:      Singlet-A      5.7399 eV  216.00 nm  f=0.0002  <S**2>=0.000
      38 -> 41         0.70408

 Excited State   5:      Singlet-A      5.8482 eV  212.01 nm  f=0.1087  <S**2>=0.000
      36 -> 39        -0.22274
      37 -> 41        -0.15946
      38 -> 39         0.16855
      38 -> 40         0.61982

 Excited State   6:      Singlet-A      6.1817 eV  200.57 nm  f=0.0001  <S**2>=0.000
      35 -> 39         0.69848

 Excited State   7:      Singlet-A      6.3299 eV  195.87 nm  f=0.0158  <S**2>=0.000
      35 -> 41        -0.11804
      36 -> 39        -0.29688
      37 -> 41         0.62090

 Excited State   8:      Singlet-A      6.4888 eV  191.08 nm  f=0.0000  <S**2>=0.000
      35 -> 40         0.69832

 Excited State   9:      Singlet-A      6.6484 eV  186.49 nm  f=0.0858  <S**2>=0.000
      34 -> 39        -0.37085
      34 -> 40         0.19818
      36 -> 39         0.37292
      36 -> 40         0.28115
      37 -> 41         0.18187
      38 -> 39        -0.10215
      38 -> 40         0.24295

 Excited State  10:      Singlet-A      6.8559 eV  180.84 nm  f=0.0143  <S**2>=0.000
      34 -> 39        -0.10394
      35 -> 41         0.63144
      36 -> 39        -0.18811
      36 -> 40         0.21348

 The electronic state is 1-A.
 Alpha  occ. eigenvalues -- -482.91996 -61.88178 -56.40313 -56.39897 -56.39890
 Alpha  occ. eigenvalues --  -14.34515 -10.25884 -10.23910 -10.23510 -10.22642
 Alpha  occ. eigenvalues --  -10.21568  -8.59328  -6.54735  -6.53444  -6.53418
 Alpha  occ. eigenvalues --   -2.66305  -2.65936  -2.65917  -2.64886  -2.64886
 Alpha  occ. eigenvalues --   -0.95603  -0.84203  -0.79749  -0.74314  -0.64765
 Alpha  occ. eigenvalues --   -0.62770  -0.53640  -0.50050  -0.47069  -0.43108
 Alpha  occ. eigenvalues --   -0.42231  -0.41641  -0.37789  -0.33355  -0.29857
 Alpha  occ. eigenvalues --   -0.29419  -0.26599  -0.25585
 Alpha virt. eigenvalues --   -0.03787  -0.02507  -0.00076   0.10385   0.12913
 Alpha virt. eigenvalues --    0.14708   0.14935   0.16778   0.21320   0.23954
 Alpha virt. eigenvalues --    0.29088   0.29688   0.31612   0.39595   0.41916

 Mulliken charges:
               1
     1  C   -0.142434
     2  C    0.039662
     3  H    0.169400
     4  N   -0.351401
     5  C    0.015743
     6  C    0.073239
     7  C   -0.195460
     8  H    0.146405
     9  Br  -0.093949
    10  H    0.156117
    11  H    0.182679
 Sum of Mulliken charges =  -0.00000

 Dipole moment (field-independent basis, Debye):
    X=              1.5238    Y=             -0.1926    Z=             -0.0000  Tot=              1.5359
 Quadrupole moment (field-independent basis, Debye-Ang):
   XX=            -45.6476   YY=            -48.2254   ZZ=            -55.6630
   XY=              1.0903   XZ=             -0.0000   YZ=              0.0000

 Summary of Natural Population Analysis:

                                       Natural Population
                Natural  -----------------------------------------------
    Atom  No    Charge         Core      Valence    Rydberg      Total
 -----------------------------------------------------------------------
      C    1   -0.26919      1.99904     4.25504    0.01510     6.26919
      C    2   -0.07070      1.99913     4.05051    0.02106     6.07070
      H    3    0.25150      0.00000     0.74788    0.00062     0.74850
      N    4   -0.17684      1.99897     5.16259    0.01527     7.17684
      C    5   -0.09902      1.99892     4.07785    0.02225     6.09902
      C    6   -0.14516      1.99854     4.12515    0.02147     6.14516
      C    7   -0.36900      1.99892     4.34810    0.02199     6.36900
      H    8    0.25403      0.00000     0.74520    0.00076     0.74597
     Br    9    0.10157     27.99909     6.88154    0.01780    34.89843
      H   10    0.26058      0.00000     0.73892    0.00050     0.73942
      H   11    0.26222      0.00000     0.73690    0.00088     0.73778
 =======================================================================
   * Total *    0.00000     39.99262    35.86968    0.13769    76.00000

 Normal termination of Gaussian 16 at Mon Aug 27 09:51:13 2018.
