 Gaussian 16, Revision A.03,

 -------------------------
 # opt b3lyp/6-31G* scf=qc
 -------------------------

 -------------------
 Title Card Required
 -------------------
 Symbolic Z-matrix:
 Charge =  0 Multiplicity = 1

 SCF Done:  E(RB3LYP) =  -707.878172018     a.u. after    8 cycles
 SCF Done:  E(RB3LYP) =  -707.879564590     a.u. after    5 cycles
 SCF Done:  E(RB3LYP) =  -707.879701860     a.u. after    4 cycles
 SCF Done:  E(RB3LYP) =  -707.879704377     a.u. after    2 cycles
 Optimization completed.
    -- Stationary point found.
 Normal termination of Gaussian 16 at Mon Aug 27 09:47:18 2018.

 ----------------------------------------------------------------------
 # freq b3lyp/6-31G* volume NMR pop=NPA density=current Geom=AllCheck G
 uess=Read
 ----------------------------------------------------------------------

 Structure from the checkpoint file:  "science_arx_132.chk"
 -------------------
 Title Card Required
 -------------------
 Charge =  0 Multiplicity = 1

 SCF Done:  E(RB3LYP) =  -707.879704377     A.U. after    1 cycles

      1  C    Isotropic =    72.5246   Anisotropy =   153.8560

      2  C    Isotropic =    49.0559   Anisotropy =   158.1146

      3  H    Isotropic =    23.7557   Anisotropy =     5.4913

      4  N    Isotropic =   -66.6946   Anisotropy =   528.2452

      5  C    Isotropic =    46.9340   Anisotropy =   135.6912

      6  C    Isotropic =    55.1435   Anisotropy =   108.5348

      7  C    Isotropic =    61.6203   Anisotropy =   158.2870

      8  H    Isotropic =    24.9434   Anisotropy =     7.2947

      9  Cl   Isotropic =   745.8822   Anisotropy =   421.0404

     10  H    Isotropic =    25.2342   Anisotropy =     5.0857

     11  H    Isotropic =    23.7598   Anisotropy =     8.4410

  Exact polarizability:  93.937   2.866  66.992   0.000   0.000  25.488
 Approx polarizability: 150.523   1.703 117.600   0.000   0.000  38.355

                      1                      2                      3
                      A                      A                      A
 Frequencies --    189.6752               291.7914               414.8510
 Red. masses --      4.6839                 6.3188                 3.1535
 Frc consts  --      0.0993                 0.3170                 0.3198
 IR Inten    --      0.1074                 1.1370                 2.4605

                      4                      5                      6
                      A                      A                      A
 Frequencies --    422.7325               472.2035               624.6349
 Red. masses --     12.1443                 4.2888                 7.9103
 Frc consts  --      1.2787                 0.5634                 1.8184
 IR Inten    --      6.4295                 0.0124                 5.4189

                      7                      8                      9
                      A                      A                      A
 Frequencies --    716.7826               740.5453               811.4239
 Red. masses --      2.5507                 7.6743                 1.4593
 Frc consts  --      0.7721                 2.4796                 0.5661
 IR Inten    --     20.1200                15.3128                23.6261

                     10                     11                     12
                      A                      A                      A
 Frequencies --    935.4195               960.4342               992.5318
 Red. masses --      1.3271                 1.3656                 1.3616
 Frc consts  --      0.6842                 0.7422                 0.7903
 IR Inten    --      0.4272                 1.2507                 0.1467

                     13                     14                     15
                      A                      A                      A
 Frequencies --   1026.6322              1065.5907              1126.1180
 Red. masses --      5.6025                 3.4703                 2.4601
 Frc consts  --      3.4790                 2.3217                 1.8381
 IR Inten    --     38.6498                 1.5288                52.7441

                     16                     17                     18
                      A                      A                      A
 Frequencies --   1145.9280              1231.7487              1298.9631
 Red. masses --      1.4354                 1.4287                 6.7902
 Frc consts  --      1.1106                 1.2771                 6.7503
 IR Inten    --      7.4006                 1.6529                 0.2165

                     19                     20                     21
                      A                      A                      A
 Frequencies --   1364.5248              1462.2518              1511.4632
 Red. masses --      1.2972                 2.1941                 2.0256
 Frc consts  --      1.4231                 2.7641                 2.7265
 IR Inten    --      2.7454                32.8147                26.6157

                     22                     23                     24
                      A                      A                      A
 Frequencies --   1623.5700              1626.5712              3182.9990
 Red. masses --      5.7243                 5.6534                 1.0885
 Frc consts  --      8.8902                 8.8127                 6.4976
 IR Inten    --      4.3855                 8.0042                16.7973

                     25                     26                     27
                      A                      A                      A
 Frequencies --   3194.8516              3209.0861              3226.2093
 Red. masses --      1.0919                 1.0918                 1.0959
 Frc consts  --      6.5663                 6.6245                 6.7204
 IR Inten    --      9.8208                11.9905                 4.2860

 - Thermochemistry -
 -------------------
 Temperature   298.150 Kelvin.  Pressure   1.00000 Atm.
 Atom     1 has atomic number  6 and mass  12.00000

 Molecular mass:   113.00323 amu.
 Principal axes and moments of inertia in atomic units:
                           1         2         3
     Eigenvalues --   308.989981139.865731448.85570
           X            0.99985   0.01758   0.00000
           Y           -0.01758   0.99985   0.00000
           Z           -0.00000  -0.00000   1.00000
 This molecule is an asymmetric top.
 Rotational symmetry number  1.
 Rotational temperatures (Kelvin)      0.28031     0.07599     0.05978
 Rotational constants (GHZ):           5.84078     1.58329     1.24563
 Zero-point vibrational energy     208566.1 (Joules/Mol)
                                   49.84850 (Kcal/Mol)
 Warning -- explicit consideration of   5 degrees of freedom as
           vibrations may cause significant error
 Vibrational temperatures:    272.90   419.82   596.88   608.22   679.40
          (Kelvin)            898.71  1031.29  1065.48  1167.46  1345.86
                             1381.85  1428.03  1477.09  1533.15  1620.23
                             1648.73  1772.21  1868.92  1963.25  2103.85
                             2174.66  2335.96  2340.27  4579.63  4596.68
                             4617.16  4641.80

 Zero-point correction=                           0.079439 (Hartree/Particle)
 Thermal correction to Energy=                    0.084817
 Thermal correction to Enthalpy=                  0.085761
 Thermal correction to Gibbs Free Energy=         0.049701
 Sum of electronic and zero-point Energies=           -707.800266
 Sum of electronic and thermal Energies=              -707.794888
 Sum of electronic and thermal Enthalpies=            -707.793943
 Sum of electronic and thermal Free Energies=         -707.830004

                     E (Thermal)             CV                S
                      KCal/Mol        Cal/Mol-Kelvin    Cal/Mol-Kelvin
 Total                   53.223             19.968             75.896
 Electronic               0.000              0.000              0.000
 Translational            0.889              2.981             40.082
 Rotational               0.889              2.981             27.725
 Vibrational             51.446             14.006              8.088
 Vibration     1          0.633              1.854              2.231
 Vibration     2          0.687              1.689              1.464
 Vibration     3          0.778              1.438              0.910
 Vibration     4          0.785              1.421              0.883
 Vibration     5          0.829              1.312              0.731

 Optimization completed.
    -- Stationary point found.
 Normal termination of Gaussian 16 at Mon Aug 27 09:48:48 2018.
 Gaussian 16:  ES64L-G16RevA.03 25-Dec-2016

 ----------------------------------------------------------------------
 # TD(NStates=10, Root=1) b3lyp/6-31G* volume pop=NPA density=current G
 eom=AllCheck Guess=Read
 ----------------------------------------------------------------------

 Structure from the checkpoint file:  "science_arx_133.chk"
 -------------------
 Title Card Required
 -------------------
 Charge =  0 Multiplicity = 1

                         Standard orientation:
 ---------------------------------------------------------------------
 Center     Atomic      Atomic             Coordinates (Angstroms)
 Number     Number       Type             X           Y           Z
 ---------------------------------------------------------------------
      1          6           0        1.602875    1.157937    0.000000
      2          6           0        2.219608   -0.094043    0.000000
      3          1           0        3.304701   -0.175275    0.000001
      4          7           0        1.543249   -1.248970    0.000000
      5          6           0        0.209032   -1.191741   -0.000000
      6          6           0       -0.491274    0.017288   -0.000000
      7          6           0        0.210445    1.220218   -0.000000
      8          1           0       -0.317695    2.168153   -0.000001
      9         17           0       -2.244829    0.009541    0.000000
     10          1           0        2.197750    2.066441    0.000000
     11          1           0       -0.329517   -2.136678   -0.000000
 ---------------------------------------------------------------------

 SCF Done:  E(RB3LYP) =  -707.879704377     A.U. after    1 cycles

 Excitation energies and oscillator strengths:

 Excited State   1:      Singlet-A      4.9026 eV  252.89 nm  f=0.0041  <S**2>=0.000
      28 -> 30         0.70519
 This state for optimization and/or second-order correction.
 Total Energy, E(TD-HF/TD-DFT) =  -707.699536715
 Copying the excited state density for this state as the 1-particle RhoCI density.

 Excited State   2:      Singlet-A      5.1999 eV  238.44 nm  f=0.0000  <S**2>=0.000
      28 -> 31         0.70583

 Excited State   3:      Singlet-A      5.3272 eV  232.74 nm  f=0.0385  <S**2>=0.000
      27 -> 31        -0.29403
      29 -> 30         0.62803
      29 -> 31         0.10619

 Excited State   4:      Singlet-A      6.0856 eV  203.73 nm  f=0.1020  <S**2>=0.000
      27 -> 30         0.29420
      29 -> 30        -0.14969
      29 -> 31         0.61630

 Excited State   5:      Singlet-A      6.4915 eV  190.99 nm  f=0.0008  <S**2>=0.000
      29 -> 32         0.70290

 Excited State   6:      Singlet-A      6.8454 eV  181.12 nm  f=0.0423  <S**2>=0.000
      27 -> 30         0.42358
      27 -> 31         0.10011
      28 -> 32         0.52737
      29 -> 31        -0.13175

 Excited State   7:      Singlet-A      6.8890 eV  179.97 nm  f=0.0002  <S**2>=0.000
      26 -> 30         0.69569
      26 -> 31        -0.10951

 Excited State   8:      Singlet-A      7.0634 eV  175.53 nm  f=0.1584  <S**2>=0.000
      25 -> 30         0.31908
      27 -> 30        -0.24612
      27 -> 31         0.44866
      28 -> 32         0.19868
      29 -> 30         0.19501
      29 -> 31         0.22176

 Excited State   9:      Singlet-A      7.2020 eV  172.15 nm  f=0.0000  <S**2>=0.000
      26 -> 30         0.11008
      26 -> 31         0.69601

 Excited State  10:      Singlet-A      7.3357 eV  169.01 nm  f=0.3933  <S**2>=0.000
      25 -> 31         0.16459
      27 -> 30        -0.33075
      27 -> 31        -0.38060
      28 -> 32         0.39658
      29 -> 30        -0.16131
      29 -> 31         0.12584

 The electronic state is 1-A.
 Alpha  occ. eigenvalues -- -101.55901 -14.34538 -10.26529 -10.23943 -10.23502
 Alpha  occ. eigenvalues --  -10.22681 -10.21612  -9.47526  -7.23929  -7.22949
 Alpha  occ. eigenvalues --   -7.22919  -0.95769  -0.88103  -0.80767  -0.75674
 Alpha  occ. eigenvalues --   -0.64923  -0.63052  -0.53796  -0.50329  -0.47906
 Alpha  occ. eigenvalues --   -0.44305  -0.42336  -0.42101  -0.38750  -0.35567
 Alpha  occ. eigenvalues --   -0.32685  -0.29655  -0.26711  -0.26131
 Alpha virt. eigenvalues --   -0.03789  -0.02472   0.02251   0.10540   0.12952
 Alpha virt. eigenvalues --    0.14840   0.14955   0.16820   0.22373   0.25621
 Alpha virt. eigenvalues --    0.28941   0.30549   0.38669   0.39198   0.40543

 Mulliken charges:
               1
     1  C   -0.142220
     2  C    0.041196
     3  H    0.170292
     4  N   -0.346641
     5  C    0.028925
     6  C   -0.067822
     7  C   -0.178112
     8  H    0.147822
     9  Cl   0.005972
    10  H    0.156782
    11  H    0.183806
 Sum of Mulliken charges =   0.00000

 Dipole moment (field-independent basis, Debye):
    X=              1.7961    Y=             -0.2398    Z=              0.0000  Tot=              1.8120
 Quadrupole moment (field-independent basis, Debye-Ang):
   XX=            -43.0065   YY=            -42.3603   ZZ=            -49.9193
   XY=              1.2314   XZ=              0.0000   YZ=              0.0000

 Summary of Natural Population Analysis:

                                       Natural Population
                Natural  -----------------------------------------------
    Atom  No    Charge         Core      Valence    Rydberg      Total
 -----------------------------------------------------------------------
      C    1   -0.27355      1.99904     4.25934    0.01517     6.27355
      C    2   -0.06805      1.99913     4.04807    0.02085     6.06805
      H    3    0.25189      0.00000     0.74749    0.00061     0.74811
      N    4   -0.17129      1.99896     5.15716    0.01517     7.17129
      C    5   -0.10639      1.99894     4.08521    0.02224     6.10639
      C    6   -0.07294      1.99849     4.05276    0.02168     6.07294
      C    7   -0.36702      1.99893     4.34652    0.02157     6.36702
      H    8    0.25358      0.00000     0.74567    0.00075     0.74642
     Cl    9    0.03009      9.99965     6.95054    0.01973    16.96991
      H   10    0.26125      0.00000     0.73827    0.00048     0.73875
      H   11    0.26242      0.00000     0.73676    0.00082     0.73758
 =======================================================================
   * Total *    0.00000     21.99315    35.86778    0.13907    58.00000

 Normal termination of Gaussian 16 at Mon Aug 27 09:51:24 2018.
