 Gaussian 16, Revision A.03,

 -------------------------
 # opt b3lyp/genecp scf=qc
 -------------------------

 -------------------
 Title Card Required
 -------------------
 Symbolic Z-matrix:
 Charge =  0 Multiplicity = 1

 SCF Done:  E(RB3LYP) =  -259.054497794     a.u. after    8 cycles
 SCF Done:  E(RB3LYP) =  -259.056523702     a.u. after    9 cycles
 SCF Done:  E(RB3LYP) =  -259.056658857     a.u. after    3 cycles
 SCF Done:  E(RB3LYP) =  -259.056661420     a.u. after    2 cycles
 Optimization completed.
    -- Stationary point found.

 1\1\GINC-DELLA-R4C3N5\FOpt\RB3LYP\GenECP\C5H4I1N1\BJS4\27-Aug-2018\0\\
 # opt b3lyp/genecp scf=qc\\Title Card Required\\0,1\C,-0.7669666707,1.
 1546483948,0.0077468567\C,0.6268819134,1.1701067166,0.0654438824\H,1.1
 689200743,2.1129624861,0.1066605669\N,1.3754496227,0.0612543422,0.0740
 38175\C,0.7511682765,-1.1199205622,0.024658009\C,-0.6400815483,-1.2296
 867286,-0.0348236939\C,-1.4214574857,-0.0767603708,-0.0438836501\H,-2.
 503894487,-0.1318383237,-0.0895540026\I,-1.55292636,-3.1648111514,-0.1
 111986134\H,-1.3312330211,2.0826710654,0.0031179958\H,1.381079686,-2.0

 Normal termination of Gaussian 16 at Mon Aug 27 09:47:11 2018.

 ----------------------------------------------------------------------
 # freq b3lyp/genecp volume NMR pop=NPA density=current Geom=AllCheck G
 uess=Read
 ----------------------------------------------------------------------

 Structure from the checkpoint file:  "science_arx_152.chk"
 -------------------
 Title Card Required
 -------------------
 Charge =  0 Multiplicity = 1

 SCF Done:  E(RB3LYP) =  -259.056661420     A.U. after    1 cycles

      1  C    Isotropic =    71.9737   Anisotropy =   148.8849

      2  C    Isotropic =    48.5651   Anisotropy =   159.7422

      3  H    Isotropic =    23.8263   Anisotropy =     5.4706

      4  N    Isotropic =   -68.5091   Anisotropy =   507.5537

      5  C    Isotropic =    42.2682   Anisotropy =   131.6909

      6  C    Isotropic =    60.1745   Anisotropy =    99.2360

      7  C    Isotropic =    55.3336   Anisotropy =   155.6362

      8  H    Isotropic =    24.8776   Anisotropy =     8.6775

      9  I    Isotropic =    44.7574   Anisotropy =    28.6363

     10  H    Isotropic =    25.3792   Anisotropy =     5.0443

     11  H    Isotropic =    23.8368   Anisotropy =     9.5849

  Exact polarizability: 121.507   3.172  65.247  -0.000   0.000  21.665
 Approx polarizability: 185.946   1.049 113.927  -0.000   0.000  32.055

                      1                      2                      3
                      A                      A                      A
 Frequencies --    155.5748               217.2261               256.2883
 Red. masses --      4.5283                 5.5007                10.5056
 Frc consts  --      0.0646                 0.1529                 0.4066
 IR Inten    --      0.0272                 0.3991                 2.2341

                      4                      5                      6
                      A                      A                      A
 Frequencies --    407.1968               455.0082               618.0409
 Red. masses --      3.0121                 4.4655                 7.9080
 Frc consts  --      0.2943                 0.5447                 1.7797
 IR Inten    --      3.0281                 0.4009                 6.8217

                      7                      8                      9
                      A                      A                      A
 Frequencies --    695.0207               718.1838               808.9637
 Red. masses --      7.4236                 2.4738                 1.4497
 Frc consts  --      2.1128                 0.7518                 0.5590
 IR Inten    --     21.5272                24.8162                17.3188

                     10                     11                     12
                      A                      A                      A
 Frequencies --    944.2735               965.6936               998.2012
 Red. masses --      1.3340                 1.3597                 1.3769
 Frc consts  --      0.7008                 0.7471                 0.8083
 IR Inten    --      0.1341                 0.4396                 0.1396

                     13                     14                     15
                      A                      A                      A
 Frequencies --   1007.4081              1060.6128              1102.8790
 Red. masses --      7.8759                 4.7650                 1.9271
 Frc consts  --      4.7093                 3.1581                 1.3810
 IR Inten    --     85.8874                 0.2045                24.5787

                     16                     17                     18
                      A                      A                      A
 Frequencies --   1147.3060              1233.9435              1295.1859
 Red. masses --      1.4989                 1.4095                 7.6121
 Frc consts  --      1.1625                 1.2645                 7.5235
 IR Inten    --      2.6212                 1.0261                 0.0420

                     19                     20                     21
                      A                      A                      A
 Frequencies --   1368.9360              1459.2180              1507.4488
 Red. masses --      1.2660                 2.0948                 1.9345
 Frc consts  --      1.3978                 2.6280                 2.5900
 IR Inten    --      4.8454                27.0833                21.3537

                     22                     23                     24
                      A                      A                      A
 Frequencies --   1612.0566              1622.8263              3183.2218
 Red. masses --      5.8478                 5.3748                 1.0885
 Frc consts  --      8.9537                 8.3399                 6.4986
 IR Inten    --      4.5603                11.7002                17.5296

                     25                     26                     27
                      A                      A                      A
 Frequencies --   3201.1433              3209.2501              3228.3732
 Red. masses --      1.0918                 1.0923                 1.0954
 Frc consts  --      6.5916                 6.6281                 6.7267
 IR Inten    --     10.0674                11.3252                 6.6724

 - Thermochemistry -
 -------------------
 Temperature   298.150 Kelvin.  Pressure   1.00000 Atm.
 Atom     1 has atomic number  6 and mass  12.00000

 Molecular mass:   204.93477 amu.
 Principal axes and moments of inertia in atomic units:
                           1         2         3
     Eigenvalues --   308.915792453.462282762.37807
           X            0.99994   0.01081  -0.00000
           Y           -0.01081   0.99994   0.00000
           Z            0.00000  -0.00000   1.00000
 This molecule is an asymmetric top.
 Rotational symmetry number  1.
 Rotational temperatures (Kelvin)      0.28038     0.03530     0.03135
 Rotational constants (GHZ):           5.84218     0.73559     0.65333
 Zero-point vibrational energy     206233.1 (Joules/Mol)
                                   49.29089 (Kcal/Mol)
 Warning -- explicit consideration of   6 degrees of freedom as
           vibrations may cause significant error
 Vibrational temperatures:    223.84   312.54   368.74   585.87   654.66
          (Kelvin)            889.22   999.98  1033.31  1163.92  1358.60
                             1389.42  1436.19  1449.44  1525.99  1586.80
                             1650.72  1775.37  1863.48  1969.59  2099.49
                             2168.88  2319.39  2334.89  4579.95  4605.73
                             4617.40  4644.91

 Zero-point correction=                           0.078550 (Hartree/Particle)
 Thermal correction to Energy=                    0.084323
 Thermal correction to Enthalpy=                  0.085267
 Thermal correction to Gibbs Free Energy=         0.046824
 Sum of electronic and zero-point Energies=           -258.978111
 Sum of electronic and thermal Energies=              -258.972339
 Sum of electronic and thermal Enthalpies=            -258.971395
 Sum of electronic and thermal Free Energies=         -259.009838

                     E (Thermal)             CV                S
                      KCal/Mol        Cal/Mol-Kelvin    Cal/Mol-Kelvin
 Total                   52.913             20.645             80.910
 Electronic               0.000              0.000              0.000
 Translational            0.889              2.981             41.857
 Rotational               0.889              2.981             29.128
 Vibrational             51.136             14.683              9.926
 Vibration     1          0.620              1.896              2.603
 Vibration     2          0.646              1.815              1.982
 Vibration     3          0.666              1.752              1.687
 Vibration     4          0.772              1.455              0.937
 Vibration     5          0.813              1.350              0.781
 Vibration     6          0.978              0.994              0.420

 Optimization completed.
    -- Stationary point found.

 1\1\GINC-DELLA-R4C3N5\Freq\RB3LYP\GenECP\C5H4I1N1\BJS4\27-Aug-2018\0\\
 # freq b3lyp/genecp volume NMR pop=NPA density=current Geom=AllCheck G
 uess=Read\\Title Card Required\\0,1\C,-0.7669666707,1.1546483948,0.007
 7468566\C,0.6268819134,1.1701067166,0.0654438824\H,1.1689200743,2.1129
 624861,0.1066605669\N,1.3754496227,0.0612543422,0.074038175\C,0.751168
 2765,-1.1199205622,0.024658009\C,-0.6400815483,-1.2296867286,-0.034823
 6939\C,-1.4214574857,-0.0767603708,-0.0438836501\H,-2.503894487,-0.131
 8383237,-0.0895540026\I,-1.55292636,-3.1648111514,-0.1111986134\H,-1.3

 Normal termination of Gaussian 16 at Mon Aug 27 09:48:29 2018.
 Gaussian 16:  ES64L-G16RevA.03 25-Dec-2016

 ----------------------------------------------------------------------
 # TD(NStates=10, Root=1) b3lyp/genecp volume pop=NPA density=current G
 eom=AllCheck Guess=Read
 ----------------------------------------------------------------------

 Structure from the checkpoint file:  "science_arx_153.chk"
 -------------------
 Title Card Required
 -------------------
 Charge =  0 Multiplicity = 1

                         Standard orientation:
 ---------------------------------------------------------------------
 Center     Atomic      Atomic             Coordinates (Angstroms)
 Number     Number       Type             X           Y           Z
 ---------------------------------------------------------------------
      1          6           0        2.682196    1.159127    0.000000
      2          6           0        3.299495   -0.092002   -0.000001
      3          1           0        4.384743   -0.173967   -0.000001
      4          7           0        2.623153   -1.246360    0.000000
      5          6           0        1.287300   -1.193095    0.000000
      6          6           0        0.586044    0.014962    0.000000
      7          6           0        1.287947    1.217959    0.000001
      8          1           0        0.769704    2.170961    0.000001
      9         53           0       -1.554910    0.003035   -0.000000
     10          1           0        3.275177    2.069081    0.000001
     11          1           0        0.760659   -2.144134    0.000002
 ---------------------------------------------------------------------

 SCF Done:  E(RB3LYP) =  -259.056661420     A.U. after    1 cycles

 Excitation energies and oscillator strengths:

 Excited State   1:      Singlet-A      4.6353 eV  267.48 nm  f=0.0018  <S**2>=0.000
      24 -> 25         0.70618
 This state for optimization and/or second-order correction.
 Total Energy, E(TD-HF/TD-DFT) =  -258.886316808
 Copying the excited state density for this state as the 1-particle RhoCI density.

 Excited State   2:      Singlet-A      4.8719 eV  254.49 nm  f=0.0043  <S**2>=0.000
      22 -> 26         0.16889
      23 -> 26         0.68507

 Excited State   3:      Singlet-A      5.0860 eV  243.77 nm  f=0.0252  <S**2>=0.000
      21 -> 27        -0.17076
      23 -> 25        -0.18236
      24 -> 26         0.64194

 Excited State   4:      Singlet-A      5.1479 eV  240.84 nm  f=0.0000  <S**2>=0.000
      22 -> 27         0.17305
      23 -> 27         0.68473

 Excited State   5:      Singlet-A      5.2151 eV  237.74 nm  f=0.0167  <S**2>=0.000
      22 -> 25        -0.33137
      23 -> 25         0.58107
      24 -> 26         0.14131
      24 -> 27         0.16116

 Excited State   6:      Singlet-A      5.4333 eV  228.19 nm  f=0.0005  <S**2>=0.000
      22 -> 25         0.57162
      23 -> 25         0.23132
      24 -> 27         0.33049

 Excited State   7:      Singlet-A      5.6710 eV  218.63 nm  f=0.0001  <S**2>=0.000
      22 -> 26         0.68422
      23 -> 26        -0.16834

 Excited State   8:      Singlet-A      5.7018 eV  217.45 nm  f=0.1676  <S**2>=0.000
      21 -> 26         0.25410
      22 -> 25        -0.23906
      23 -> 25        -0.24017
      24 -> 26        -0.17131
      24 -> 27         0.52459

 Excited State   9:      Singlet-A      5.7723 eV  214.79 nm  f=0.0007  <S**2>=0.000
      21 -> 25         0.70604

 Excited State  10:      Singlet-A      5.9857 eV  207.13 nm  f=0.0000  <S**2>=0.000
      22 -> 27         0.68295
      23 -> 27        -0.17247

 The electronic state is 1-A.
 Alpha  occ. eigenvalues --  -14.34299 -10.24905 -10.23532 -10.23040 -10.22217
 Alpha  occ. eigenvalues --  -10.20997  -0.95545  -0.82451  -0.78216  -0.69273
 Alpha  occ. eigenvalues --   -0.64666  -0.62132  -0.53565  -0.49881  -0.46736
 Alpha  occ. eigenvalues --   -0.42354  -0.41913  -0.41403  -0.36250  -0.31755
 Alpha  occ. eigenvalues --   -0.29113  -0.27786  -0.26489  -0.25117
 Alpha virt. eigenvalues --   -0.04157  -0.03811  -0.02556   0.10119   0.12983
 Alpha virt. eigenvalues --    0.14817   0.14855   0.16884   0.22724   0.27306
 Alpha virt. eigenvalues --    0.29337   0.30321   0.35876   0.37993   0.38345

 Mulliken charges:
               1
     1  C   -0.119700
     2  C    0.032453
     3  H    0.165413
     4  N   -0.332308
     5  C    0.066702
     6  C   -0.267457
     7  C   -0.059485
     8  H    0.154969
     9  I    0.047418
    10  H    0.147541
    11  H    0.164455
 Sum of Mulliken charges =   0.00000

 Dipole moment (field-independent basis, Debye):
    X=              2.8410    Y=              1.7356    Z=              0.0000  Tot=              3.3292
 Quadrupole moment (field-independent basis, Debye-Ang):
   XX=            -53.3998   YY=            -53.7173   ZZ=            -54.5448
   XY=              6.4121   XZ=             -0.0000   YZ=              0.0000

 Summary of Natural Population Analysis:

                                       Natural Population
                Natural  -----------------------------------------------
    Atom  No    Charge         Core      Valence    Rydberg      Total
 -----------------------------------------------------------------------
      C    1   -0.25286      1.99894     4.24054    0.01338     6.25286
      C    2    0.08521      1.99906     3.89279    0.02295     5.91479
      H    3    0.23013      0.00000     0.76852    0.00135     0.76987
      N    4   -0.46041      1.99931     5.43862    0.02248     7.46041
      C    5    0.06994      1.99887     3.90615    0.02504     5.93006
      C    6   -0.32487      1.99872     4.29627    0.02988     6.32487
      C    7   -0.19798      1.99878     4.18209    0.01710     6.19798
      H    8    0.23867      0.00000     0.75725    0.00408     0.76133
      I    9    0.14267     46.00000     6.82891    0.02843    52.85733
      H   10    0.24242      0.00000     0.75549    0.00210     0.75758
      H   11    0.22709      0.00000     0.76949    0.00342     0.77291
 =======================================================================
   * Total *    0.00000     57.99368    35.83611    0.17021    94.00000

 Normal termination of Gaussian 16 at Mon Aug 27 09:50:26 2018.
