 Gaussian 16, Revision A.03,

 --------------------------
 # opt=CalcAll B3LYP/genecp
 --------------------------

 -------------------
 Title Card Required
 -------------------
 Symbolic Z-matrix:
 Charge =  0 Multiplicity = 1

 SCF Done:  E(RB3LYP) =  -119.695897798     A.U. after   13 cycles
 SCF Done:  E(RB3LYP) =  -119.700791110     A.U. after    9 cycles
 SCF Done:  E(RB3LYP) =  -119.703746813     A.U. after   10 cycles
 SCF Done:  E(RB3LYP) =  -119.703746961     A.U. after    7 cycles
 Optimization completed.
    -- Stationary point found.
 Normal termination of Gaussian 16 at Tue Dec 10 12:53:18 2019.

 ----------------------------------------------------------------------
 # freq B3LYP/genecp volume NMR pop=NPA density=current Geom=AllCheck G
 uess=Read
 ----------------------------------------------------------------------

 Structure from the checkpoint file:  "CsF2.chk"
 -------------------
 Title Card Required
 -------------------
 Charge =  0 Multiplicity = 1

 SCF Done:  E(RB3LYP) =  -119.703746961     A.U. after    1 cycles

      1  F    Isotropic =   354.3438   Anisotropy =   198.2737

      2  Cs   Isotropic =    79.1162   Anisotropy =     3.3959

  Exact polarizability:  35.501  -0.000  35.501  -0.000   0.000  89.606
 Approx polarizability:  26.898  -0.000  26.898  -0.000  -0.000 182.642

                      1
                     SG
 Frequencies --    310.3527
 Red. masses --     21.2793
 Frc consts  --      1.2076
 IR Inten    --     27.9393

 - Thermochemistry -
 -------------------
 Temperature   298.150 Kelvin.  Pressure   1.00000 Atm.
 Atom     1 has atomic number  9 and mass  18.99840

 Molecular mass:   151.90383 amu.
 Principal axes and moments of inertia in atomic units:
                           1         2         3
     Eigenvalues --     0.00000 394.87493 394.87493
           X            0.00000  -0.00000   1.00000
           Y            0.00000   1.00000   0.00000
           Z            1.00000   0.00000   0.00000
 This molecule is a prolate symmetric top.
 Rotational symmetry number  1.
 Rotational temperature (Kelvin)      0.21935
 Rotational constant (GHZ):           4.570412
 Zero-point vibrational energy       1856.3 (Joules/Mol)
                                    0.44367 (Kcal/Mol)
 Warning -- explicit consideration of   1 degrees of freedom as
           vibrations may cause significant error
 Vibrational temperatures:    446.53
          (Kelvin)

 Zero-point correction=                           0.000707 (Hartree/Particle)
 Thermal correction to Energy=                    0.003475
 Thermal correction to Enthalpy=                  0.004419
 Thermal correction to Gibbs Free Energy=        -0.023447
 Sum of electronic and zero-point Energies=           -119.703040
 Sum of electronic and thermal Energies=              -119.700272
 Sum of electronic and thermal Enthalpies=            -119.699328
 Sum of electronic and thermal Free Energies=         -119.727194

                     E (Thermal)             CV                S
                      KCal/Mol        Cal/Mol-Kelvin    Cal/Mol-Kelvin
 Total                    2.181              6.622             58.649
 Electronic               0.000              0.000              0.000
 Translational            0.889              2.981             40.964
 Rotational               0.592              1.987             16.324
 Vibrational              0.699              1.654              1.360
 Vibration     1          0.699              1.654              1.360

 Optimization completed.
    -- Stationary point found.
 Normal termination of Gaussian 16 at Tue Dec 10 12:53:23 2019.
 Gaussian 16:  ES64L-G16RevA.03 25-Dec-2016

 ----------------------------------------------------------------------
 # TD(NStates=10, Root=1) B3LYP/genecp volume pop=NPA density=current G
 eom=AllCheck Guess=Read
 ----------------------------------------------------------------------

 Structure from the checkpoint file:  "CsF3.chk"
 -------------------
 Title Card Required
 -------------------
 Charge =  0 Multiplicity = 1

                         Standard orientation:
 ---------------------------------------------------------------------
 Center     Atomic      Atomic             Coordinates (Angstroms)
 Number     Number       Type             X           Y           Z
 ---------------------------------------------------------------------
      1          9           0        0.000000    0.000000   -2.216502
      2         55           0        0.000000    0.000000    0.362700
 ---------------------------------------------------------------------

 SCF Done:  E(RB3LYP) =  -119.703746961     A.U. after    1 cycles

 Excitation energies and oscillator strengths:

 Excited state symmetry could not be determined.
 Excited State   1:      Singlet-?Sym    1.4230 eV  871.26 nm  f=0.0140  <S**2>=0.000
       7 -> 10         0.60373
       8 -> 10         0.36689
 This state for optimization and/or second-order correction.
 Total Energy, E(TD-HF/TD-DFT) =  -119.651451034
 Copying the excited state density for this state as the 1-particle RhoCI density.

 Excited state symmetry could not be determined.
 Excited State   2:      Singlet-?Sym    1.4230 eV  871.26 nm  f=0.0140  <S**2>=0.000
       7 -> 10        -0.36689
       8 -> 10         0.60373

 Excited State   3:      Singlet-SG     1.9159 eV  647.13 nm  f=0.0832  <S**2>=0.000
       7 -> 12        -0.17158
       8 -> 11        -0.17158
       9 -> 10         0.66055

 Excited state symmetry could not be determined.
 Excited State   4:      Singlet-?Sym    2.8921 eV  428.70 nm  f=0.0455  <S**2>=0.000
       9 -> 11         0.62252
       9 -> 12        -0.32519

 Excited state symmetry could not be determined.
 Excited State   5:      Singlet-?Sym    2.8921 eV  428.70 nm  f=0.0455  <S**2>=0.000
       9 -> 11         0.32519
       9 -> 12         0.62252

 Excited state symmetry could not be determined.
 Excited State   6:      Singlet-?Sym    2.9162 eV  425.16 nm  f=0.0000  <S**2>=0.000
       7 -> 11         0.49608
       8 -> 12         0.49608

 Excited state symmetry could not be determined.
 Excited State   7:      Singlet-?Sym    2.9164 eV  425.13 nm  f=0.0000  <S**2>=0.000
       7 -> 12        -0.49607
       8 -> 11         0.49607

 Excited state symmetry could not be determined.
 Excited State   8:      Singlet-?Sym    2.9376 eV  422.06 nm  f=0.0000  <S**2>=0.000
       7 -> 11        -0.49548
       8 -> 12         0.49548

 Excited State   9:      Singlet-SG     3.3644 eV  368.52 nm  f=0.0062  <S**2>=0.000
       7 -> 12        -0.31069
       8 -> 11        -0.31069
       9 -> 13         0.53301
       9 -> 16         0.10631

 Excited state symmetry could not be determined.
 Excited State  10:      Singlet-?Sym    3.5143 eV  352.80 nm  f=0.0095  <S**2>=0.000
       8 -> 13         0.69498
       8 -> 16         0.12657

 The electronic state is 1-SG.
 Alpha  occ. eigenvalues --  -24.39641  -1.01671  -0.52500  -0.52500  -0.50633
 Alpha  occ. eigenvalues --   -0.86017  -0.13827  -0.13827  -0.13713
 Alpha virt. eigenvalues --   -0.05765  -0.00572  -0.00572   0.01633   0.04745
 Alpha virt. eigenvalues --    0.04745   0.07415   0.54262   1.38851   1.38851
 Alpha virt. eigenvalues --    1.41802   1.65595   2.06592   2.06592   2.06928

 Mulliken charges:
               1
     1  F   -0.472258
     2  Cs   0.472258
 Sum of Mulliken charges =   0.00000

 Dipole moment (field-independent basis, Debye):
    X=              0.0000    Y=             -0.0000    Z=              1.5029  Tot=              1.5029
 Quadrupole moment (field-independent basis, Debye-Ang):
   XX=            -31.6778   YY=            -31.2435   ZZ=            -48.2143
   XY=              0.4154   XZ=              0.0000   YZ=             -0.0000

 Summary of Natural Population Analysis:

                                       Natural Population
                Natural  -----------------------------------------------
    Atom  No    Charge         Core      Valence    Rydberg      Total
 -----------------------------------------------------------------------
      F    1   -0.46449      2.00000     7.46163    0.00285     9.46449
     Cs    2    0.32138     54.00706     0.60778    0.06378    54.67862
 =======================================================================
   * Total *   -0.14311     56.00706     8.06941    0.06663    64.14311

 Normal termination of Gaussian 16 at Tue Dec 10 12:53:31 2019.
