 Gaussian 16, Revision A.03,

 --------------------------
 # opt=CalcAll B3LYP/6-31G*
 --------------------------

 -------------------
 Title Card Required
 -------------------
 Symbolic Z-matrix:
 Charge =  0 Multiplicity = 1

 SCF Done:  E(RB3LYP) =  -292.398851306     A.U. after   12 cycles
 SCF Done:  E(RB3LYP) =  -292.411644767     A.U. after   11 cycles
 SCF Done:  E(RB3LYP) =  -292.414101867     A.U. after   10 cycles
 SCF Done:  E(RB3LYP) =  -292.415073015     A.U. after   11 cycles
 SCF Done:  E(RB3LYP) =  -292.415726148     A.U. after   13 cycles
 SCF Done:  E(RB3LYP) =  -292.416118710     A.U. after   10 cycles
 SCF Done:  E(RB3LYP) =  -292.416131508     A.U. after    9 cycles
 SCF Done:  E(RB3LYP) =  -292.416134722     A.U. after    6 cycles
 Optimization completed.
    -- Stationary point found.
 Normal termination of Gaussian 16 at Tue Dec 10 14:14:46 2019.

 ----------------------------------------------------------------------
 # freq B3LYP/6-31G* volume NMR pop=NPA density=current Geom=AllCheck G
 uess=Read
 ----------------------------------------------------------------------

 Structure from the checkpoint file:  "Et3N2.chk"
 -------------------
 Title Card Required
 -------------------
 Charge =  0 Multiplicity = 1

 SCF Done:  E(RB3LYP) =  -292.416134722     A.U. after    1 cycles

      1  N    Isotropic =   200.5222   Anisotropy =    11.0369

      2  C    Isotropic =   142.1023   Anisotropy =    47.1409

      3  H    Isotropic =    29.6396   Anisotropy =     5.6420

      4  H    Isotropic =    30.0840   Anisotropy =     7.0749

      5  C    Isotropic =   142.1028   Anisotropy =    47.1471

      6  H    Isotropic =    29.6385   Anisotropy =     5.6414

      7  H    Isotropic =    30.0832   Anisotropy =     7.0750

      8  C    Isotropic =   142.1071   Anisotropy =    47.1423

      9  H    Isotropic =    29.6394   Anisotropy =     5.6423

     10  H    Isotropic =    30.0839   Anisotropy =     7.0751

     11  C    Isotropic =   174.0884   Anisotropy =    22.7755

     12  H    Isotropic =    31.0136   Anisotropy =     6.5978

     13  H    Isotropic =    31.3370   Anisotropy =     9.9635

     14  H    Isotropic =    31.0989   Anisotropy =     7.8356

     15  C    Isotropic =   174.0910   Anisotropy =    22.7846

     16  H    Isotropic =    31.0135   Anisotropy =     6.5998

     17  H    Isotropic =    31.3374   Anisotropy =     9.9642

     18  H    Isotropic =    31.0984   Anisotropy =     7.8375

     19  C    Isotropic =   174.0901   Anisotropy =    22.7810

     20  H    Isotropic =    31.0140   Anisotropy =     6.5977

     21  H    Isotropic =    31.3378   Anisotropy =     9.9642

     22  H    Isotropic =    31.0989   Anisotropy =     7.8371

  Exact polarizability:  77.328  -0.000  77.327   0.000   0.000  64.626
 Approx polarizability:  97.942  -0.000  97.942   0.000   0.000  92.489

                      1                      2                      3
                      A                      A                      A
 Frequencies --     88.3176                89.0304                91.7480
 Red. masses --      1.9604                 1.9668                 2.0015
 Frc consts  --      0.0090                 0.0092                 0.0099
 IR Inten    --      0.1944                 0.1955                 0.0138

                      4                      5                      6
                      A                      A                      A
 Frequencies --    192.5414               219.5385               220.4993
 Red. masses --      1.2787                 1.1942                 1.1928
 Frc consts  --      0.0279                 0.0339                 0.0342
 IR Inten    --      0.6501                 0.0335                 0.0343

                      7                      8                      9
                      A                      A                      A
 Frequencies --    304.3799               315.1954               315.4698
 Red. masses --      1.8001                 1.9992                 2.0024
 Frc consts  --      0.0983                 0.1170                 0.1174
 IR Inten    --      1.1715                 0.3273                 0.3229

                     10                     11                     12
                      A                      A                      A
 Frequencies --    437.4657               475.1438               475.4655
 Red. masses --      2.8366                 2.5136                 2.5143
 Frc consts  --      0.3198                 0.3343                 0.3349
 IR Inten    --      3.3445                 2.2730                 2.2705

                     13                     14                     15
                      A                      A                      A
 Frequencies --    752.9313               808.6903               808.7327
 Red. masses --      2.2409                 1.1533                 1.1534
 Frc consts  --      0.7485                 0.4444                 0.4445
 IR Inten    --     11.6115                 3.6196                 3.6176

                     16                     17                     18
                      A                      A                      A
 Frequencies --    819.2877               935.8131               935.8292
 Red. masses --      1.1891                 1.9302                 1.9303
 Frc consts  --      0.4703                 0.9960                 0.9960
 IR Inten    --      0.0480                 1.3192                 1.3151

                     19                     20                     21
                      A                      A                      A
 Frequencies --   1030.4331              1093.2355              1093.3271
 Red. masses --      2.5592                 2.5890                 2.5867
 Frc consts  --      1.6010                 1.8231                 1.8218
 IR Inten    --      4.7999                28.1407                28.1123

                     22                     23                     24
                      A                      A                      A
 Frequencies --   1102.0488              1113.7122              1113.8147
 Red. masses --      1.6501                 1.6688                 1.6678
 Frc consts  --      1.1808                 1.2196                 1.2190
 IR Inten    --      3.7682                 8.3630                 8.3159

                     25                     26                     27
                      A                      A                      A
 Frequencies --   1184.7324              1249.4803              1249.5372
 Red. masses --      1.7411                 2.2343                 2.2346
 Frc consts  --      1.4399                 2.0552                 2.0557
 IR Inten    --      9.2980                20.7979                20.8015

                     28                     29                     30
                      A                      A                      A
 Frequencies --   1336.3437              1344.4455              1344.6366
 Red. masses --      1.1074                 1.2105                 1.2107
 Frc consts  --      1.1652                 1.2891                 1.2898
 IR Inten    --      2.6295                24.7988                24.8010

                     31                     32                     33
                      A                      A                      A
 Frequencies --   1414.9830              1415.0258              1428.9510
 Red. masses --      1.2917                 1.2913                 1.2449
 Frc consts  --      1.5237                 1.5234                 1.4977
 IR Inten    --      9.0116                 8.9782                 0.1559

                     34                     35                     36
                      A                      A                      A
 Frequencies --   1443.6074              1443.6590              1445.8047
 Red. masses --      1.3019                 1.3017                 1.3918
 Frc consts  --      1.5986                 1.5984                 1.7142
 IR Inten    --     18.1562                18.1720                14.0300

                     37                     38                     39
                      A                      A                      A
 Frequencies --   1515.4839              1515.5768              1516.2335
 Red. masses --      1.0556                 1.0556                 1.0563
 Frc consts  --      1.4284                 1.4286                 1.4307
 IR Inten    --      1.6701                 1.6596                 1.0948

                     40                     41                     42
                      A                      A                      A
 Frequencies --   1522.5873              1530.0258              1530.1287
 Red. masses --      1.0466                 1.0430                 1.0430
 Frc consts  --      1.4295                 1.4386                 1.4388
 IR Inten    --      1.3371                 1.2822                 1.2783

                     43                     44                     45
                      A                      A                      A
 Frequencies --   1541.3606              1541.3903              1546.6766
 Red. masses --      1.0755                 1.0754                 1.0859
 Frc consts  --      1.5055                 1.5054                 1.5306
 IR Inten    --      2.8691                 2.8741                 7.1181

                     46                     47                     48
                      A                      A                      A
 Frequencies --   2923.5854              2923.6478              2935.7876
 Red. masses --      1.0747                 1.0747                 1.0742
 Frc consts  --      5.4119                 5.4122                 5.4549
 IR Inten    --     18.6122                18.6117               203.9025

                     49                     50                     51
                      A                      A                      A
 Frequencies --   3051.2009              3051.2622              3051.5444
 Red. masses --      1.0361                 1.0360                 1.0361
 Frc consts  --      5.6830                 5.6831                 5.6846
 IR Inten    --     28.1448                28.4715                 8.6091

                     52                     53                     54
                      A                      A                      A
 Frequencies --   3087.5054              3087.7837              3090.2776
 Red. masses --      1.0889                 1.0889                 1.0844
 Frc consts  --      6.1158                 6.1167                 6.1014
 IR Inten    --     21.6852                21.2100                 0.2822

                     55                     56                     57
                      A                      A                      A
 Frequencies --   3113.8231              3117.7031              3117.7236
 Red. masses --      1.1014                 1.0993                 1.0993
 Frc consts  --      6.2919                 6.2954                 6.2956
 IR Inten    --      3.3716                64.5801                64.2766

                     58                     59                     60
                      A                      A                      A
 Frequencies --   3129.1481              3129.9047              3129.9207
 Red. masses --      1.1030                 1.1026                 1.1026
 Frc consts  --      6.3631                 6.3639                 6.3640
 IR Inten    --     60.3433                32.6284                32.6625

 - Thermochemistry -
 -------------------
 Temperature   298.150 Kelvin.  Pressure   1.00000 Atm.
 Atom     1 has atomic number  7 and mass  14.00307

 Molecular mass:   101.12045 amu.
 Principal axes and moments of inertia in atomic units:
                           1         2         3
     Eigenvalues --   787.52682 787.539011370.46735
           X            0.99945  -0.03321   0.00000
           Y            0.03321   0.99945  -0.00000
           Z           -0.00000   0.00000   1.00000
 This molecule is an asymmetric top.
 Rotational symmetry number  1.
 Warning -- assumption of classical behavior for rotation
           may cause significant error
 Rotational temperatures (Kelvin)      0.10998     0.10998     0.06320
 Rotational constants (GHZ):           2.29166     2.29162     1.31688
 Zero-point vibrational energy     543308.8 (Joules/Mol)
                                  129.85392 (Kcal/Mol)
 Warning -- explicit consideration of  12 degrees of freedom as
           vibrations may cause significant error
 Vibrational temperatures:    127.07   128.09   132.00   277.02   315.87
          (Kelvin)            317.25   437.93   453.50   453.89   629.42
                              683.63   684.09  1083.30  1163.53  1163.59
                             1178.77  1346.43  1346.45  1482.56  1572.92
                             1573.05  1585.60  1602.38  1602.53  1704.57
                             1797.72  1797.81  1922.70  1934.36  1934.63
                             2035.84  2035.91  2055.94  2077.03  2077.10
                             2080.19  2180.44  2180.58  2181.52  2190.66
                             2201.37  2201.51  2217.67  2217.72  2225.32
                             4206.39  4206.48  4223.94  4390.00  4390.09
                             4390.49  4442.23  4442.63  4446.22  4480.10
                             4485.68  4485.71  4502.15  4503.23  4503.26

 Zero-point correction=                           0.206935 (Hartree/Particle)
 Thermal correction to Energy=                    0.216362
 Thermal correction to Enthalpy=                  0.217307
 Thermal correction to Gibbs Free Energy=         0.172982
 Sum of electronic and zero-point Energies=           -292.209199
 Sum of electronic and thermal Energies=              -292.199772
 Sum of electronic and thermal Enthalpies=            -292.198828
 Sum of electronic and thermal Free Energies=         -292.243153

                     E (Thermal)             CV                S
                      KCal/Mol        Cal/Mol-Kelvin    Cal/Mol-Kelvin
 Total                  135.769             33.649             93.290
 Electronic               0.000              0.000              0.000
 Translational            0.889              2.981             39.751
 Rotational               0.889              2.981             28.232
 Vibrational            133.992             27.687             25.306
 Vibration     1          0.601              1.957              3.697
 Vibration     2          0.602              1.957              3.681
 Vibration     3          0.602              1.955              3.622
 Vibration     4          0.635              1.850              2.203
 Vibration     5          0.647              1.811              1.963
 Vibration     6          0.647              1.810              1.955
 Vibration     7          0.695              1.665              1.393
 Vibration     8          0.703              1.645              1.335
 Vibration     9          0.703              1.644              1.333
 Vibration    10          0.798              1.389              0.835
 Vibration    11          0.832              1.305              0.723
 Vibration    12          0.832              1.304              0.722

 Optimization completed.
    -- Stationary point found.
 Normal termination of Gaussian 16 at Tue Dec 10 14:17:27 2019.
 Gaussian 16:  ES64L-G16RevA.03 25-Dec-2016

 ----------------------------------------------------------------------
 # TD(NStates=10, Root=1) B3LYP/6-31G* volume pop=NPA density=current G
 eom=AllCheck Guess=Read
 ----------------------------------------------------------------------

 Structure from the checkpoint file:  "Et3N3.chk"
 -------------------
 Title Card Required
 -------------------
 Charge =  0 Multiplicity = 1

                         Standard orientation:
 ---------------------------------------------------------------------
 Center     Atomic      Atomic             Coordinates (Angstroms)
 Number     Number       Type             X           Y           Z
 ---------------------------------------------------------------------
      1          7           0       -0.000028   -0.000004    0.020197
      2          6           0        0.154464    1.396429    0.446919
      3          1           0        1.218801    1.647964    0.397702
      4          1           0       -0.142355    1.528122    1.506617
      5          6           0        1.132097   -0.831998    0.446891
      6          1           0        0.817810   -1.879524    0.397662
      7          1           0        1.394559   -0.640768    1.506586
      8          6           0       -1.286590   -0.564450    0.446934
      9          1           0       -2.036615    0.231506    0.397748
     10          1           0       -1.252167   -0.887389    1.506620
     11          6           0       -0.610619    2.381659   -0.439167
     12          1           0       -1.691942    2.206786   -0.416492
     13          1           0       -0.437421    3.410769   -0.102798
     14          1           0       -0.278594    2.292686   -1.478671
     15          6           0       -1.757276   -1.719633   -0.439177
     16          1           0       -1.065238   -2.568697   -0.416391
     17          1           0       -2.735183   -2.084104   -0.102926
     18          1           0       -1.846051   -1.387609   -1.478697
     19          6           0        2.367920   -0.662006   -0.439149
     20          1           0        2.756985    0.361945   -0.416611
     21          1           0        3.172615   -1.326391   -0.102598
     22          1           0        2.125009   -0.905271   -1.478639
 ---------------------------------------------------------------------

 SCF Done:  E(RB3LYP) =  -292.416134722     A.U. after    1 cycles

 Excitation energies and oscillator strengths:

 Excited State   1:      Singlet-A      7.0767 eV  175.20 nm  f=0.0126  <S**2>=0.000
      29 -> 30         0.70386
 This state for optimization and/or second-order correction.
 Total Energy, E(TD-HF/TD-DFT) =  -292.156069969
 Copying the excited state density for this state as the 1-particle RhoCI density.

 Excited State   2:      Singlet-A      7.5148 eV  164.99 nm  f=0.0274  <S**2>=0.000
      29 -> 31         0.70339

 Excited State   3:      Singlet-A      7.5149 eV  164.99 nm  f=0.0274  <S**2>=0.000
      29 -> 32         0.70339

 Excited State   4:      Singlet-A      8.1031 eV  153.01 nm  f=0.0941  <S**2>=0.000
      29 -> 33         0.70174

 Excited State   5:      Singlet-A      8.5682 eV  144.70 nm  f=0.0577  <S**2>=0.000
      29 -> 34         0.69258

 Excited State   6:      Singlet-A      8.5684 eV  144.70 nm  f=0.0577  <S**2>=0.000
      29 -> 35         0.69257

 Excited State   7:      Singlet-A      8.9267 eV  138.89 nm  f=0.0308  <S**2>=0.000
      29 -> 36         0.69186
      29 -> 42         0.11202

 Excited State   8:      Singlet-A      9.2426 eV  134.14 nm  f=0.0237  <S**2>=0.000
      29 -> 37         0.69580

 Excited State   9:      Singlet-A      9.2429 eV  134.14 nm  f=0.0237  <S**2>=0.000
      29 -> 38         0.69580

 Excited State  10:      Singlet-A      9.5171 eV  130.28 nm  f=0.0027  <S**2>=0.000
      29 -> 39         0.69894

 The electronic state is 1-A.
 Alpha  occ. eigenvalues --  -14.31321 -10.20091 -10.20091 -10.20090 -10.16944
 Alpha  occ. eigenvalues --  -10.16943 -10.16943  -0.90991  -0.75288  -0.75288
 Alpha  occ. eigenvalues --   -0.69977  -0.61620  -0.61620  -0.55678  -0.47064
 Alpha  occ. eigenvalues --   -0.47064  -0.44617  -0.42749  -0.42748  -0.39222
 Alpha  occ. eigenvalues --   -0.37623  -0.36849  -0.36849  -0.34704  -0.34703
 Alpha  occ. eigenvalues --   -0.34595  -0.32130  -0.32130  -0.20405
 Alpha virt. eigenvalues --    0.09208   0.10911   0.10912   0.13032   0.14879
 Alpha virt. eigenvalues --    0.14880   0.16114   0.17142   0.17143   0.18083
 Alpha virt. eigenvalues --    0.18084   0.19354   0.19902   0.22216   0.22351

 Mulliken charges:
               1
     1  N   -0.177257
     2  C   -0.086635
     3  H    0.066336
     4  H    0.138586
     5  C   -0.086645
     6  H    0.066318
     7  H    0.138578
     8  C   -0.086654
     9  H    0.066325
    10  H    0.138585
    11  C   -0.433459
    12  H    0.114513
    13  H    0.126837
    14  H    0.132926
    15  C   -0.433431
    16  H    0.114493
    17  H    0.126829
    18  H    0.132928
    19  C   -0.433446
    20  H    0.114513
    21  H    0.126837
    22  H    0.132923
 Sum of Mulliken charges =   0.00000

 Dipole moment (field-independent basis, Debye):
    X=              0.0002    Y=              0.0004    Z=              0.7715  Tot=              0.7715
 Quadrupole moment (field-independent basis, Debye-Ang):
   XX=            -52.6331   YY=            -52.6335   ZZ=            -48.3273
   XY=             -0.0000   XZ=              0.0000   YZ=              0.0001

 Summary of Natural Population Analysis:

                                       Natural Population
                Natural  -----------------------------------------------
    Atom  No    Charge         Core      Valence    Rydberg      Total
 -----------------------------------------------------------------------
      N    1   -0.03953      1.99928     5.03018    0.01006     7.03953
      C    2   -0.32020      1.99931     4.30299    0.01789     6.32020
      H    3    0.16764      0.00000     0.78813    0.04423     0.83236
      H    4    0.23544      0.00000     0.73964    0.02493     0.76456
      C    5   -0.32021      1.99931     4.30300    0.01789     6.32021
      H    6    0.16762      0.00000     0.78813    0.04424     0.83238
      H    7    0.23543      0.00000     0.73964    0.02493     0.76457
      C    8   -0.32021      1.99931     4.30300    0.01789     6.32021
      H    9    0.16763      0.00000     0.78813    0.04424     0.83237
      H   10    0.23543      0.00000     0.73964    0.02493     0.76457
      C   11   -0.70513      1.99944     4.69211    0.01359     6.70513
      H   12    0.19869      0.00000     0.78084    0.02047     0.80131
      H   13    0.21825      0.00000     0.77080    0.01095     0.78175
      H   14    0.21851      0.00000     0.77183    0.00966     0.78149
      C   15   -0.70513      1.99944     4.69210    0.01359     6.70513
      H   16    0.19868      0.00000     0.78085    0.02047     0.80132
      H   17    0.21824      0.00000     0.77081    0.01095     0.78176
      H   18    0.21851      0.00000     0.77182    0.00966     0.78149
      C   19   -0.70513      1.99944     4.69210    0.01359     6.70513
      H   20    0.19870      0.00000     0.78084    0.02046     0.80130
      H   21    0.21825      0.00000     0.77080    0.01095     0.78175
      H   22    0.21850      0.00000     0.77183    0.00967     0.78150
 =======================================================================
   * Total *   -0.00000     13.99553    43.56922    0.43525    58.00000

 Normal termination of Gaussian 16 at Tue Dec 10 14:21:42 2019.
