 Gaussian 16, Revision A.03,

 --------------------------
 # opt=CalcAll B3LYP/6-31G*
 --------------------------

 -------------------
 Title Card Required
 -------------------
 Symbolic Z-matrix:
 Charge =  0 Multiplicity = 1

 SCF Done:  E(RB3LYP) =  -675.698049567     A.U. after   14 cycles
 SCF Done:  E(RB3LYP) =  -675.704682769     A.U. after   10 cycles
 SCF Done:  E(RB3LYP) =  -675.710289225     A.U. after   10 cycles
 SCF Done:  E(RB3LYP) =  -675.712270109     A.U. after   11 cycles
 SCF Done:  E(RB3LYP) =  -675.712980739     A.U. after   10 cycles
 SCF Done:  E(RB3LYP) =  -675.713099608     A.U. after    9 cycles
 SCF Done:  E(RB3LYP) =  -675.713099840     A.U. after    8 cycles
 Optimization completed.
    -- Stationary point found.
 Normal termination of Gaussian 16 at Tue Dec 10 12:58:36 2019.

 ----------------------------------------------------------------------
 # freq B3LYP/6-31G* volume NMR pop=NPA density=current Geom=AllCheck G
 uess=Read
 ----------------------------------------------------------------------

 Structure from the checkpoint file:  "KOH2.chk"
 -------------------
 Title Card Required
 -------------------
 Charge =  0 Multiplicity = 1

 SCF Done:  E(RB3LYP) =  -675.713099840     A.U. after    1 cycles

      1  O    Isotropic =   345.9057   Anisotropy =   105.9581

      2  H    Isotropic =    36.7695   Anisotropy =    17.5703

      3  K    Isotropic =  1294.3450   Anisotropy =    53.5788

  Exact polarizability:  30.837   0.010  35.959  -0.000   0.000  30.868
 Approx polarizability:  26.519   0.008  46.631  -0.000   0.000  26.519

                      1                      2                      3
                     A'                     A'                     A'
 Frequencies --    258.8896               482.2826              3809.1790
 Red. masses --      1.1338                11.0728                 1.0678
 Frc consts  --      0.0448                 1.5174                 9.1286
 IR Inten    --     46.5746                50.4632                 9.1794

 - Thermochemistry -
 -------------------
 Temperature   298.150 Kelvin.  Pressure   1.00000 Atm.
 Atom     1 has atomic number  8 and mass  15.99491

 Molecular mass:    55.96645 amu.
 Principal axes and moments of inertia in atomic units:
                           1         2         3
     Eigenvalues --     0.00000 222.97370 222.97370
           X           -0.00001   1.00000   0.00000
           Y            1.00000   0.00001   0.00000
           Z           -0.00000  -0.00000   1.00000
 This molecule is a prolate symmetric top.
 Rotational symmetry number  1.
 Rotational temperatures (Kelvin) ************     0.38845     0.38845
 Rotational constants (GHZ):      ************     8.09396     8.09396
 Zero-point vibrational energy      27217.1 (Joules/Mol)
                                    6.50505 (Kcal/Mol)
 Warning -- explicit consideration of   2 degrees of freedom as
           vibrations may cause significant error
 Vibrational temperatures:    372.48   693.90  5480.56
          (Kelvin)

 Zero-point correction=                           0.010366 (Hartree/Particle)
 Thermal correction to Energy=                    0.013911
 Thermal correction to Enthalpy=                  0.014855
 Thermal correction to Gibbs Free Energy=        -0.005923
 Sum of electronic and zero-point Energies=           -675.702733
 Sum of electronic and thermal Energies=              -675.699189
 Sum of electronic and thermal Enthalpies=            -675.698245
 Sum of electronic and thermal Free Energies=         -675.719023

                     E (Thermal)             CV                S
                      KCal/Mol        Cal/Mol-Kelvin    Cal/Mol-Kelvin
 Total                    8.729              8.999             43.731
 Electronic               0.000              0.000              0.000
 Translational            0.889              2.981             37.988
 Rotational               0.889              2.981              3.370
 Vibrational              6.952              3.037              2.373
 Vibration     1          0.668              1.748              1.669
 Vibration     2          0.839              1.289              0.704

 Optimization completed.
    -- Stationary point found.
 Normal termination of Gaussian 16 at Tue Dec 10 12:58:43 2019.
 Gaussian 16:  ES64L-G16RevA.03 25-Dec-2016

 ----------------------------------------------------------------------
 # TD(NStates=10, Root=1) B3LYP/6-31G* volume pop=NPA density=current G
 eom=AllCheck Guess=Read
 ----------------------------------------------------------------------

 Structure from the checkpoint file:  "KOH3.chk"
 -------------------
 Title Card Required
 -------------------
 Charge =  0 Multiplicity = 1

                         Standard orientation:
 ---------------------------------------------------------------------
 Center     Atomic      Atomic             Coordinates (Angstroms)
 Number     Number       Type             X           Y           Z
 ---------------------------------------------------------------------
      1          8           0        0.000010    1.474221    0.000000
      2          1           0       -0.000261    2.438318    0.000000
      3         19           0        0.000010   -0.749057   -0.000000
 ---------------------------------------------------------------------

 SCF Done:  E(RB3LYP) =  -675.713099840     A.U. after    1 cycles

 Excitation energies and oscillator strengths:

 Excited State   1:      Singlet-A"     1.6412 eV  755.47 nm  f=0.0200  <S**2>=0.000
      14 -> 15         0.70530
 This state for optimization and/or second-order correction.
 Total Energy, E(TD-HF/TD-DFT) =  -675.652788438
 Copying the excited state density for this state as the 1-particle RhoCI density.

 Excited State   2:      Singlet-A'     1.6412 eV  755.44 nm  f=0.0200  <S**2>=0.000
      13 -> 15         0.70529

 Excited State   3:      Singlet-A'     3.0312 eV  409.02 nm  f=0.0000  <S**2>=0.000
      13 -> 17        -0.49669
      14 -> 16         0.49669

 Excited State   4:      Singlet-A"     3.0312 eV  409.02 nm  f=0.0000  <S**2>=0.000
      13 -> 16         0.49669
      14 -> 17         0.49669

 Excited State   5:      Singlet-A"     3.0834 eV  402.10 nm  f=0.0000  <S**2>=0.000
      13 -> 16         0.49672
      14 -> 17        -0.49672

 Excited State   6:      Singlet-A"     3.4583 eV  358.51 nm  f=0.0165  <S**2>=0.000
      14 -> 18         0.69133
      14 -> 19         0.13269

 Excited State   7:      Singlet-A'     3.4585 eV  358.49 nm  f=0.0165  <S**2>=0.000
      13 -> 18         0.69132
      13 -> 19         0.13277

 Excited State   8:      Singlet-A'     3.6445 eV  340.19 nm  f=0.0558  <S**2>=0.000
      13 -> 17         0.49384
      14 -> 16         0.49384

 Excited State   9:      Singlet-A"     4.2154 eV  294.12 nm  f=0.0130  <S**2>=0.000
      14 -> 18        -0.13027
      14 -> 19         0.69368

 Excited State  10:      Singlet-A'     4.2154 eV  294.12 nm  f=0.0130  <S**2>=0.000
      13 -> 18        -0.13035
      13 -> 19         0.69367

 The electronic state is 1-A'.
 Alpha  occ. eigenvalues -- -129.74825 -18.96755 -13.18463 -10.52644 -10.52644
 Alpha  occ. eigenvalues --  -10.52549  -1.35462  -0.79065  -0.72332  -0.72332
 Alpha  occ. eigenvalues --   -0.70516  -0.28893  -0.13806  -0.13806
 Alpha virt. eigenvalues --   -0.04886   0.00313   0.00313   0.01870   0.04252
 Alpha virt. eigenvalues --    0.07342   0.07342   0.10443   0.22414   0.30140
 Alpha virt. eigenvalues --    0.30140   0.33388   0.33388   0.39575   0.46109

 Mulliken charges:
               1
     1  O   -0.621718
     2  H    0.403917
     3  K    0.217801
 Sum of Mulliken charges =  -0.00000

 Dipole moment (field-independent basis, Debye):
    X=             -0.8160    Y=              5.2398    Z=              0.0000  Tot=              5.3030
 Quadrupole moment (field-independent basis, Debye-Ang):
   XX=            -25.1813   YY=            -31.9030   ZZ=            -24.0324
   XY=              2.0651   XZ=              0.0000   YZ=              0.0000

 Summary of Natural Population Analysis:

                                       Natural Population
                Natural  -----------------------------------------------
    Atom  No    Charge         Core      Valence    Rydberg      Total
 -----------------------------------------------------------------------
      O    1   -0.72192      1.99998     6.69381    0.02814     8.72192
      H    2    0.43999      0.00000     0.55994    0.00007     0.56001
      K    3    0.04295     17.99753     0.86079    0.09872    18.95705
 =======================================================================
   * Total *   -0.23898     19.99751     8.11454    0.12693    28.23898

 Normal termination of Gaussian 16 at Tue Dec 10 12:58:57 2019.
