 Gaussian 16, Revision A.03,

 ----------------------------------
 # opt=CalcAll B3LYP/6-31G* scf=xqc
 ----------------------------------

 -------------------
 Title Card Required
 -------------------
 Symbolic Z-matrix:
 Charge =  0 Multiplicity = 1

 SCF Done:  E(RB3LYP) =  -240.534817839     A.U. after   19 cycles
 SCF Done:  E(RB3LYP) =  -240.597812910     A.U. after   12 cycles
 SCF Done:  E(RB3LYP) =  -240.569054758     A.U. after   11 cycles
 SCF Done:  E(RB3LYP) =  -240.603846285     A.U. after   13 cycles
 SCF Done:  E(RB3LYP) =  -240.621948434     A.U. after   11 cycles
 SCF Done:  E(RB3LYP) =  -240.629234944     A.U. after   11 cycles
 SCF Done:  E(RB3LYP) =  -240.632263478     A.U. after   11 cycles
 SCF Done:  E(RB3LYP) =  -240.633691769     A.U. after   10 cycles
 SCF Done:  E(RB3LYP) =  -240.633625988     A.U. after   11 cycles
 SCF Done:  E(RB3LYP) =  -240.633998344     A.U. after   10 cycles
 SCF Done:  E(RB3LYP) =  -240.634133420     A.U. after   10 cycles
 SCF Done:  E(RB3LYP) =  -240.634138376     A.U. after    8 cycles
 Optimization completed.
    -- Stationary point found.
 Normal termination of Gaussian 16 at Thu Dec 26 11:09:02 2019.

 ----------------------------------------------------------------------
 # freq B3LYP/6-31G* volume NMR pop=NPA density=current Geom=AllCheck G
 uess=Read scf=xqc
 ----------------------------------------------------------------------

 Structure from the checkpoint file:  "LiOtBu2.chk"
 -------------------
 Title Card Required
 -------------------
 Charge =  0 Multiplicity = 1

 SCF Done:  E(RB3LYP) =  -240.634138376     A.U. after    1 cycles

      1  C    Isotropic =   123.9599   Anisotropy =    50.4485

      2  C    Isotropic =   154.0123   Anisotropy =    48.7711

      3  H    Isotropic =    30.9317   Anisotropy =     7.7149

      4  H    Isotropic =    31.0099   Anisotropy =     5.9409

      5  H    Isotropic =    31.0109   Anisotropy =     5.9383

      6  C    Isotropic =   154.0127   Anisotropy =    48.7511

      7  H    Isotropic =    30.9317   Anisotropy =     7.7127

      8  H    Isotropic =    31.0114   Anisotropy =     5.9372

      9  H    Isotropic =    31.0101   Anisotropy =     5.9397

     10  C    Isotropic =   154.0052   Anisotropy =    48.7691

     11  H    Isotropic =    31.0098   Anisotropy =     5.9376

     12  H    Isotropic =    31.0113   Anisotropy =     5.9390

     13  H    Isotropic =    30.9312   Anisotropy =     7.7162

     14  O    Isotropic =   229.2018   Anisotropy =   155.0891

     15  Li   Isotropic =    92.6245   Anisotropy =    22.6611

  Exact polarizability:  70.953  -0.001  56.556  -0.003  -0.000  56.557
 Approx polarizability:  89.316  -0.001  70.732  -0.003   0.000  70.735

                      1                      2                      3
                      A                      A                      A
 Frequencies --    119.3601               119.4999               227.1508
 Red. masses --      5.1211                 5.1237                 1.0116
 Frc consts  --      0.0430                 0.0431                 0.0308
 IR Inten    --     58.6327                58.6448                 0.0001

                      4                      5                      6
                      A                      A                      A
 Frequencies --    279.4092               280.1932               342.5472
 Red. masses --      1.0472                 1.0472                 2.3975
 Frc consts  --      0.0482                 0.0484                 0.1657
 IR Inten    --      0.0041                 0.0040                 4.5351

                      7                      8                      9
                      A                      A                      A
 Frequencies --    342.6285               397.5228               485.1060
 Red. masses --      2.3973                 2.3316                 3.1199
 Frc consts  --      0.1658                 0.2171                 0.4326
 IR Inten    --      4.5273                 0.6867                11.7907

                     10                     11                     12
                      A                      A                      A
 Frequencies --    485.1903               701.2633               838.4733
 Red. masses --      3.1205                 4.0522                 2.8309
 Frc consts  --      0.4328                 1.1741                 1.1726
 IR Inten    --     11.7844                12.2959                10.7679

                     13                     14                     15
                      A                      A                      A
 Frequencies --    897.0218               897.3497               958.0253
 Red. masses --      1.7325                 1.7327                 1.1969
 Frc consts  --      0.8214                 0.8221                 0.6472
 IR Inten    --      0.6133                 0.6139                 0.0000

                     16                     17                     18
                      A                      A                      A
 Frequencies --   1052.1844              1052.3086              1139.5975
 Red. masses --      1.3916                 1.3911                 2.8931
 Frc consts  --      0.9077                 0.9076                 2.2137
 IR Inten    --      0.1485                 0.1483               102.6061

                     19                     20                     21
                      A                      A                      A
 Frequencies --   1254.7951              1254.9071              1285.7036
 Red. masses --      2.7136                 2.7155                 4.4426
 Frc consts  --      2.5173                 2.5196                 4.3268
 IR Inten    --     15.9988                16.0012               301.4879

                     22                     23                     24
                      A                      A                      A
 Frequencies --   1408.7489              1408.9130              1434.9427
 Red. masses --      1.2751                 1.2750                 1.2382
 Frc consts  --      1.4910                 1.4911                 1.5021
 IR Inten    --      6.9764                 6.9891                 0.7950

                     25                     26                     27
                      A                      A                      A
 Frequencies --   1502.0731              1511.8103              1511.8978
 Red. masses --      1.0516                 1.0467                 1.0467
 Frc consts  --      1.3980                 1.4095                 1.4097
 IR Inten    --      0.0000                 0.0497                 0.0474

                     28                     29                     30
                      A                      A                      A
 Frequencies --   1524.4031              1524.5181              1541.8568
 Red. masses --      1.0574                 1.0574                 1.0555
 Frc consts  --      1.4477                 1.4480                 1.4784
 IR Inten    --      2.1373                 2.1358                 0.0951

                     31                     32                     33
                      A                      A                      A
 Frequencies --   3027.8881              3027.9279              3038.5725
 Red. masses --      1.0341                 1.0341                 1.0350
 Frc consts  --      5.5859                 5.5861                 5.6305
 IR Inten    --     40.5040                40.5094                21.2203

                     34                     35                     36
                      A                      A                      A
 Frequencies --   3094.6056              3094.6396              3100.7717
 Red. masses --      1.1019                 1.1019                 1.1040
 Frc consts  --      6.2173                 6.2174                 6.2541
 IR Inten    --      2.4749                 2.4878                 0.0129

                     37                     38                     39
                      A                      A                      A
 Frequencies --   3106.2883              3107.6945              3107.8087
 Red. masses --      1.1012                 1.1019                 1.1019
 Frc consts  --      6.2605                 6.2698                 6.2703
 IR Inten    --    130.4845                73.5814                73.4981

 - Thermochemistry -
 -------------------
 Temperature   298.150 Kelvin.  Pressure   1.00000 Atm.
 Atom     1 has atomic number  6 and mass  12.00000

 Molecular mass:    80.08134 amu.
 Principal axes and moments of inertia in atomic units:
                           1         2         3
     Eigenvalues --   398.96232 580.21857 580.22696
           X            1.00000  -0.00002   0.00013
           Y            0.00001   0.99556   0.09418
           Z           -0.00013  -0.09418   0.99556
 This molecule is an asymmetric top.
 Rotational symmetry number  1.
 Rotational temperatures (Kelvin)      0.21710     0.14928     0.14928
 Rotational constants (GHZ):           4.52359     3.11045     3.11041
 Zero-point vibrational energy     331877.6 (Joules/Mol)
                                   79.32064 (Kcal/Mol)
 Warning -- explicit consideration of  10 degrees of freedom as
           vibrations may cause significant error
 Vibrational temperatures:    171.73   171.93   326.82   402.01   403.14
          (Kelvin)            492.85   492.97   571.95   697.96   698.08
                             1008.96  1206.38  1290.61  1291.09  1378.38
                             1513.86  1514.04  1639.63  1805.37  1805.53
                             1849.84  2026.88  2027.11  2064.56  2161.15
                             2175.16  2175.28  2193.28  2193.44  2218.39
                             4356.46  4356.51  4371.83  4452.45  4452.50
                             4461.32  4469.26  4471.28  4471.44

 Zero-point correction=                           0.126405 (Hartree/Particle)
 Thermal correction to Energy=                    0.134068
 Thermal correction to Enthalpy=                  0.135012
 Thermal correction to Gibbs Free Energy=         0.095719
 Sum of electronic and zero-point Energies=           -240.507733
 Sum of electronic and thermal Energies=              -240.500070
 Sum of electronic and thermal Enthalpies=            -240.499126
 Sum of electronic and thermal Free Energies=         -240.538420

                     E (Thermal)             CV                S
                      KCal/Mol        Cal/Mol-Kelvin    Cal/Mol-Kelvin
 Total                   84.129             27.235             82.700
 Electronic               0.000              0.000              0.000
 Translational            0.889              2.981             39.056
 Rotational               0.889              2.981             26.399
 Vibrational             82.352             21.273             17.245
 Vibration     1          0.609              1.933              3.111
 Vibration     2          0.609              1.933              3.108
 Vibration     3          0.651              1.800              1.901
 Vibration     4          0.680              1.712              1.537
 Vibration     5          0.680              1.710              1.532
 Vibration     6          0.722              1.590              1.200
 Vibration     7          0.722              1.590              1.200
 Vibration     8          0.764              1.475              0.972
 Vibration     9          0.841              1.283              0.696
 Vibration    10          0.841              1.283              0.696

 Optimization completed.
    -- Stationary point found.
 Normal termination of Gaussian 16 at Thu Dec 26 11:10:51 2019.
 Gaussian 16:  ES64L-G16RevA.03 25-Dec-2016

 ----------------------------------------------------------------------
 # TD(NStates=10, Root=1) B3LYP/6-31G* volume pop=NPA density=current G
 eom=AllCheck Guess=Read scf=xqc
 ----------------------------------------------------------------------

 Structure from the checkpoint file:  "LiOtBu3.chk"
 -------------------
 Title Card Required
 -------------------
 Charge =  0 Multiplicity = 1

                         Standard orientation:
 ---------------------------------------------------------------------
 Center     Atomic      Atomic             Coordinates (Angstroms)
 Number     Number       Type             X           Y           Z
 ---------------------------------------------------------------------
      1          6           0       -0.115844    0.000028   -0.000059
      2          6           0       -0.631663   -1.070767   -0.985979
      3          1           0       -1.728124   -1.111927   -1.022403
      4          1           0       -0.260941   -0.857197   -1.995783
      5          1           0       -0.259203   -2.059081   -0.690669
      6          6           0       -0.631565    1.389485   -0.433829
      7          1           0       -1.728012    1.442214   -0.449741
      8          1           0       -0.259450    2.156785    0.255710
      9          1           0       -0.260302    1.627778   -1.437856
     10          6           0       -0.630291   -0.318853    1.420694
     11          1           0       -0.258048   -1.299690    1.740202
     12          1           0       -0.258213    0.431525    2.128639
     13          1           0       -1.726695   -0.331258    1.475443
     14          8           0        1.271353    0.000187   -0.000852
     15          3           0        2.874781   -0.000002   -0.000563
 ---------------------------------------------------------------------

 SCF Done:  E(RB3LYP) =  -240.634138376     A.U. after    1 cycles

 Excitation energies and oscillator strengths:

 Excited State   1:      Singlet-A      3.1358 eV  395.39 nm  f=0.0206  <S**2>=0.000
      22 -> 23         0.70569
 This state for optimization and/or second-order correction.
 Total Energy, E(TD-HF/TD-DFT) =  -240.518901030
 Copying the excited state density for this state as the 1-particle RhoCI density.

 Excited State   2:      Singlet-A      3.1358 eV  395.38 nm  f=0.0206  <S**2>=0.000
      21 -> 23         0.70569

 Excited State   3:      Singlet-A      4.9528 eV  250.33 nm  f=0.0007  <S**2>=0.000
      21 -> 24         0.14953
      21 -> 25         0.47484
      22 -> 24         0.47547
      22 -> 25        -0.14930

 Excited State   4:      Singlet-A      4.9529 eV  250.33 nm  f=0.0007  <S**2>=0.000
      21 -> 24        -0.47510
      21 -> 25         0.14931
      22 -> 24         0.14952
      22 -> 25         0.47521

 Excited State   5:      Singlet-A      5.0260 eV  246.69 nm  f=0.0000  <S**2>=0.000
      21 -> 24        -0.20659
      21 -> 25         0.45362
      22 -> 24        -0.45292
      22 -> 25        -0.20656

 Excited State   6:      Singlet-A      5.6105 eV  220.99 nm  f=0.2082  <S**2>=0.000
      21 -> 24         0.45049
      21 -> 25         0.20532
      22 -> 24        -0.20528
      22 -> 25         0.45046

 Excited State   7:      Singlet-A      5.9639 eV  207.89 nm  f=0.0335  <S**2>=0.000
      22 -> 26         0.70314

 Excited State   8:      Singlet-A      5.9640 eV  207.89 nm  f=0.0335  <S**2>=0.000
      21 -> 26         0.70314

 Excited State   9:      Singlet-A      6.3613 eV  194.90 nm  f=0.0000  <S**2>=0.000
      20 -> 23         0.70522

 Excited State  10:      Singlet-A      6.3617 eV  194.89 nm  f=0.0000  <S**2>=0.000
      19 -> 23         0.70522

 The electronic state is 1-A.
 Alpha  occ. eigenvalues --  -19.04796 -10.19514 -10.13705 -10.13704 -10.13703
 Alpha  occ. eigenvalues --   -1.98673  -0.90739  -0.72407  -0.64927  -0.64927
 Alpha  occ. eigenvalues --   -0.49629  -0.41200  -0.40524  -0.40523  -0.35843
 Alpha  occ. eigenvalues --   -0.35843  -0.33061  -0.32519  -0.30456  -0.30455
 Alpha  occ. eigenvalues --   -0.19801  -0.19800
 Alpha virt. eigenvalues --   -0.04718   0.02291   0.02291   0.05565   0.11938
 Alpha virt. eigenvalues --    0.14264   0.14264   0.15208   0.16881   0.18265
 Alpha virt. eigenvalues --    0.18266   0.20826   0.20826   0.22973   0.22974

 Mulliken charges:
               1
     1  C    0.287311
     2  C   -0.453885
     3  H    0.154064
     4  H    0.173113
     5  H    0.171274
     6  C   -0.455122
     7  H    0.160331
     8  H    0.174120
     9  H    0.176560
    10  C   -0.459899
    11  H    0.186969
    12  H    0.186377
    13  H    0.182997
    14  O   -0.483031
    15  Li  -0.001178
 Sum of Mulliken charges =  -0.00000

 Dipole moment (field-independent basis, Debye):
    X=             -7.9351    Y=             -0.0043    Z=              0.3311  Tot=              7.9420
 Quadrupole moment (field-independent basis, Debye-Ang):
   XX=            -71.3125   YY=            -38.7976   ZZ=            -37.4478
   XY=              0.0096   XZ=             -0.6101   YZ=             -0.5016

 Summary of Natural Population Analysis:

                                       Natural Population
                Natural  -----------------------------------------------
    Atom  No    Charge         Core      Valence    Rydberg      Total
 -----------------------------------------------------------------------
      C    1    0.25236      1.99907     3.72237    0.02620     5.74764
      C    2   -0.69585      1.99935     4.68694    0.00956     6.69585
      H    3    0.24104      0.00000     0.75865    0.00032     0.75896
      H    4    0.24585      0.00000     0.75317    0.00098     0.75415
      H    5    0.24447      0.00000     0.75419    0.00134     0.75553
      C    6   -0.68994      1.99933     4.68122    0.00939     6.68994
      H    7    0.24543      0.00000     0.75433    0.00024     0.75457
      H    8    0.24572      0.00000     0.75287    0.00141     0.75428
      H    9    0.24746      0.00000     0.75157    0.00097     0.75254
      C   10   -0.66863      1.99927     4.66068    0.00869     6.66863
      H   11    0.25196      0.00000     0.74682    0.00122     0.74804
      H   12    0.25160      0.00000     0.74711    0.00129     0.74840
      H   13    0.26134      0.00000     0.73866    0.00000     0.73866
      O   14   -0.53800      1.99987     6.50228    0.03584     8.53800
     Li   15    0.04117      1.99794     0.89476    0.06613     2.95883
 =======================================================================
   * Total *   -0.06403     11.99483    31.90563    0.16357    44.06403

 Normal termination of Gaussian 16 at Thu Dec 26 11:13:27 2019.
