 Gaussian 16, Revision A.03,

 --------------------------
 # opt=CalcAll B3LYP/6-31G*
 --------------------------

 -------------------
 Title Card Required
 -------------------
 Symbolic Z-matrix:
 Charge =  0 Multiplicity = 1

 SCF Done:  E(RB3LYP) =  -426.712958718     A.U. after   14 cycles
 SCF Done:  E(RB3LYP) =  -426.741187261     A.U. after   11 cycles
 SCF Done:  E(RB3LYP) =  -426.751358021     A.U. after   11 cycles
 SCF Done:  E(RB3LYP) =  -426.755348235     A.U. after   11 cycles
 SCF Done:  E(RB3LYP) =  -426.756043732     A.U. after   11 cycles
 SCF Done:  E(RB3LYP) =  -426.757220493     A.U. after   10 cycles
 SCF Done:  E(RB3LYP) =  -426.757407224     A.U. after   10 cycles
 SCF Done:  E(RB3LYP) =  -426.757415501     A.U. after    9 cycles
 SCF Done:  E(RB3LYP) =  -426.757416342     A.U. after    8 cycles
 Optimization completed.
    -- Stationary point found.
 Normal termination of Gaussian 16 at Tue Dec 10 13:07:23 2019.

 ----------------------------------------------------------------------
 # freq B3LYP/6-31G* volume NMR pop=NPA density=current Geom=AllCheck G
 uess=Read
 ----------------------------------------------------------------------

 Structure from the checkpoint file:  "NaHCO32.chk"
 -------------------
 Title Card Required
 -------------------
 Charge =  0 Multiplicity = 1

 SCF Done:  E(RB3LYP) =  -426.757416342     A.U. after    1 cycles

      1  Na   Isotropic =   583.4409   Anisotropy =    21.0308

      2  O    Isotropic =   123.8323   Anisotropy =   194.4061

      3  C    Isotropic =    33.7855   Anisotropy =    59.7470

      4  O    Isotropic =   114.9916   Anisotropy =   114.4278

      5  O    Isotropic =   165.7158   Anisotropy =   164.7110

      6  H    Isotropic =    27.5193   Anisotropy =     8.6353

  Exact polarizability:  36.375   1.645  27.338   0.001  -0.000  15.689
 Approx polarizability:  45.172   1.789  42.737   0.001  -0.000  20.268

                      1                      2                      3
                      A                      A                      A
 Frequencies --    109.4728               263.1609               347.3656
 Red. masses --     12.2727                12.1910                18.0035
 Frc consts  --      0.0867                 0.4974                 1.2799
 IR Inten    --     34.9725                17.1096                52.9012

                      4                      5                      6
                      A                      A                      A
 Frequencies --    577.1998               588.6751               703.4220
 Red. masses --      5.4689                 1.1011                12.7477
 Frc consts  --      1.0735                 0.2248                 3.7163
 IR Inten    --     13.3361               106.5657                10.2372

                      7                      8                      9
                      A                      A                      A
 Frequencies --    815.7591              1026.3231              1249.3320
 Red. masses --     12.3995                13.4380                 1.3446
 Frc consts  --      4.8616                 8.3397                 1.2365
 IR Inten    --     36.9989                27.3407               157.2142

                     10                     11                     12
                      A                      A                      A
 Frequencies --   1438.4992              1701.4571              3734.1485
 Red. masses --     12.9085                 6.5551                 1.0644
 Frc consts  --     15.7379                11.1808                 8.7445
 IR Inten    --    503.6547               534.2050                38.1427

 - Thermochemistry -
 -------------------
 Temperature   298.150 Kelvin.  Pressure   1.00000 Atm.
 Atom     1 has atomic number 11 and mass  22.98977

 Molecular mass:    83.98234 amu.
 Principal axes and moments of inertia in atomic units:
                           1         2         3
     Eigenvalues --   148.62192 532.78517 681.40709
           X            0.99984   0.01800   0.00000
           Y           -0.01800   0.99984   0.00000
           Z           -0.00000  -0.00000   1.00000
 This molecule is an asymmetric top.
 Rotational symmetry number  1.
 Rotational temperatures (Kelvin)      0.58278     0.16257     0.12711
 Rotational constants (GHZ):          12.14317     3.38737     2.64855
 Zero-point vibrational energy      75094.5 (Joules/Mol)
                                   17.94801 (Kcal/Mol)
 Warning -- explicit consideration of   5 degrees of freedom as
           vibrations may cause significant error
 Vibrational temperatures:    157.51   378.63   499.78   830.46   846.97
          (Kelvin)           1012.07  1173.70  1476.65  1797.51  2069.68
                             2448.02  5372.61

 Zero-point correction=                           0.028602 (Hartree/Particle)
 Thermal correction to Energy=                    0.033564
 Thermal correction to Enthalpy=                  0.034508
 Thermal correction to Gibbs Free Energy=         0.000117
 Sum of electronic and zero-point Energies=           -426.728814
 Sum of electronic and thermal Energies=              -426.723853
 Sum of electronic and thermal Enthalpies=            -426.722909
 Sum of electronic and thermal Free Energies=         -426.757300

                     E (Thermal)             CV                S
                      KCal/Mol        Cal/Mol-Kelvin    Cal/Mol-Kelvin
 Total                   21.061             15.462             72.383
 Electronic               0.000              0.000              0.000
 Translational            0.889              2.981             39.198
 Rotational               0.889              2.981             25.493
 Vibrational             19.284              9.500              7.692
 Vibration     1          0.606              1.942              3.278
 Vibration     2          0.670              1.740              1.641
 Vibration     3          0.725              1.581              1.178
 Vibration     4          0.934              1.081              0.491
 Vibration     5          0.946              1.056              0.470

 Optimization completed.
    -- Stationary point found.
 Normal termination of Gaussian 16 at Tue Dec 10 13:08:09 2019.
 Gaussian 16:  ES64L-G16RevA.03 25-Dec-2016

 ----------------------------------------------------------------------
 # TD(NStates=10, Root=1) B3LYP/6-31G* volume pop=NPA density=current G
 eom=AllCheck Guess=Read
 ----------------------------------------------------------------------

 Structure from the checkpoint file:  "NaHCO33.chk"
 -------------------
 Title Card Required
 -------------------
 Charge =  0 Multiplicity = 1

                         Standard orientation:
 ---------------------------------------------------------------------
 Center     Atomic      Atomic             Coordinates (Angstroms)
 Number     Number       Type             X           Y           Z
 ---------------------------------------------------------------------
      1         11           0       -1.882811    0.041790    0.000071
      2          8           0       -0.052298   -1.144078   -0.000083
      3          6           0        0.558494   -0.042474   -0.000037
      4          8           0        0.023016    1.113023   -0.000088
      5          8           0        1.922711   -0.098242    0.000092
      6          1           0        2.212526    0.829531    0.000068
 ---------------------------------------------------------------------

 SCF Done:  E(RB3LYP) =  -426.757416342     A.U. after    1 cycles

 Excitation energies and oscillator strengths:

 Excited State   1:      Singlet-A      3.8707 eV  320.32 nm  f=0.0010  <S**2>=0.000
      21 -> 22         0.70459
 This state for optimization and/or second-order correction.
 Total Energy, E(TD-HF/TD-DFT) =  -426.615172513
 Copying the excited state density for this state as the 1-particle RhoCI density.

 Excited State   2:      Singlet-A      4.2081 eV  294.63 nm  f=0.0000  <S**2>=0.000
      20 -> 22         0.70506

 Excited State   3:      Singlet-A      5.2499 eV  236.16 nm  f=0.1015  <S**2>=0.000
      19 -> 22         0.70152

 Excited State   4:      Singlet-A      5.4408 eV  227.88 nm  f=0.0047  <S**2>=0.000
      18 -> 22         0.70398

 Excited State   5:      Singlet-A      5.6039 eV  221.25 nm  f=0.0000  <S**2>=0.000
      21 -> 23         0.70384

 Excited State   6:      Singlet-A      5.8905 eV  210.48 nm  f=0.0004  <S**2>=0.000
      21 -> 24         0.69988

 Excited State   7:      Singlet-A      5.9989 eV  206.68 nm  f=0.0057  <S**2>=0.000
      20 -> 23         0.70459

 Excited State   8:      Singlet-A      6.1449 eV  201.77 nm  f=0.0035  <S**2>=0.000
      21 -> 25         0.70010

 Excited State   9:      Singlet-A      6.2796 eV  197.44 nm  f=0.0042  <S**2>=0.000
      20 -> 24         0.70238

 Excited State  10:      Singlet-A      6.5349 eV  189.73 nm  f=0.0003  <S**2>=0.000
      20 -> 25         0.69990

 The electronic state is 1-A.
 Alpha  occ. eigenvalues --  -38.49482 -19.14878 -19.08711 -19.08390 -10.30535
 Alpha  occ. eigenvalues --   -2.23617  -1.16938  -1.16925  -1.16682  -1.06998
 Alpha  occ. eigenvalues --   -0.96973  -0.93130  -0.56437  -0.44986  -0.42236
 Alpha  occ. eigenvalues --   -0.41599  -0.36203  -0.28267  -0.27616  -0.24342
 Alpha  occ. eigenvalues --   -0.22914
 Alpha virt. eigenvalues --   -0.05735   0.00798   0.01723   0.03042   0.07214
 Alpha virt. eigenvalues --    0.09701   0.12886   0.13324   0.14890   0.19988
 Alpha virt. eigenvalues --    0.28923   0.35589   0.35993   0.37002   0.41757

 Mulliken charges:
               1
     1  Na  -0.032952
     2  O   -0.338095
     3  C    0.840693
     4  O   -0.372314
     5  O   -0.543725
     6  H    0.446393
 Sum of Mulliken charges =  -0.00000

 Dipole moment (field-independent basis, Debye):
    X=              7.1500    Y=              1.1229    Z=             -0.0005  Tot=              7.2376
 Quadrupole moment (field-independent basis, Debye-Ang):
   XX=            -50.3433   YY=            -34.3362   ZZ=            -33.3614
   XY=              4.9474   XZ=              0.0018   YZ=              0.0001

 Summary of Natural Population Analysis:

                                       Natural Population
                Natural  -----------------------------------------------
    Atom  No    Charge         Core      Valence    Rydberg      Total
 -----------------------------------------------------------------------
     Na    1    0.03702      9.99825     0.88948    0.07525    10.96298
      O    2   -0.41318      1.99982     6.39434    0.01902     8.41318
      C    3    0.98382      1.99978     2.95328    0.06312     5.01618
      O    4   -0.46154      1.99983     6.44420    0.01751     8.46154
      O    5   -0.67855      1.99978     6.66658    0.01219     8.67855
      H    6    0.51743      0.00000     0.48257    0.00000     0.48257
 =======================================================================
   * Total *   -0.01500     17.99747    23.83044    0.18709    42.01500

 Normal termination of Gaussian 16 at Tue Dec 10 13:09:32 2019.
