 Gaussian 16, Revision A.03,

 --------------------------
 # opt=CalcAll B3LYP/6-31G*
 --------------------------

 -------------------
 Title Card Required
 -------------------
 Symbolic Z-matrix:
 Charge =  0 Multiplicity = 1

 SCF Done:  E(RB3LYP) =  -238.108829547     A.U. after   13 cycles
 SCF Done:  E(RB3LYP) =  -238.110101349     A.U. after   10 cycles
 SCF Done:  E(RB3LYP) =  -238.110188042     A.U. after    9 cycles
 SCF Done:  E(RB3LYP) =  -238.110190256     A.U. after    8 cycles
 Optimization completed.
    -- Stationary point found.
 Normal termination of Gaussian 16 at Tue Dec 10 13:10:11 2019.

 ----------------------------------------------------------------------
 # freq B3LYP/6-31G* volume NMR pop=NPA density=current Geom=AllCheck G
 uess=Read
 ----------------------------------------------------------------------

 Structure from the checkpoint file:  "NaOH2.chk"
 -------------------
 Title Card Required
 -------------------
 Charge =  0 Multiplicity = 1

 SCF Done:  E(RB3LYP) =  -238.110190256     A.U. after    1 cycles

      1  Na   Isotropic =   579.8441   Anisotropy =    72.6540

      2  O    Isotropic =   322.8799   Anisotropy =    21.7298

      3  H    Isotropic =    34.2130   Anisotropy =    14.6064

  Exact polarizability:  17.007   5.879  40.388   0.000   0.000  25.748
 Approx polarizability:  18.962   9.093  53.594   0.000  -0.000  21.593

                      1                      2                      3
                     A'                     A'                     A'
 Frequencies --    314.6120               563.2679              3790.4216
 Red. masses --      1.2922                 4.9760                 1.0674
 Frc consts  --      0.0754                 0.9302                 9.0353
 IR Inten    --    114.0877                22.5675                 5.7437

 - Thermochemistry -
 -------------------
 Temperature   298.150 Kelvin.  Pressure   1.00000 Atm.
 Atom     1 has atomic number 11 and mass  22.98977

 Molecular mass:    39.99251 amu.
 Principal axes and moments of inertia in atomic units:
                           1         2         3
     Eigenvalues --     1.94735 142.50088 144.44824
           X           -0.03375   0.99943   0.00000
           Y            0.99943   0.03375   0.00000
           Z            0.00000   0.00000   1.00000
 This molecule is an asymmetric top.
 Rotational symmetry number  1.
 Rotational temperatures (Kelvin)     44.47776     0.60781     0.59962
 Rotational constants (GHZ):         926.76609    12.66477    12.49403
 Zero-point vibrational energy      27922.6 (Joules/Mol)
                                    6.67367 (Kcal/Mol)
 Warning -- explicit consideration of   2 degrees of freedom as
           vibrations may cause significant error
 Vibrational temperatures:    452.66   810.42  5453.57
          (Kelvin)

 Zero-point correction=                           0.010635 (Hartree/Particle)
 Thermal correction to Energy=                    0.014051
 Thermal correction to Enthalpy=                  0.014995
 Thermal correction to Gibbs Free Energy=        -0.012170
 Sum of electronic and zero-point Energies=           -238.099555
 Sum of electronic and thermal Energies=              -238.096139
 Sum of electronic and thermal Enthalpies=            -238.095195
 Sum of electronic and thermal Free Energies=         -238.122361

                     E (Thermal)             CV                S
                      KCal/Mol        Cal/Mol-Kelvin    Cal/Mol-Kelvin
 Total                    8.817              8.718             57.175
 Electronic               0.000              0.000              0.000
 Translational            0.889              2.981             36.986
 Rotational               0.889              2.981             18.334
 Vibrational              7.040              2.757              1.855
 Vibration     1          0.702              1.646              1.338
 Vibration     2          0.919              1.111              0.517

 Optimization completed.
    -- Stationary point found.
 Normal termination of Gaussian 16 at Tue Dec 10 13:10:18 2019.
 Gaussian 16:  ES64L-G16RevA.03 25-Dec-2016

 ----------------------------------------------------------------------
 # TD(NStates=10, Root=1) B3LYP/6-31G* volume pop=NPA density=current G
 eom=AllCheck Guess=Read
 ----------------------------------------------------------------------

 Structure from the checkpoint file:  "NaOH3.chk"
 -------------------
 Title Card Required
 -------------------
 Charge =  0 Multiplicity = 1

                         Standard orientation:
 ---------------------------------------------------------------------
 Center     Atomic      Atomic             Coordinates (Angstroms)
 Number     Number       Type             X           Y           Z
 ---------------------------------------------------------------------
      1         11           0        0.038752   -0.918602   -0.000000
      2          8           0        0.038752    1.058572    0.000000
      3          1           0       -0.736293    1.636045   -0.000000
 ---------------------------------------------------------------------

 SCF Done:  E(RB3LYP) =  -238.110190256     A.U. after    1 cycles

 Excitation energies and oscillator strengths:

 Excited State   1:      Singlet-A"     1.9733 eV  628.31 nm  f=0.0203  <S**2>=0.000
      10 -> 11         0.70579
 This state for optimization and/or second-order correction.
 Total Energy, E(TD-HF/TD-DFT) =  -238.037672578
 Copying the excited state density for this state as the 1-particle RhoCI density.

 Excited State   2:      Singlet-A'     2.4539 eV  505.25 nm  f=0.0572  <S**2>=0.000
       9 -> 11         0.69074
      10 -> 13         0.13794

 Excited State   3:      Singlet-A"     3.8915 eV  318.60 nm  f=0.0009  <S**2>=0.000
      10 -> 12         0.70542

 Excited State   4:      Singlet-A'     4.0311 eV  307.57 nm  f=0.0152  <S**2>=0.000
       9 -> 12         0.56484
      10 -> 13        -0.42147

 Excited State   5:      Singlet-A"     4.1001 eV  302.39 nm  f=0.0131  <S**2>=0.000
       9 -> 13         0.70133

 Excited State   6:      Singlet-A"     4.4571 eV  278.17 nm  f=0.0358  <S**2>=0.000
      10 -> 14         0.69793

 Excited State   7:      Singlet-A'     4.4885 eV  276.23 nm  f=0.0554  <S**2>=0.000
       9 -> 12        -0.31331
       9 -> 14         0.48735
       9 -> 15        -0.11009
      10 -> 13        -0.38095

 Excited State   8:      Singlet-A'     4.7717 eV  259.83 nm  f=0.0665  <S**2>=0.000
       9 -> 11        -0.13180
       9 -> 12         0.26873
       9 -> 14         0.50658
      10 -> 13         0.38004

 Excited State   9:      Singlet-A"     5.7366 eV  216.13 nm  f=0.0212  <S**2>=0.000
      10 -> 15         0.70255

 Excited State  10:      Singlet-A'     5.9955 eV  206.80 nm  f=0.0047  <S**2>=0.000
       8 -> 11         0.19985
       9 -> 15         0.66844

 The electronic state is 1-A'.
 Alpha  occ. eigenvalues --  -38.46703 -19.00488  -2.21063  -1.14357  -1.14297
 Alpha  occ. eigenvalues --   -1.13974  -0.81302  -0.32145  -0.17542  -0.16892
 Alpha virt. eigenvalues --   -0.06171   0.00848   0.00992   0.03053   0.07076
 Alpha virt. eigenvalues --    0.13381   0.13617   0.19241   0.22404   0.35996
 Alpha virt. eigenvalues --    0.36110   0.39301   0.40718   0.49652   0.53118

 Mulliken charges:
               1
     1  Na   0.207888
     2  O   -0.617505
     3  H    0.409618
 Sum of Mulliken charges =  -0.00000

 Dipole moment (field-independent basis, Debye):
    X=             -1.5868    Y=              3.2441    Z=             -0.0000  Tot=              3.6114
 Quadrupole moment (field-independent basis, Debye-Ang):
   XX=            -15.6848   YY=            -24.4631   ZZ=            -14.9571
   XY=             -2.3795   XZ=             -0.0000   YZ=              0.0000

 Summary of Natural Population Analysis:

                                       Natural Population
                Natural  -----------------------------------------------
    Atom  No    Charge         Core      Valence    Rydberg      Total
 -----------------------------------------------------------------------
     Na    1    0.15447      9.99982     0.76816    0.07755    10.84553
      O    2   -0.72700      1.99997     6.69223    0.03480     8.72700
      H    3    0.43782      0.00000     0.55954    0.00265     0.56218
 =======================================================================
   * Total *   -0.13472     11.99979     8.01993    0.11499    20.13472

 Normal termination of Gaussian 16 at Tue Dec 10 13:10:29 2019.
