 Gaussian 16, Revision A.03,

 ---------------------------------
 # opt=CalcAll B3LYP/6-31G* scf=qc
 ---------------------------------

 -------------------
 Title Card Required
 -------------------
 Symbolic Z-matrix:
 Charge =  0 Multiplicity = 1

 SCF Done:  E(RB3LYP) =  -271.566142837     a.u. after    7 cycles
 SCF Done:  E(RB3LYP) =  -271.566629473     a.u. after   11 cycles
 SCF Done:  E(RB3LYP) =  -271.566637286     a.u. after    6 cycles
 SCF Done:  E(RB3LYP) =  -271.566637770     a.u. after    4 cycles
 SCF Done:  E(RB3LYP) =  -271.566637867     a.u. after    3 cycles
 SCF Done:  E(RB3LYP) =  -271.566637873     a.u. after    2 cycles
 Optimization completed.
    -- Stationary point found.
 Normal termination of Gaussian 16 at Sat Aug 22 12:51:04 2020.

 ----------------------------------------------------------------------
 # freq B3LYP/6-31G* scf=qc volume NMR pop=NPA density=current Geom=All
 Check Guess=Read
 ----------------------------------------------------------------------

 Structure from the checkpoint file:  "solvent_42.chk"
 -------------------
 Title Card Required
 -------------------
 Charge =  0 Multiplicity = 1

 SCF Done:  E(RB3LYP) =  -271.566637873     a.u. after    1 cycles

      1  C    Isotropic =   167.4734   Anisotropy =    34.4901

      2  C    Isotropic =    59.0699   Anisotropy =   179.7712

      3  C    Isotropic =    67.6767   Anisotropy =   150.7324

      4  C    Isotropic =    68.4885   Anisotropy =   164.1172

      5  C    Isotropic =    71.0861   Anisotropy =   164.3597

      6  C    Isotropic =    68.4884   Anisotropy =   164.1178

      7  C    Isotropic =    67.6771   Anisotropy =   150.7396

      8  H    Isotropic =    30.1099   Anisotropy =     7.1860

      9  H    Isotropic =    30.1094   Anisotropy =     7.1865

     10  H    Isotropic =    29.7246   Anisotropy =     8.0716

     11  H    Isotropic =    25.1395   Anisotropy =     6.5957

     12  H    Isotropic =    25.0456   Anisotropy =     4.5713

     13  H    Isotropic =    25.1684   Anisotropy =     4.1306

     14  H    Isotropic =    25.0455   Anisotropy =     4.5714

     15  H    Isotropic =    25.1394   Anisotropy =     6.5961

  Exact polarizability:  90.913  -0.000  78.842   0.201  -0.000  30.796
 Approx polarizability: 138.713  -0.001 131.861   0.122  -0.000  45.115

                      1                      2                      3
                      A                      A                      A
 Frequencies --     26.9429               210.7363               342.4962
 Red. masses --      1.0347                 3.0098                 2.5097
 Frc consts  --      0.0004                 0.0788                 0.1735
 IR Inten    --      0.2707                 1.6849                 0.2474

                      4                      5                      6
                      A                      A                      A
 Frequencies --    417.3528               477.5027               528.3366
 Red. masses --      3.0000                 2.8063                 5.0420
 Frc consts  --      0.3079                 0.3770                 0.8292
 IR Inten    --      0.0048                 5.0821                 0.6014

                      7                      8                      9
                      A                      A                      A
 Frequencies --    637.2859               711.6311               747.9376
 Red. masses --      6.3596                 2.4882                 1.3490
 Frc consts  --      1.5218                 0.7424                 0.4446
 IR Inten    --      0.0672                11.2755                39.5013

                     10                     11                     12
                      A                      A                      A
 Frequencies --    801.4987               860.6895               910.8496
 Red. masses --      4.5157                 1.2494                 1.3017
 Frc consts  --      1.7092                 0.5453                 0.6363
 IR Inten    --      0.6456                 0.0130                 0.4481

                     13                     14                     15
                      A                      A                      A
 Frequencies --    964.7193               992.5585              1012.8882
 Red. masses --      1.3475                 1.2407                 1.4390
 Frc consts  --      0.7389                 0.7202                 0.8698
 IR Inten    --      0.0017                 0.0486                 0.0000

                     16                     17                     18
                      A                      A                      A
 Frequencies --   1018.2162              1059.4518              1076.1005
 Red. masses --      6.1935                 2.2484                 1.5275
 Frc consts  --      3.7833                 1.4869                 1.0422
 IR Inten    --      0.0551                 1.9017                 9.3696

                     19                     20                     21
                      A                      A                      A
 Frequencies --   1121.9566              1191.9866              1214.6931
 Red. masses --      1.4579                 1.0984                 1.1523
 Frc consts  --      1.0813                 0.9195                 1.0018
 IR Inten    --      4.1166                 0.0660                 0.2055

                     22                     23                     24
                      A                      A                      A
 Frequencies --   1238.9190              1349.1056              1367.4986
 Red. masses --      2.9280                 3.9813                 1.5150
 Frc consts  --      2.6480                 4.2694                 1.6693
 IR Inten    --      1.0658                 0.0974                 0.0166

                     25                     26                     27
                      A                      A                      A
 Frequencies --   1442.6843              1490.7872              1518.4032
 Red. masses --      1.2449                 1.7877                 1.0488
 Frc consts  --      1.5266                 2.3409                 1.4247
 IR Inten    --      0.0132                 0.3093                 5.3120

                     28                     29                     30
                      A                      A                      A
 Frequencies --   1528.7050              1548.5990              1645.3167
 Red. masses --      1.1960                 2.2510                 5.2324
 Frc consts  --      1.6467                 3.1805                 8.3454
 IR Inten    --     10.8337                11.9485                 0.3317

                     31                     32                     33
                      A                      A                      A
 Frequencies --   1667.4575              3039.3617              3096.1732
 Red. masses --      5.5853                 1.0409                 1.0953
 Frc consts  --      9.1497                 5.6650                 6.1861
 IR Inten    --      5.9786                30.2332                22.7254

                     34                     35                     36
                      A                      A                      A
 Frequencies --   3122.8200              3171.3457              3173.0932
 Red. masses --      1.1027                 1.0855                 1.0876
 Frc consts  --      6.3357                 6.4321                 6.4516
 IR Inten    --     17.3717                10.2221                 6.7588

                     37                     38                     39
                      A                      A                      A
 Frequencies --   3185.5014              3193.9344              3206.5688
 Red. masses --      1.0898                 1.0939                 1.0978
 Frc consts  --      6.5157                 6.5746                 6.6508
 IR Inten    --      9.7073                48.4110                19.6708

 - Thermochemistry -
 -------------------
 Temperature   298.150 Kelvin.  Pressure   1.00000 Atm.
 Atom     1 has atomic number  6 and mass  12.00000

 Molecular mass:    92.06260 amu.
 Principal axes and moments of inertia in atomic units:
                           1         2         3
     Eigenvalues --   326.17278 719.531151034.46467
           X            1.00000  -0.00000   0.00038
           Y            0.00000   1.00000   0.00000
           Z           -0.00038  -0.00000   1.00000
 This molecule is an asymmetric top.
 Rotational symmetry number  1.
 Rotational temperatures (Kelvin)      0.26555     0.12038     0.08373
 Rotational constants (GHZ):           5.53308     2.50822     1.74461
 Zero-point vibrational energy     336821.2 (Joules/Mol)
                                   80.50220 (Kcal/Mol)
 Warning -- explicit consideration of   6 degrees of freedom as
           vibrations may cause significant error
 Vibrational temperatures:     38.76   303.20   492.78   600.48   687.02
          (Kelvin)            760.16   916.91  1023.88  1076.12  1153.18
                             1238.34  1310.51  1388.02  1428.07  1457.32
                             1464.99  1524.31  1548.27  1614.25  1715.00
                             1747.67  1782.53  1941.06  1967.53  2075.70
                             2144.91  2184.64  2199.47  2228.09  2367.24
                             2399.10  4372.96  4454.70  4493.04  4562.86
                             4565.37  4583.23  4595.36  4613.54

 Zero-point correction=                           0.128288 (Hartree/Particle)
 Thermal correction to Energy=                    0.134516
 Thermal correction to Enthalpy=                  0.135460
 Thermal correction to Gibbs Free Energy=         0.097357
 Sum of electronic and zero-point Energies=           -271.438349
 Sum of electronic and thermal Energies=              -271.432122
 Sum of electronic and thermal Enthalpies=            -271.431177
 Sum of electronic and thermal Free Energies=         -271.469281

                     E (Thermal)             CV                S
                      KCal/Mol        Cal/Mol-Kelvin    Cal/Mol-Kelvin
 Total                   84.410             23.162             80.196
 Electronic               0.000              0.000              0.000
 Translational            0.889              2.981             39.471
 Rotational               0.889              2.981             26.987
 Vibrational             82.633             17.200             13.738
 Vibration     1          0.593              1.984              6.043
 Vibration     2          0.643              1.824              2.037
 Vibration     3          0.722              1.591              1.200
 Vibration     4          0.780              1.433              0.901
 Vibration     5          0.834              1.300              0.717
 Vibration     6          0.883              1.187              0.591

 Optimization completed.
    -- Stationary point found.
 Normal termination of Gaussian 16 at Sat Aug 22 12:53:18 2020.
 Gaussian 16:  ES64L-G16RevA.03 25-Dec-2016

 ----------------------------------------------------------------------
 # TD(NStates=10, Root=1) B3LYP/6-31G* scf=qc volume pop=NPA density=cu
 rrent Geom=AllCheck Guess=Read
 ----------------------------------------------------------------------

 Structure from the checkpoint file:  "solvent_43.chk"
 -------------------
 Title Card Required
 -------------------
 Charge =  0 Multiplicity = 1

                         Standard orientation:
 ---------------------------------------------------------------------
 Center     Atomic      Atomic             Coordinates (Angstroms)
 Number     Number       Type             X           Y           Z
 ---------------------------------------------------------------------
      1          6           0        2.425410    0.000002    0.009181
      2          6           0        0.913906    0.000004   -0.011106
      3          6           0        0.194268    1.202380   -0.008836
      4          6           0       -1.201205    1.205414    0.002157
      5          6           0       -1.905045   -0.000003    0.008386
      6          6           0       -1.201197   -1.205418    0.002157
      7          6           0        0.194273   -1.202378   -0.008836
      8          1           0        2.833672    0.886135   -0.488676
      9          1           0        2.833677   -0.885876   -0.489129
     10          1           0        2.810381   -0.000264    1.037953
     11          1           0        0.734354    2.146914   -0.017581
     12          1           0       -1.738555    2.150452    0.001375
     13          1           0       -2.991802   -0.000006    0.013642
     14          1           0       -1.738544   -2.150458    0.001376
     15          1           0        0.734364   -2.146909   -0.017582
 ---------------------------------------------------------------------

 SCF Done:  E(RB3LYP) =  -271.566637873     a.u. after    1 cycles

 Excitation energies and oscillator strengths:

 Excited State   1:      Singlet-A      5.4349 eV  228.13 nm  f=0.0011  <S**2>=0.000
      24 -> 27        -0.46680
      25 -> 26         0.53058
 This state for optimization and/or second-order correction.
 Total Energy, E(TD-HF/TD-DFT) =  -271.366909164
 Copying the excited state density for this state as the 1-particle RhoCI density.

 Excited State   2:      Singlet-A      6.1610 eV  201.24 nm  f=0.0219  <S**2>=0.000
      24 -> 26         0.43737
      25 -> 27         0.55261

 Excited State   3:      Singlet-A      7.1584 eV  173.20 nm  f=0.4352  <S**2>=0.000
      24 -> 27         0.52594
      25 -> 26         0.46291

 Excited State   4:      Singlet-A      7.1810 eV  172.66 nm  f=0.6888  <S**2>=0.000
      24 -> 26         0.54997
      25 -> 27        -0.43424

 Excited State   5:      Singlet-A      7.8172 eV  158.60 nm  f=0.0000  <S**2>=0.000
      22 -> 26         0.36406
      23 -> 27         0.60284

 Excited State   6:      Singlet-A      7.8692 eV  157.56 nm  f=0.0026  <S**2>=0.000
      23 -> 26         0.70067

 Excited State   7:      Singlet-A      7.9317 eV  156.32 nm  f=0.0007  <S**2>=0.000
      22 -> 26         0.60293
      23 -> 27        -0.36443

 Excited State   8:      Singlet-A      7.9514 eV  155.93 nm  f=0.0042  <S**2>=0.000
      22 -> 27         0.14275
      25 -> 28         0.68599

 Excited State   9:      Singlet-A      7.9917 eV  155.14 nm  f=0.0031  <S**2>=0.000
      22 -> 27         0.68741
      25 -> 28        -0.14545

 Excited State  10:      Singlet-A      8.1502 eV  152.12 nm  f=0.0022  <S**2>=0.000
      24 -> 28         0.70001

 The electronic state is 1-A.
 Alpha  occ. eigenvalues --  -10.19279 -10.18454 -10.18446 -10.18277 -10.18193
 Alpha  occ. eigenvalues --  -10.18192 -10.18152  -0.84768  -0.76472  -0.73685
 Alpha  occ. eigenvalues --   -0.67974  -0.59808  -0.57746  -0.50484  -0.45138
 Alpha  occ. eigenvalues --   -0.45013  -0.41565  -0.41329  -0.40219  -0.38106
 Alpha  occ. eigenvalues --   -0.34742  -0.33594  -0.33329  -0.24359  -0.23535
 Alpha virt. eigenvalues --    0.00535   0.00645   0.09574   0.12186   0.13817
 Alpha virt. eigenvalues --    0.14611   0.16526   0.17425   0.18879   0.19064
 Alpha virt. eigenvalues --    0.20750   0.24002   0.31127   0.32082   0.33506

 Mulliken charges:
               1
     1  C   -0.529133
     2  C    0.175811
     3  C   -0.182652
     4  C   -0.135985
     5  C   -0.129527
     6  C   -0.135983
     7  C   -0.182652
     8  H    0.157341
     9  H    0.157344
    10  H    0.168566
    11  H    0.123170
    12  H    0.129112
    13  H    0.132305
    14  H    0.129113
    15  H    0.123168
 Sum of Mulliken charges =  -0.00000

 Dipole moment (field-independent basis, Debye):
    X=              0.3698    Y=             -0.0000    Z=              0.0501  Tot=              0.3732
 Quadrupole moment (field-independent basis, Debye-Ang):
   XX=            -37.9458   YY=            -39.0171   ZZ=            -44.8853
   XY=              0.0000   XZ=              0.0806   YZ=             -0.0000

 Summary of Natural Population Analysis:

                                       Natural Population
                Natural  -----------------------------------------------
    Atom  No    Charge         Core      Valence    Rydberg      Total
 -----------------------------------------------------------------------
      C    1   -0.69424      1.99940     4.68707    0.00776     6.69424
      C    2   -0.00856      1.99907     3.99305    0.01644     6.00856
      C    3   -0.23386      1.99907     4.21716    0.01763     6.23386
      C    4   -0.23782      1.99915     4.22003    0.01865     6.23782
      C    5   -0.21243      1.99914     4.19582    0.01748     6.21243
      C    6   -0.23781      1.99915     4.22001    0.01865     6.23781
      C    7   -0.23388      1.99907     4.21718    0.01763     6.23388
      H    8    0.23884      0.00000     0.75956    0.00161     0.76116
      H    9    0.23884      0.00000     0.75955    0.00161     0.76116
      H   10    0.24599      0.00000     0.75201    0.00200     0.75401
      H   11    0.22475      0.00000     0.77415    0.00109     0.77525
      H   12    0.22839      0.00000     0.77072    0.00090     0.77161
      H   13    0.22866      0.00000     0.77048    0.00086     0.77134
      H   14    0.22838      0.00000     0.77072    0.00090     0.77162
      H   15    0.22475      0.00000     0.77415    0.00109     0.77525
 =======================================================================
   * Total *   -0.00000     13.99405    35.88166    0.12429    50.00000

 Normal termination of Gaussian 16 at Sat Aug 22 12:56:52 2020.
