 Gaussian 16, Revision A.03,

 ---------------------------------
 # opt=CalcAll B3LYP/6-31G* scf=qc
 ---------------------------------

 -------------------
 Title Card Required
 -------------------
 Symbolic Z-matrix:
 Charge =  0 Multiplicity = 1

 SCF Done:  E(RB3LYP) =  -132.734375882     a.u. after    8 cycles
 SCF Done:  E(RB3LYP) =  -132.751662903     a.u. after    9 cycles
 SCF Done:  E(RB3LYP) =  -132.754811169     a.u. after    6 cycles
 SCF Done:  E(RB3LYP) =  -132.754928025     a.u. after    3 cycles
 SCF Done:  E(RB3LYP) =  -132.754928661     a.u. after    2 cycles
 Optimization completed.
    -- Stationary point found.

 1\1\GINC-DELLA-R4C4N7\Freq\RB3LYP\6-31G(d)\C2H3N1\BJS4\22-Aug-2020\0\\
 # opt=CalcAll B3LYP/6-31G* scf=qc\\Title Card Required\\0,1\C,0.984351
 1278,0.0329676249,0.0762645233\C,2.4457636398,0.032970278,0.0762542951
 \N,3.6060214256,0.0329752755,0.0762397512\H,0.6041674967,0.440286357,1
 .0183926015\H,0.6041680487,-0.9866002705,-0.0420394093\H,0.6041682615,
 0.645210727,-0.7475517679\\Version=ES64L-G16RevA.03\State=1-A\HF=-132.
 7549287\RMSD=7.968e-10\RMSF=1.430e-06\ZeroPoint=0.0456391\Thermal=0.04
 92337\Dipole=-1.5003161,-0.0000053,0.0000149\DipoleDeriv=0.0327883,0.0

 Normal termination of Gaussian 16 at Sat Aug 22 12:36:36 2020.

 ----------------------------------------------------------------------
 # freq B3LYP/6-31G* scf=qc volume NMR pop=NPA density=current Geom=All
 Check Guess=Read
 ----------------------------------------------------------------------

 Structure from the checkpoint file:  "solvent_32.chk"
 -------------------
 Title Card Required
 -------------------
 Charge =  0 Multiplicity = 1

 SCF Done:  E(RB3LYP) =  -132.754928661     a.u. after    1 cycles

      1  C    Isotropic =   187.8658   Anisotropy =    20.7869

      2  C    Isotropic =    86.8843   Anisotropy =   304.5537

      3  N    Isotropic =    -1.6065   Anisotropy =   470.7911

      4  H    Isotropic =    30.5840   Anisotropy =     8.5258

      5  H    Isotropic =    30.5840   Anisotropy =     8.5258

      6  H    Isotropic =    30.5842   Anisotropy =     8.5261

  Exact polarizability:  34.072   0.000  17.418  -0.000   0.000  17.418
 Approx polarizability:  56.911   0.000  22.954  -0.000   0.000  22.954

                      1                      2                      3
                      A                      A                      A
 Frequencies --    387.1712               387.1938               935.6888
 Red. masses --      3.8163                 3.8166                 4.6123
 Frc consts  --      0.3371                 0.3371                 2.3792
 IR Inten    --      0.5571                 0.5571                 1.8819

                      4                      5                      6
                      A                      A                      A
 Frequencies --   1076.8694              1076.8954              1439.2086
 Red. masses --      1.4416                 1.4416                 1.2305
 Frc consts  --      0.9850                 0.9850                 1.5017
 IR Inten    --      3.3279                 3.3276                 2.3503

                      7                      8                      9
                      A                      A                      A
 Frequencies --   1501.4444              1501.4602              2380.4362
 Red. masses --      1.0393                 1.0393                12.5505
 Frc consts  --      1.3804                 1.3804                41.9010
 IR Inten    --     10.1162                10.1170                 7.3692

                     10                     11                     12
                      A                      A                      A
 Frequencies --   3066.7689              3140.0480              3140.0710
 Red. masses --      1.0340                 1.1028                 1.1028
 Frc consts  --      5.7296                 6.4067                 6.4068
 IR Inten    --      3.2066                 1.9798                 1.9802

 - Thermochemistry -
 -------------------
 Temperature   298.150 Kelvin.  Pressure   1.00000 Atm.
 Atom     1 has atomic number  6 and mass  12.00000

 Molecular mass:    41.02655 amu.
 Principal axes and moments of inertia in atomic units:
                           1         2         3
     Eigenvalues --    11.37482 197.05129 197.05137
           X            1.00000   0.00000   0.00000
           Y           -0.00000   1.00000   0.00000
           Z           -0.00000  -0.00000   1.00000
 This molecule is an asymmetric top.
 Rotational symmetry number  1.
 Rotational temperatures (Kelvin)      7.61453     0.43955     0.43955
 Rotational constants (GHZ):         158.66105     9.15874     9.15873
 Zero-point vibrational energy     119825.5 (Joules/Mol)
                                   28.63898 (Kcal/Mol)
 Warning -- explicit consideration of   2 degrees of freedom as
           vibrations may cause significant error
 Vibrational temperatures:    557.05   557.09  1346.25  1549.37  1549.41
          (Kelvin)           2070.70  2160.24  2160.27  3424.92  4412.40
                             4517.83  4517.86

 Zero-point correction=                           0.045639 (Hartree/Particle)
 Thermal correction to Energy=                    0.049234
 Thermal correction to Enthalpy=                  0.050178
 Thermal correction to Gibbs Free Energy=         0.021623
 Sum of electronic and zero-point Energies=           -132.709290
 Sum of electronic and thermal Energies=              -132.705695
 Sum of electronic and thermal Enthalpies=            -132.704751
 Sum of electronic and thermal Free Energies=         -132.733306

                     E (Thermal)             CV                S
                      KCal/Mol        Cal/Mol-Kelvin    Cal/Mol-Kelvin
 Total                   30.895             10.255             60.099
 Electronic               0.000              0.000              0.000
 Translational            0.889              2.981             37.062
 Rotational               0.889              2.981             20.718
 Vibrational             29.117              4.294              2.319
 Vibration     1          0.756              1.498              1.011
 Vibration     2          0.756              1.498              1.011

 Optimization completed.
    -- Stationary point found.

 1\1\GINC-DELLA-R4C4N7\Freq\RB3LYP\6-31G(d)\C2H3N1\BJS4\22-Aug-2020\0\\
 # freq B3LYP/6-31G* scf=qc volume NMR pop=NPA density=current Geom=All
 Check Guess=Read\\Title Card Required\\0,1\C,0.9843511278,0.0329676233
 ,0.076264522\C,2.4457636398,0.032970278,0.0762542951\N,3.6060214256,0.
 0329752755,0.0762397512\H,0.6041674967,0.440286357,1.0183926015\H,0.60
 41680487,-0.9866002705,-0.0420394093\H,0.6041682615,0.645210727,-0.747
 5517679\\Version=ES64L-G16RevA.03\State=1-A\HF=-132.7549287\RMSD=8.066
 e-10\RMSF=1.430e-06\ZeroPoint=0.0456391\Thermal=0.0492337\Dipole=-1.50

 Normal termination of Gaussian 16 at Sat Aug 22 12:37:00 2020.
 Gaussian 16:  ES64L-G16RevA.03 25-Dec-2016

 ----------------------------------------------------------------------
 # TD(NStates=10, Root=1) B3LYP/6-31G* scf=qc volume pop=NPA density=cu
 rrent Geom=AllCheck Guess=Read
 ----------------------------------------------------------------------

 Structure from the checkpoint file:  "solvent_33.chk"
 -------------------
 Title Card Required
 -------------------
 Charge =  0 Multiplicity = 1

                         Standard orientation:
 ---------------------------------------------------------------------
 Center     Atomic      Atomic             Coordinates (Angstroms)
 Number     Number       Type             X           Y           Z
 ---------------------------------------------------------------------
      1          6           0       -1.180892    0.000001    0.000000
      2          6           0        0.280521   -0.000003    0.000001
      3          7           0        1.440779    0.000001   -0.000000
      4          1           0       -1.561083   -0.497739    0.897643
      5          1           0       -1.561077   -0.528516   -0.879876
      6          1           0       -1.561065    1.026260   -0.017770
 ---------------------------------------------------------------------

 SCF Done:  E(RB3LYP) =  -132.754928661     a.u. after    1 cycles

 Excitation energies and oscillator strengths:

 Excited State   1:      Singlet-A      7.7648 eV  159.68 nm  f=0.0000  <S**2>=0.000
      10 -> 12         0.45874
      10 -> 13         0.18944
      11 -> 12         0.18945
      11 -> 13        -0.45872
 This state for optimization and/or second-order correction.
 Total Energy, E(TD-HF/TD-DFT) =  -132.469579152
 Copying the excited state density for this state as the 1-particle RhoCI density.

 Excited State   2:      Singlet-A      8.0755 eV  153.53 nm  f=0.0025  <S**2>=0.000
      10 -> 12         0.49639
      11 -> 13         0.49640

 Excited State   3:      Singlet-A      8.0755 eV  153.53 nm  f=0.0025  <S**2>=0.000
      10 -> 13         0.49640
      11 -> 12        -0.49639

 Excited State   4:      Singlet-A      9.4131 eV  131.71 nm  f=0.0210  <S**2>=0.000
       9 -> 12         0.70359

 Excited State   5:      Singlet-A      9.4131 eV  131.71 nm  f=0.0210  <S**2>=0.000
       9 -> 13         0.70359

 Excited State   6:      Singlet-A     10.0985 eV  122.77 nm  f=0.0015  <S**2>=0.000
      11 -> 14         0.70552

 Excited State   7:      Singlet-A     10.0985 eV  122.77 nm  f=0.0015  <S**2>=0.000
      10 -> 14         0.70552

 Excited State   8:      Singlet-A     10.8774 eV  113.98 nm  f=0.1885  <S**2>=0.000
       9 -> 14         0.49292
       9 -> 17        -0.11869
      10 -> 12        -0.11821
      10 -> 13         0.28625
      10 -> 15         0.11956
      10 -> 16        -0.10086
      11 -> 12         0.28624
      11 -> 13         0.11821
      11 -> 15         0.10086
      11 -> 16         0.11957

 Excited State   9:      Singlet-A     11.3157 eV  109.57 nm  f=0.4312  <S**2>=0.000
       9 -> 14         0.49855
      10 -> 12         0.10331
      10 -> 13        -0.25016
      10 -> 15        -0.16895
      10 -> 16         0.14251
      11 -> 12        -0.25016
      11 -> 13        -0.10331
      11 -> 15        -0.14252
      11 -> 16        -0.16895

 Excited State  10:      Singlet-A     11.8888 eV  104.29 nm  f=0.0000  <S**2>=0.000
       7 -> 12         0.23377
       8 -> 13        -0.23379
      10 -> 15        -0.28105
      10 -> 16        -0.33316
      11 -> 15         0.33317
      11 -> 16        -0.28104

 The electronic state is 1-A.
 Alpha  occ. eigenvalues --  -14.33315 -10.24050 -10.23173  -0.90256  -0.77680
 Alpha  occ. eigenvalues --   -0.51685  -0.46477  -0.46477  -0.35826  -0.32642
 Alpha  occ. eigenvalues --   -0.32642
 Alpha virt. eigenvalues --    0.03664   0.03664   0.08374   0.16037   0.16037
 Alpha virt. eigenvalues --    0.18463   0.28385   0.52795   0.52795   0.57767
 Alpha virt. eigenvalues --    0.62742   0.62743   0.68086   0.78876   0.80854

 Mulliken charges:
               1
     1  C   -0.496160
     2  C    0.368349
     3  N   -0.430731
     4  H    0.186180
     5  H    0.186181
     6  H    0.186182
 Sum of Mulliken charges =   0.00000

 Dipole moment (field-independent basis, Debye):
    X=             -2.9101    Y=              0.0000    Z=             -0.0000  Tot=              2.9101
 Quadrupole moment (field-independent basis, Debye-Ang):
   XX=            -21.4370   YY=            -17.5484   ZZ=            -17.5486
   XY=             -0.0000   XZ=              0.0000   YZ=              0.0000

 Summary of Natural Population Analysis:

                                       Natural Population
                Natural  -----------------------------------------------
    Atom  No    Charge         Core      Valence    Rydberg      Total
 -----------------------------------------------------------------------
      C    1   -0.79171      1.99932     4.78361    0.00878     6.79171
      C    2    0.29837      1.99956     3.65749    0.04457     5.70163
      N    3   -0.26474      1.99970     5.22806    0.03698     7.26474
      H    4    0.25269      0.00000     0.74074    0.00657     0.74731
      H    5    0.25269      0.00000     0.74074    0.00657     0.74731
      H    6    0.25269      0.00000     0.74074    0.00657     0.74731
 =======================================================================
   * Total *   -0.00000      5.99859    15.89138    0.11004    22.00000

 Normal termination of Gaussian 16 at Sat Aug 22 12:37:45 2020.
