 Gaussian 16, Revision A.03,

 ---------------------------------
 # opt=CalcAll B3LYP/6-31G* scf=qc
 ---------------------------------

 -------------------
 Title Card Required
 -------------------
 Symbolic Z-matrix:
 Charge =  0 Multiplicity = 1

 SCF Done:  E(RB3LYP) =  -307.703923517     a.u. after    8 cycles
 SCF Done:  E(RB3LYP) =  -307.707156180     a.u. after   11 cycles
 SCF Done:  E(RB3LYP) =  -307.707232340     a.u. after    7 cycles
 SCF Done:  E(RB3LYP) =  -307.707232530     a.u. after    2 cycles
 Optimization completed.
    -- Stationary point found.

 1\1\GINC-DELLA-R4C4N5\Freq\RB3LYP\6-31G(d)\C4H8O2\BJS4\22-Aug-2020\0\\
 # opt=CalcAll B3LYP/6-31G* scf=qc\\Title Card Required\\0,1\C,1.026597
 6268,-0.4880995183,0.2728576422\C,2.5115283848,-0.270570722,0.09296454
 53\O,3.127542562,-0.4546076129,-0.9343346699\O,3.0719994645,0.16663797
 05,1.2457524182\C,4.4981164941,0.4142711853,1.2190759294\C,5.288008475
 ,-0.8581697378,1.4869426957\H,0.5919233311,-0.8238569988,-0.6691677839
 \H,0.545366192,0.4404143316,0.5969060827\H,0.8485197632,-1.2363697335,
 1.0523231702\H,4.6578016571,1.1570764347,2.0047958786\H,4.7627543264,0

 Normal termination of Gaussian 16 at Sat Aug 22 12:44:36 2020.

 ----------------------------------------------------------------------
 # freq B3LYP/6-31G* scf=qc volume NMR pop=NPA density=current Geom=All
 Check Guess=Read
 ----------------------------------------------------------------------

 Structure from the checkpoint file:  "solvent_52.chk"
 -------------------
 Title Card Required
 -------------------
 Charge =  0 Multiplicity = 1

 SCF Done:  E(RB3LYP) =  -307.707232530     a.u. after    1 cycles

      1  C    Isotropic =   169.2337   Anisotropy =    39.7915

      2  C    Isotropic =    29.1403   Anisotropy =    84.1351

      3  O    Isotropic =   -72.4903   Anisotropy =   571.7784

      4  O    Isotropic =   133.4456   Anisotropy =   144.3305

      5  C    Isotropic =   130.4245   Anisotropy =    60.4872

      6  C    Isotropic =   174.3191   Anisotropy =    22.1795

      7  H    Isotropic =    30.6813   Anisotropy =     7.2477

      8  H    Isotropic =    30.2349   Anisotropy =     6.0087

      9  H    Isotropic =    30.2493   Anisotropy =     5.7214

     10  H    Isotropic =    28.6743   Anisotropy =     6.7348

     11  H    Isotropic =    27.4512   Anisotropy =     5.1250

     12  H    Isotropic =    31.0926   Anisotropy =     7.5307

     13  H    Isotropic =    31.4211   Anisotropy =     9.2174

     14  H    Isotropic =    30.6180   Anisotropy =     6.1617

  Exact polarizability:  57.659   0.361  46.751   2.159  -0.449  39.192
 Approx polarizability:  65.904   1.896  76.201   3.052  -1.500  52.686

                      1                      2                      3
                      A                      A                      A
 Frequencies --     53.2313                82.7842               122.1235
 Red. masses --      1.1268                 2.9676                 2.8498
 Frc consts  --      0.0019                 0.0120                 0.0250
 IR Inten    --      1.2784                 1.2892                 2.2247

                      4                      5                      6
                      A                      A                      A
 Frequencies --    224.1424               314.6251               374.5059
 Red. masses --      1.1976                 2.0774                 3.1757
 Frc consts  --      0.0354                 0.1212                 0.2624
 IR Inten    --      2.9161                 7.3633                 5.2886

                      7                      8                      9
                      A                      A                      A
 Frequencies --    459.9019               606.7710               642.3487
 Red. masses --      3.0087                 2.8450                 3.8490
 Frc consts  --      0.3749                 0.6171                 0.9357
 IR Inten    --      4.8782                 6.5325                 5.5827

                     10                     11                     12
                      A                      A                      A
 Frequencies --    795.1954               857.5202               929.8588
 Red. masses --      1.3706                 2.1641                 2.7927
 Frc consts  --      0.5106                 0.9376                 1.4227
 IR Inten    --      7.9483                 6.0400                 4.8028

                     13                     14                     15
                      A                      A                      A
 Frequencies --   1016.2454              1075.2301              1080.0805
 Red. masses --      1.8739                 1.8330                 2.9719
 Frc consts  --      1.1403                 1.2486                 2.0427
 IR Inten    --      2.5636                12.3099                83.1259

                     16                     17                     18
                      A                      A                      A
 Frequencies --   1131.7559              1208.6291              1278.2408
 Red. masses --      1.9936                 1.7457                 3.3540
 Frc consts  --      1.5045                 1.5025                 3.2288
 IR Inten    --     34.7360                 2.5396               358.5258

                     19                     20                     21
                      A                      A                      A
 Frequencies --   1344.6800              1414.4495              1426.9882
 Red. masses --      1.1305                 1.2272                 1.3498
 Frc consts  --      1.2044                 1.4466                 1.6194
 IR Inten    --     18.8956                 9.0222                42.2495

                     22                     23                     24
                      A                      A                      A
 Frequencies --   1444.4530              1500.7487              1505.5096
 Red. masses --      1.3510                 1.0519                 1.0467
 Frc consts  --      1.6608                 1.3958                 1.3978
 IR Inten    --      9.1160                13.4651                 8.1620

                     25                     26                     27
                      A                      A                      A
 Frequencies --   1516.4590              1519.1120              1537.3346
 Red. masses --      1.0535                 1.0782                 1.0577
 Frc consts  --      1.4275                 1.4659                 1.4728
 IR Inten    --      7.6504                 5.2282                 6.2655

                     28                     29                     30
                      A                      A                      A
 Frequencies --   1829.3708              3059.3349              3070.9895
 Red. masses --     10.4128                 1.0361                 1.0371
 Frc consts  --     20.5316                 5.7137                 5.7625
 IR Inten    --    211.2835                16.2539                 2.6813

                     31                     32                     33
                      A                      A                      A
 Frequencies --   3091.3304              3124.9339              3133.0950
 Red. masses --      1.0590                 1.1020                 1.1006
 Frc consts  --      5.9628                 6.3405                 6.3652
 IR Inten    --     26.3934                23.1588                 6.8636

                     34                     35                     36
                      A                      A                      A
 Frequencies --   3136.2591              3155.7852              3182.2882
 Red. masses --      1.1037                 1.1077                 1.1033
 Frc consts  --      6.3961                 6.4998                 6.5830
 IR Inten    --      8.7320                29.9838                 8.0830

 - Thermochemistry -
 -------------------
 Temperature   298.150 Kelvin.  Pressure   1.00000 Atm.
 Atom     1 has atomic number  6 and mass  12.00000

 Molecular mass:    88.05243 amu.
 Principal axes and moments of inertia in atomic units:
                           1         2         3
     Eigenvalues --   245.91016 785.44213 889.16966
           X            0.99966  -0.02616   0.00197
           Y            0.02616   0.99965   0.00384
           Z           -0.00207  -0.00378   0.99999
 This molecule is an asymmetric top.
 Rotational symmetry number  1.
 Rotational temperatures (Kelvin)      0.35222     0.11027     0.09741
 Rotational constants (GHZ):           7.33903     2.29774     2.02969
 Zero-point vibrational energy     312502.3 (Joules/Mol)
                                   74.68985 (Kcal/Mol)
 Warning -- explicit consideration of   8 degrees of freedom as
           vibrations may cause significant error
 Vibrational temperatures:     76.59   119.11   175.71   322.49   452.68
          (Kelvin)            538.83   661.70   873.01   924.20  1144.11
                             1233.78  1337.86  1462.15  1547.02  1554.00
                             1628.34  1738.95  1839.10  1934.69  2035.08
                             2053.12  2078.25  2159.24  2166.09  2181.85
                             2185.66  2211.88  2632.06  4401.70  4418.47
                             4447.73  4496.08  4507.82  4512.38  4540.47
                             4578.60

 Zero-point correction=                           0.119026 (Hartree/Particle)
 Thermal correction to Energy=                    0.126343
 Thermal correction to Enthalpy=                  0.127287
 Thermal correction to Gibbs Free Energy=         0.087160
 Sum of electronic and zero-point Energies=           -307.588207
 Sum of electronic and thermal Energies=              -307.580890
 Sum of electronic and thermal Enthalpies=            -307.579945
 Sum of electronic and thermal Free Energies=         -307.620073

                     E (Thermal)             CV                S
                      KCal/Mol        Cal/Mol-Kelvin    Cal/Mol-Kelvin
 Total                   79.281             24.149             84.455
 Electronic               0.000              0.000              0.000
 Translational            0.889              2.981             39.339
 Rotational               0.889              2.981             26.643
 Vibrational             77.504             18.187             18.473
 Vibration     1          0.596              1.976              4.694
 Vibration     2          0.600              1.961              3.824
 Vibration     3          0.610              1.931              3.066
 Vibration     4          0.649              1.804              1.925
 Vibration     5          0.702              1.646              1.338
 Vibration     6          0.746              1.524              1.061
 Vibration     7          0.818              1.339              0.766
 Vibration     8          0.965              1.017              0.438

 Optimization completed.
    -- Stationary point found.

 1\1\GINC-DELLA-R4C4N5\Freq\RB3LYP\6-31G(d)\C4H8O2\BJS4\22-Aug-2020\0\\
 # freq B3LYP/6-31G* scf=qc volume NMR pop=NPA density=current Geom=All
 Check Guess=Read\\Title Card Required\\0,1\C,1.0265976268,-0.488099518
 3,0.2728576422\C,2.5115283848,-0.270570722,0.0929645453\O,3.127542562,
 -0.4546076129,-0.9343346699\O,3.0719994645,0.1666379705,1.2457524182\C
 ,4.4981164941,0.4142711853,1.2190759294\C,5.288008475,-0.8581697378,1.
 4869426957\H,0.5919233311,-0.8238569988,-0.6691677839\H,0.545366192,0.
 4404143316,0.5969060827\H,0.8485197632,-1.2363697335,1.0523231702\H,4.

 Normal termination of Gaussian 16 at Sat Aug 22 12:46:31 2020.
 Gaussian 16:  ES64L-G16RevA.03 25-Dec-2016

 ----------------------------------------------------------------------
 # TD(NStates=10, Root=1) B3LYP/6-31G* scf=qc volume pop=NPA density=cu
 rrent Geom=AllCheck Guess=Read
 ----------------------------------------------------------------------

 Structure from the checkpoint file:  "solvent_53.chk"
 -------------------
 Title Card Required
 -------------------
 Charge =  0 Multiplicity = 1

                         Standard orientation:
 ---------------------------------------------------------------------
 Center     Atomic      Atomic             Coordinates (Angstroms)
 Number     Number       Type             X           Y           Z
 ---------------------------------------------------------------------
      1          6           0        2.216982   -0.467662    0.316880
      2          6           0        0.901798    0.176099   -0.058038
      3          8           0        0.715714    1.366661   -0.186964
      4          8           0       -0.055324   -0.765190   -0.237175
      5          6           0       -1.373486   -0.287670   -0.598100
      6          6           0       -2.182564    0.093420    0.632734
      7          1           0        2.977067    0.304377    0.440617
      8          1           0        2.525788   -1.175570   -0.459158
      9          1           0        2.106155   -1.033198    1.248048
     10          1           0       -1.827780   -1.126601   -1.131417
     11          1           0       -1.267023    0.560468   -1.278899
     12          1           0       -2.249044   -0.747426    1.331059
     13          1           0       -3.199545    0.376416    0.337267
     14          1           0       -1.725111    0.944652    1.144739
 ---------------------------------------------------------------------

 SCF Done:  E(RB3LYP) =  -307.707232530     a.u. after    1 cycles

 Excitation energies and oscillator strengths:

 Excited State   1:      Singlet-A      5.8009 eV  213.73 nm  f=0.0012  <S**2>=0.000
      24 -> 25         0.70387
 This state for optimization and/or second-order correction.
 Total Energy, E(TD-HF/TD-DFT) =  -307.494052336
 Copying the excited state density for this state as the 1-particle RhoCI density.

 Excited State   2:      Singlet-A      7.9050 eV  156.84 nm  f=0.0928  <S**2>=0.000
      21 -> 25         0.10622
      23 -> 25         0.67380

 Excited State   3:      Singlet-A      8.2749 eV  149.83 nm  f=0.0003  <S**2>=0.000
      21 -> 25         0.14775
      22 -> 25         0.67605

 Excited State   4:      Singlet-A      9.2303 eV  134.32 nm  f=0.0933  <S**2>=0.000
      20 -> 25         0.13981
      21 -> 25        -0.20347
      24 -> 26         0.63665
      24 -> 27         0.13075

 Excited State   5:      Singlet-A      9.2421 eV  134.15 nm  f=0.0025  <S**2>=0.000
      20 -> 25        -0.43423
      21 -> 25         0.43927
      22 -> 25        -0.16520
      24 -> 26         0.23912

 Excited State   6:      Singlet-A      9.4433 eV  131.29 nm  f=0.0049  <S**2>=0.000
      24 -> 26        -0.13058
      24 -> 27         0.66366
      24 -> 28        -0.18331

 Excited State   7:      Singlet-A      9.6555 eV  128.41 nm  f=0.0973  <S**2>=0.000
      20 -> 25         0.43545
      21 -> 25         0.35170
      24 -> 27         0.11265
      24 -> 28         0.38184

 Excited State   8:      Singlet-A      9.8695 eV  125.62 nm  f=0.0219  <S**2>=0.000
      23 -> 26         0.66243
      23 -> 27         0.14565
      23 -> 28        -0.13693

 Excited State   9:      Singlet-A      9.9930 eV  124.07 nm  f=0.0043  <S**2>=0.000
      18 -> 25         0.34997
      19 -> 25         0.48833
      20 -> 25         0.11166
      23 -> 27         0.14069
      24 -> 28        -0.26466

 Excited State  10:      Singlet-A     10.0247 eV  123.68 nm  f=0.0076  <S**2>=0.000
      18 -> 25        -0.16827
      19 -> 25        -0.18357
      20 -> 25         0.11690
      21 -> 25         0.10796
      23 -> 26        -0.19016
      23 -> 27         0.52171
      23 -> 28        -0.24166
      24 -> 28        -0.16252

 The electronic state is 1-A.
 Alpha  occ. eigenvalues --  -19.18530 -19.13145 -10.31346 -10.24118 -10.19429
 Alpha  occ. eigenvalues --  -10.18209  -1.09420  -1.00860  -0.77998  -0.73430
 Alpha  occ. eigenvalues --   -0.64615  -0.55217  -0.49846  -0.47772  -0.46524
 Alpha  occ. eigenvalues --   -0.43251  -0.42234  -0.40629  -0.39436  -0.37091
 Alpha  occ. eigenvalues --   -0.36155  -0.33798  -0.29537  -0.26789
 Alpha virt. eigenvalues --    0.01564   0.10544   0.11541   0.13076   0.14775
 Alpha virt. eigenvalues --    0.15176   0.16638   0.17418   0.18063   0.19087
 Alpha virt. eigenvalues --    0.23139   0.23846   0.30066   0.35870   0.49455

 Mulliken charges:
               1
     1  C   -0.489711
     2  C    0.462275
     3  O   -0.303170
     4  O   -0.437464
     5  C   -0.055023
     6  C   -0.453413
     7  H    0.161050
     8  H    0.161465
     9  H    0.159790
    10  H    0.156239
    11  H    0.160442
    12  H    0.161508
    13  H    0.147454
    14  H    0.168559
 Sum of Mulliken charges =  -0.00000

 Dipole moment (field-independent basis, Debye):
    X=             -0.9384    Y=             -0.4925    Z=             -0.0565  Tot=              1.0613
 Quadrupole moment (field-independent basis, Debye-Ang):
   XX=            -31.7893   YY=            -39.1843   ZZ=            -36.3507
   XY=             -0.2712   XZ=              1.3404   YZ=              0.2106

 Summary of Natural Population Analysis:

                                       Natural Population
                Natural  -----------------------------------------------
    Atom  No    Charge         Core      Valence    Rydberg      Total
 -----------------------------------------------------------------------
      C    1   -0.71859      1.99937     4.71182    0.00741     6.71859
      C    2    0.48732      1.99952     3.47265    0.04051     5.51268
      O    3   -0.28495      1.99981     6.26497    0.02017     8.28495
      O    4   -0.52183      1.99977     6.51032    0.01175     8.52183
      C    5   -0.11202      1.99928     4.09456    0.01818     6.11202
      C    6   -0.70851      1.99945     4.70171    0.00735     6.70851
      H    7    0.24280      0.00000     0.75648    0.00071     0.75720
      H    8    0.23117      0.00000     0.76438    0.00445     0.76883
      H    9    0.22909      0.00000     0.76624    0.00467     0.77091
      H   10    0.22787      0.00000     0.77088    0.00125     0.77213
      H   11    0.21672      0.00000     0.78120    0.00208     0.78328
      H   12    0.23679      0.00000     0.76173    0.00148     0.76321
      H   13    0.23580      0.00000     0.76293    0.00127     0.76420
      H   14    0.23836      0.00000     0.75996    0.00169     0.76164
 =======================================================================
   * Total *   -0.00000     11.99721    35.87982    0.12297    48.00000

 Normal termination of Gaussian 16 at Sat Aug 22 12:49:45 2020.
