 Gaussian 16, Revision A.03,

 ---------------------------------
 # opt=CalcAll B3LYP/6-31G* scf=qc
 ---------------------------------

 -------------------
 Title Card Required
 -------------------
 Symbolic Z-matrix:
 Charge =  0 Multiplicity = 1

 SCF Done:  E(RB3LYP) =  -519.771130267     a.u. after    9 cycles
 SCF Done:  E(RB3LYP) =  -519.799253459     a.u. after   13 cycles
 SCF Done:  E(RB3LYP) =  -519.808440005     a.u. after   15 cycles
 SCF Done:  E(RB3LYP) =  -519.822297576     a.u. after   15 cycles
 SCF Done:  E(RB3LYP) =  -519.826729395     a.u. after   11 cycles
 SCF Done:  E(RB3LYP) =  -519.829245402     a.u. after   11 cycles
 SCF Done:  E(RB3LYP) =  -519.829429345     a.u. after    7 cycles
 SCF Done:  E(RB3LYP) =  -519.829434488     a.u. after    3 cycles
 SCF Done:  E(RB3LYP) =  -519.829451303     a.u. after    5 cycles
 SCF Done:  E(RB3LYP) =  -519.829452343     a.u. after    3 cycles
 SCF Done:  E(RB3LYP) =  -519.829452361     a.u. after    2 cycles
 Optimization completed.
    -- Stationary point found.
 Normal termination of Gaussian 16 at Mon Aug 24 14:42:49 2020.

 ----------------------------------------------------------------------
 # freq B3LYP/6-31G* scf=qc volume NMR pop=NPA density=current Geom=All
 Check Guess=Read
 ----------------------------------------------------------------------

 Structure from the checkpoint file:  "base_3_conf202.chk"
 -------------------
 Title Card Required
 -------------------
 Charge =  0 Multiplicity = 1

 SCF Done:  E(RB3LYP) =  -519.829452361     a.u. after    1 cycles

      1  N    Isotropic =   210.2931   Anisotropy =    59.8244

      2  C    Isotropic =    44.7806   Anisotropy =    69.4524

      3  N    Isotropic =    19.7222   Anisotropy =   285.3757

      4  C    Isotropic =   135.3676   Anisotropy =    31.4259

      5  C    Isotropic =   163.0965   Anisotropy =    32.4285

      6  C    Isotropic =   159.1510   Anisotropy =    39.1476

      7  C    Isotropic =   152.7027   Anisotropy =    46.8983

      8  N    Isotropic =   182.1504   Anisotropy =    82.9139

      9  C    Isotropic =   150.8930   Anisotropy =    45.6709

     10  C    Isotropic =   152.1224   Anisotropy =    52.2845

     11  C    Isotropic =   151.6462   Anisotropy =    54.8041

     12  C    Isotropic =   148.0078   Anisotropy =    53.5585

     13  H    Isotropic =    30.5619   Anisotropy =     6.0568

     14  H    Isotropic =    31.0880   Anisotropy =     5.7437

     15  H    Isotropic =    31.0452   Anisotropy =     7.8890

     16  H    Isotropic =    30.9933   Anisotropy =     5.7589

     17  H    Isotropic =    31.0560   Anisotropy =     8.2227

     18  H    Isotropic =    30.7493   Anisotropy =     6.9873

     19  H    Isotropic =    31.0198   Anisotropy =     6.5445

     20  H    Isotropic =    30.5396   Anisotropy =     6.6859

     21  H    Isotropic =    31.1936   Anisotropy =     8.2927

     22  H    Isotropic =    29.3339   Anisotropy =     7.1019

     23  H    Isotropic =    30.2738   Anisotropy =     9.0304

     24  H    Isotropic =    29.7959   Anisotropy =     8.3954

     25  H    Isotropic =    29.5587   Anisotropy =     4.5844

     26  H    Isotropic =    29.9835   Anisotropy =     9.2575

     27  H    Isotropic =    29.8832   Anisotropy =     9.0933

     28  H    Isotropic =    29.2316   Anisotropy =     6.8433

     29  H    Isotropic =    29.7708   Anisotropy =     9.6435

     30  H    Isotropic =    29.8844   Anisotropy =     8.3720

     31  H    Isotropic =    29.2972   Anisotropy =     6.0187

     32  H    Isotropic =    29.8058   Anisotropy =     9.4485

     33  H    Isotropic =    29.5095   Anisotropy =     7.9144

  Exact polarizability: 143.948   1.403 121.707   0.482   0.836  96.882
 Approx polarizability: 189.267   5.918 166.669   4.470   1.899 139.887

                      1                      2                      3
                      A                      A                      A
 Frequencies --     31.8273                67.1453                88.9506
 Red. masses --      2.5936                 2.7506                 2.5808
 Frc consts  --      0.0015                 0.0073                 0.0120
 IR Inten    --      0.2106                 0.4461                 2.1977

                      4                      5                      6
                      A                      A                      A
 Frequencies --    129.2154               133.8143               148.2149
 Red. masses --      1.7547                 2.1620                 2.0191
 Frc consts  --      0.0173                 0.0228                 0.0261
 IR Inten    --      2.0482                 1.3549                 0.6990

                      7                      8                      9
                      A                      A                      A
 Frequencies --    184.8312               201.7809               215.2150
 Red. masses --      1.7122                 1.2810                 1.1413
 Frc consts  --      0.0345                 0.0307                 0.0311
 IR Inten    --      0.2914                 0.5191                 0.1782

                     10                     11                     12
                      A                      A                      A
 Frequencies --    218.5081               226.3858               248.9623
 Red. masses --      1.1532                 1.5801                 1.3234
 Frc consts  --      0.0324                 0.0477                 0.0483
 IR Inten    --      0.9374                 1.0794                 2.4236

                     13                     14                     15
                      A                      A                      A
 Frequencies --    266.0959               271.3822               292.0624
 Red. masses --      1.1286                 1.9202                 1.3859
 Frc consts  --      0.0471                 0.0833                 0.0697
 IR Inten    --      1.3106                 0.8383                 3.1183

                     16                     17                     18
                      A                      A                      A
 Frequencies --    304.3094               329.7968               351.0340
 Red. masses --      2.2045                 2.7742                 2.4068
 Frc consts  --      0.1203                 0.1778                 0.1747
 IR Inten    --      4.3730                 2.8848                 1.3163

                     19                     20                     21
                      A                      A                      A
 Frequencies --    372.0237               379.4577               408.7587
 Red. masses --      2.6621                 2.4119                 2.4176
 Frc consts  --      0.2171                 0.2046                 0.2380
 IR Inten    --      5.5060                 1.4032                 1.9090

                     22                     23                     24
                      A                      A                      A
 Frequencies --    454.6256               503.9428               532.4550
 Red. masses --      2.4208                 3.5030                 3.2035
 Frc consts  --      0.2948                 0.5241                 0.5351
 IR Inten    --      0.7068                 8.1057                 0.1381

                     25                     26                     27
                      A                      A                      A
 Frequencies --    589.2112               694.2769               761.2875
 Red. masses --      3.4187                 5.2931                 7.6803
 Frc consts  --      0.6993                 1.5032                 2.6226
 IR Inten    --      9.8915                 2.2530                 9.2639

                     28                     29                     30
                      A                      A                      A
 Frequencies --    783.5644               909.8072               919.7679
 Red. masses --      3.6161                 2.3090                 2.3672
 Frc consts  --      1.3081                 1.1261                 1.1799
 IR Inten    --      1.1028                 8.5099                 5.8074

                     31                     32                     33
                      A                      A                      A
 Frequencies --    927.0616               953.3994               967.3257
 Red. masses --      1.7092                 3.0535                 1.2051
 Frc consts  --      0.8655                 1.6353                 0.6644
 IR Inten    --      0.4793                 5.8346                 0.2331

                     34                     35                     36
                      A                      A                      A
 Frequencies --   1045.2722              1056.1450              1065.6233
 Red. masses --      1.7841                 1.3961                 1.5135
 Frc consts  --      1.1485                 0.9175                 1.0126
 IR Inten    --     59.4340                 3.1441                18.5625

                     37                     38                     39
                      A                      A                      A
 Frequencies --   1081.0500              1096.9108              1131.7316
 Red. masses --      1.4306                 1.3800                 1.5477
 Frc consts  --      0.9851                 0.9783                 1.1679
 IR Inten    --     11.5201                 3.4046                83.0543

                     40                     41                     42
                      A                      A                      A
 Frequencies --   1135.6645              1149.6620              1182.1998
 Red. masses --      1.4509                 1.3527                 1.3500
 Frc consts  --      1.1025                 1.0534                 1.1116
 IR Inten    --     72.5495                32.7661                 3.4622

                     43                     44                     45
                      A                      A                      A
 Frequencies --   1184.2559              1246.4769              1248.4680
 Red. masses --      1.4161                 2.5044                 2.7358
 Frc consts  --      1.1702                 2.2926                 2.5124
 IR Inten    --     20.8527                79.1735                12.0667

                     46                     47                     48
                      A                      A                      A
 Frequencies --   1256.1638              1268.9022              1284.0493
 Red. masses --      2.8668                 4.4920                 4.9214
 Frc consts  --      2.6652                 4.2613                 4.7809
 IR Inten    --     14.1582                41.0517                18.1356

                     49                     50                     51
                      A                      A                      A
 Frequencies --   1361.3054              1396.7650              1416.9341
 Red. masses --      2.9646                 3.0563                 1.2428
 Frc consts  --      3.2369                 3.5131                 1.4701
 IR Inten    --     14.5695               206.1554                 3.5005

                     52                     53                     54
                      A                      A                      A
 Frequencies --   1419.9632              1448.5317              1460.9736
 Red. masses --      1.2393                 1.2243                 1.1540
 Frc consts  --      1.4722                 1.5135                 1.4512
 IR Inten    --      6.5770                 4.6948                 0.6056

                     55                     56                     57
                      A                      A                      A
 Frequencies --   1466.6276              1483.2337              1494.6373
 Red. masses --      1.1374                 1.1680                 1.1628
 Frc consts  --      1.4414                 1.5140                 1.5305
 IR Inten    --      2.7383                15.0283                13.8209

                     58                     59                     60
                      A                      A                      A
 Frequencies --   1503.5580              1505.1988              1509.5865
 Red. masses --      1.0581                 1.0730                 1.0572
 Frc consts  --      1.4093                 1.4323                 1.4194
 IR Inten    --      3.0693                 5.2899                 4.6160

                     61                     62                     63
                      A                      A                      A
 Frequencies --   1511.9121              1514.8527              1516.3331
 Red. masses --      1.0471                 1.0524                 1.0466
 Frc consts  --      1.4102                 1.4228                 1.4178
 IR Inten    --      0.7634                 7.8860                 0.7362

                     64                     65                     66
                      A                      A                      A
 Frequencies --   1518.9806              1529.4232              1530.7240
 Red. masses --      1.0656                 1.0537                 1.0553
 Frc consts  --      1.4486                 1.4522                 1.4568
 IR Inten    --      8.2261                11.1461                 7.1267

                     67                     68                     69
                      A                      A                      A
 Frequencies --   1532.5254              1542.1487              1545.6532
 Red. masses --      1.0560                 1.0552                 1.0546
 Frc consts  --      1.4612                 1.4786                 1.4845
 IR Inten    --      2.0776                10.0154                11.0725

                     70                     71                     72
                      A                      A                      A
 Frequencies --   1550.5355              1566.2859              1702.2365
 Red. masses --      1.0767                 1.1167                 9.2290
 Frc consts  --      1.5251                 1.6141                15.7560
 IR Inten    --      6.8321                30.5419               472.1748

                     73                     74                     75
                      A                      A                      A
 Frequencies --   2977.6001              2984.0144              2988.7549
 Red. masses --      1.0497                 1.0557                 1.0574
 Frc consts  --      5.4836                 5.5387                 5.5653
 IR Inten    --     39.8845               129.7604               103.7422

                     76                     77                     78
                      A                      A                      A
 Frequencies --   3015.9045              3025.4667              3033.8968
 Red. masses --      1.0490                 1.0905                 1.0906
 Frc consts  --      5.6216                 5.8809                 5.9142
 IR Inten    --     79.6941                63.2727                35.9816

                     79                     80                     81
                      A                      A                      A
 Frequencies --   3041.6424              3047.7705              3055.0888
 Red. masses --      1.0357                 1.0376                 1.0387
 Frc consts  --      5.6457                 5.6786                 5.7119
 IR Inten    --     23.1729                29.1325                36.2149

                     82                     83                     84
                      A                      A                      A
 Frequencies --   3078.3301              3081.7783              3104.8654
 Red. masses --      1.0852                 1.0916                 1.1015
 Frc consts  --      6.0587                 6.1083                 6.2563
 IR Inten    --     27.0813                64.9728                 1.5135

                     85                     86                     87
                      A                      A                      A
 Frequencies --   3110.6856              3116.9779              3126.3808
 Red. masses --      1.1010                 1.1007                 1.1027
 Frc consts  --      6.2769                 6.3005                 6.3502
 IR Inten    --     29.0488                82.1531                15.0647

                     88                     89                     90
                      A                      A                      A
 Frequencies --   3130.3704              3154.6932              3163.3266
 Red. masses --      1.1019                 1.0964                 1.0940
 Frc consts  --      6.3618                 6.4291                 6.4498
 IR Inten    --     49.6211                29.9641                 9.0058

                     91                     92                     93
                      A                      A                      A
 Frequencies --   3167.7264              3168.4207              3170.2466
 Red. masses --      1.0968                 1.0947                 1.0924
 Frc consts  --      6.4843                 6.4748                 6.4686
 IR Inten    --     13.4751                20.0683                 8.4854

 - Thermochemistry -
 -------------------
 Temperature   298.150 Kelvin.  Pressure   1.00000 Atm.
 Atom     1 has atomic number  7 and mass  14.00307

 Molecular mass:   171.17355 amu.
 Principal axes and moments of inertia in atomic units:
                           1         2         3
     Eigenvalues --  1507.518252533.452903285.56873
           X            1.00000   0.00073  -0.00244
           Y           -0.00074   0.99999  -0.00428
           Z            0.00244   0.00428   0.99999
 This molecule is an asymmetric top.
 Rotational symmetry number  1.
 Warning -- assumption of classical behavior for rotation
           may cause significant error
 Rotational temperatures (Kelvin)      0.05745     0.03419     0.02636
 Rotational constants (GHZ):           1.19716     0.71236     0.54929
 Zero-point vibrational energy     789965.6 (Joules/Mol)
                                  188.80632 (Kcal/Mol)
 Warning -- explicit consideration of  25 degrees of freedom as
           vibrations may cause significant error
 Vibrational temperatures:     45.79    96.61   127.98   185.91   192.53
          (Kelvin)            213.25   265.93   290.32   309.65   314.38
                              325.72   358.20   382.85   390.46   420.21
                              437.83   474.50   505.06   535.26   545.96
                              588.11   654.10   725.06   766.08   847.74
                              998.91  1095.32  1127.37  1309.01  1323.34
                             1333.83  1371.73  1391.77  1503.91  1519.56
                             1533.19  1555.39  1578.21  1628.31  1633.97
                             1654.11  1700.92  1703.88  1793.40  1796.27
                             1807.34  1825.67  1847.46  1958.61  2009.63
                             2038.65  2043.01  2084.11  2102.02  2110.15
                             2134.04  2150.45  2163.28  2165.65  2171.96
                             2175.30  2179.54  2181.67  2185.47  2200.50
                             2202.37  2204.96  2218.81  2223.85  2230.87
                             2253.54  2449.14  4284.10  4293.33  4300.15
                             4339.21  4352.97  4365.10  4376.25  4385.06
                             4395.59  4429.03  4433.99  4467.21  4475.58
                             4484.64  4498.16  4503.90  4538.90  4551.32
                             4557.65  4558.65  4561.28

 Zero-point correction=                           0.300882 (Hartree/Particle)
 Thermal correction to Energy=                    0.316644
 Thermal correction to Enthalpy=                  0.317588
 Thermal correction to Gibbs Free Energy=         0.259213
 Sum of electronic and zero-point Energies=           -519.528570
 Sum of electronic and thermal Energies=              -519.512808
 Sum of electronic and thermal Enthalpies=            -519.511864
 Sum of electronic and thermal Free Energies=         -519.570240

                     E (Thermal)             CV                S
                      KCal/Mol        Cal/Mol-Kelvin    Cal/Mol-Kelvin
 Total                  198.697             57.740            122.862
 Electronic               0.000              0.000              0.000
 Translational            0.889              2.981             41.320
 Rotational               0.889              2.981             30.907
 Vibrational            196.920             51.778             50.635
 Vibration     1          0.594              1.983              5.712
 Vibration     2          0.598              1.970              4.235
 Vibration     3          0.602              1.957              3.683
 Vibration     4          0.612              1.924              2.958
 Vibration     5          0.613              1.920              2.890
 Vibration     6          0.618              1.905              2.695
 Vibration     7          0.631              1.861              2.279
 Vibration     8          0.639              1.837              2.117
 Vibration     9          0.645              1.818              1.999
 Vibration    10          0.646              1.813              1.971
 Vibration    11          0.650              1.801              1.907
 Vibration    12          0.662              1.764              1.738
 Vibration    13          0.672              1.735              1.621
 Vibration    14          0.675              1.726              1.587
 Vibration    15          0.687              1.689              1.462
 Vibration    16          0.695              1.666              1.393
 Vibration    17          0.713              1.616              1.261
 Vibration    18          0.728              1.573              1.162
 Vibration    19          0.744              1.530              1.071
 Vibration    20          0.749              1.514              1.041
 Vibration    21          0.773              1.451              0.931
 Vibration    22          0.813              1.351              0.782
 Vibration    23          0.859              1.241              0.648
 Vibration    24          0.887              1.178              0.582
 Vibration    25          0.946              1.055              0.469

 Optimization completed.
    -- Stationary point found.
 Normal termination of Gaussian 16 at Mon Aug 24 14:48:28 2020.
 Gaussian 16:  ES64L-G16RevA.03 25-Dec-2016

 ----------------------------------------------------------------------
 # TD(NStates=10, Root=1) B3LYP/6-31G* scf=qc volume pop=NPA density=cu
 rrent Geom=AllCheck Guess=Read
 ----------------------------------------------------------------------

 Structure from the checkpoint file:  "base_3_conf203.chk"
 -------------------
 Title Card Required
 -------------------
 Charge =  0 Multiplicity = 1

                         Standard orientation:
 ---------------------------------------------------------------------
 Center     Atomic      Atomic             Coordinates (Angstroms)
 Number     Number       Type             X           Y           Z
 ---------------------------------------------------------------------
      1          7           0        0.845157    1.214578    0.137696
      2          6           0        0.568729   -0.158475   -0.029901
      3          7           0       -0.561635   -0.724324   -0.241514
      4          6           0       -1.910625   -0.200651    0.003578
      5          6           0       -2.024097    0.949248    1.028032
      6          6           0       -2.558836    0.206200   -1.336937
      7          6           0       -2.696455   -1.410984    0.562621
      8          7           0        1.707718   -0.975577    0.093720
      9          6           0        1.483729   -2.407809    0.226579
     10          6           0        2.888952   -0.652548   -0.699791
     11          6           0        1.762671    1.690061    1.155406
     12          6           0        0.486286    2.182298   -0.877857
     13          1           0       -1.611517    1.891655    0.662674
     14          1           0       -1.508320    0.689802    1.959478
     15          1           0       -3.080639    1.121607    1.267347
     16          1           0       -2.101714    1.108703   -1.755189
     17          1           0       -3.628387    0.407968   -1.202318
     18          1           0       -2.449824   -0.601749   -2.068077
     19          1           0       -2.272444   -1.731566    1.521148
     20          1           0       -2.632707   -2.254413   -0.132004
     21          1           0       -3.752870   -1.160824    0.719895
     22          1           0        0.675983   -2.587656    0.936551
     23          1           0        2.406091   -2.873782    0.593213
     24          1           0        1.202415   -2.880047   -0.726949
     25          1           0        2.987386    0.427024   -0.817393
     26          1           0        2.839952   -1.104264   -1.705136
     27          1           0        3.790183   -1.030432   -0.202710
     28          1           0        1.991866    0.880061    1.849100
     29          1           0        1.304880    2.517373    1.717694
     30          1           0        2.711535    2.063674    0.733782
     31          1           0       -0.080191    1.693806   -1.671082
     32          1           0        1.388627    2.630798   -1.327640
     33          1           0       -0.121109    3.005476   -0.472077
 ---------------------------------------------------------------------

 SCF Done:  E(RB3LYP) =  -519.829452361     a.u. after    1 cycles

 Excitation energies and oscillator strengths:

 Excited State   1:      Singlet-A      5.4516 eV  227.43 nm  f=0.0042  <S**2>=0.000
      46 -> 49         0.30901
      47 -> 49         0.51871
      48 -> 49         0.36041
 This state for optimization and/or second-order correction.
 Total Energy, E(TD-HF/TD-DFT) =  -519.629110679
 Copying the excited state density for this state as the 1-particle RhoCI density.

 Excited State   2:      Singlet-A      5.9976 eV  206.72 nm  f=0.1131  <S**2>=0.000
      46 -> 49         0.57300
      48 -> 49        -0.39157

 Excited State   3:      Singlet-A      6.2847 eV  197.28 nm  f=0.2789  <S**2>=0.000
      46 -> 49        -0.25432
      47 -> 49         0.45920
      48 -> 49        -0.44134

 Excited State   4:      Singlet-A      6.4984 eV  190.79 nm  f=0.0068  <S**2>=0.000
      47 -> 50         0.10237
      48 -> 50         0.68372

 Excited State   5:      Singlet-A      6.9201 eV  179.17 nm  f=0.0290  <S**2>=0.000
      46 -> 50        -0.24423
      47 -> 50         0.64067
      48 -> 50        -0.12537

 Excited State   6:      Singlet-A      7.0578 eV  175.67 nm  f=0.0037  <S**2>=0.000
      46 -> 50         0.64303
      47 -> 50         0.26138

 Excited State   7:      Singlet-A      7.4160 eV  167.18 nm  f=0.0078  <S**2>=0.000
      48 -> 51         0.68247
      48 -> 53        -0.11770

 Excited State   8:      Singlet-A      7.6922 eV  161.18 nm  f=0.0148  <S**2>=0.000
      48 -> 52         0.68150

 Excited State   9:      Singlet-A      7.8210 eV  158.53 nm  f=0.0223  <S**2>=0.000
      47 -> 51         0.67154

 Excited State  10:      Singlet-A      7.9409 eV  156.13 nm  f=0.0095  <S**2>=0.000
      46 -> 51         0.58580
      46 -> 52         0.12968
      47 -> 52        -0.13604
      47 -> 53         0.10836
      48 -> 51         0.10683
      48 -> 53         0.27322

 The electronic state is 1-A.
 Alpha  occ. eigenvalues --  -14.33742 -14.33696 -14.27856 -10.26424 -10.21164
 Alpha  occ. eigenvalues --  -10.20867 -10.20858 -10.20809 -10.19422 -10.16070
 Alpha  occ. eigenvalues --  -10.15853 -10.15374  -0.96890  -0.89944  -0.86533
 Alpha  occ. eigenvalues --   -0.77042  -0.71590  -0.70449  -0.68210  -0.67181
 Alpha  occ. eigenvalues --   -0.66538  -0.63323  -0.56682  -0.52425  -0.50149
 Alpha  occ. eigenvalues --   -0.47227  -0.46454  -0.45260  -0.44299  -0.43262
 Alpha  occ. eigenvalues --   -0.42363  -0.41918  -0.40387  -0.39514  -0.38972
 Alpha  occ. eigenvalues --   -0.38245  -0.37734  -0.37449  -0.37225  -0.36392
 Alpha  occ. eigenvalues --   -0.35384  -0.34810  -0.32836  -0.31471  -0.29727
 Alpha  occ. eigenvalues --   -0.22026  -0.21459  -0.20160
 Alpha virt. eigenvalues --    0.04029   0.07085   0.10339   0.11255   0.12770
 Alpha virt. eigenvalues --    0.13209   0.13952   0.14386   0.15222   0.15692
 Alpha virt. eigenvalues --    0.16177   0.16815   0.17107   0.17445   0.18034

 Mulliken charges:
               1
     1  N   -0.398670
     2  C    0.525252
     3  N   -0.425522
     4  C    0.189150
     5  C   -0.441556
     6  C   -0.426070
     7  C   -0.432071
     8  N   -0.405459
     9  C   -0.296461
    10  C   -0.293793
    11  C   -0.300356
    12  C   -0.307245
    13  H    0.160000
    14  H    0.156988
    15  H    0.145306
    16  H    0.136492
    17  H    0.125521
    18  H    0.146015
    19  H    0.144891
    20  H    0.147214
    21  H    0.129683
    22  H    0.159782
    23  H    0.140109
    24  H    0.122879
    25  H    0.152090
    26  H    0.113164
    27  H    0.135123
    28  H    0.180827
    29  H    0.134884
    30  H    0.139286
    31  H    0.174938
    32  H    0.129735
    33  H    0.137870
 Sum of Mulliken charges =  -0.00000

 Dipole moment (field-independent basis, Debye):
    X=             -0.0427    Y=              1.1412    Z=              0.3624  Tot=              1.1981
 Quadrupole moment (field-independent basis, Debye-Ang):
   XX=            -74.9265   YY=            -74.9277   ZZ=            -77.9267
   XY=              0.2942   XZ=             -0.3599   YZ=             -0.3638

 Summary of Natural Population Analysis:

                                       Natural Population
                Natural  -----------------------------------------------
    Atom  No    Charge         Core      Valence    Rydberg      Total
 -----------------------------------------------------------------------
      N    1   -0.45652      1.99935     5.44458    0.01258     7.45652
      C    2    0.37821      1.99913     3.58838    0.03428     5.62179
      N    3   -0.33340      1.99898     5.31527    0.01914     7.33340
      C    4    0.09788      1.99908     3.88404    0.01901     5.90212
      C    5   -0.66112      1.99931     4.65234    0.00947     6.66112
      C    6   -0.67640      1.99935     4.66658    0.01047     6.67640
      C    7   -0.66529      1.99935     4.65562    0.01032     6.66529
      N    8   -0.49703      1.99939     5.48377    0.01386     7.49703
      C    9   -0.46742      1.99949     4.45528    0.01265     6.46742
      C   10   -0.46049      1.99946     4.44880    0.01223     6.46049
      C   11   -0.46965      1.99946     4.45744    0.01275     6.46965
      C   12   -0.46580      1.99946     4.45405    0.01230     6.46580
      H   13    0.23573      0.00000     0.76319    0.00107     0.76427
      H   14    0.24186      0.00000     0.75709    0.00105     0.75814
      H   15    0.23711      0.00000     0.76152    0.00137     0.76289
      H   16    0.22196      0.00000     0.77712    0.00092     0.77804
      H   17    0.22114      0.00000     0.77709    0.00177     0.77886
      H   18    0.23745      0.00000     0.76112    0.00143     0.76255
      H   19    0.23363      0.00000     0.76517    0.00120     0.76637
      H   20    0.23511      0.00000     0.76368    0.00121     0.76489
      H   21    0.22188      0.00000     0.77655    0.00158     0.77812
      H   22    0.23466      0.00000     0.76446    0.00088     0.76534
      H   23    0.22152      0.00000     0.77751    0.00097     0.77848
      H   24    0.19239      0.00000     0.80292    0.00469     0.80761
      H   25    0.22286      0.00000     0.77625    0.00090     0.77714
      H   26    0.18700      0.00000     0.80648    0.00651     0.81300
      H   27    0.21401      0.00000     0.78373    0.00226     0.78599
      H   28    0.25078      0.00000     0.74820    0.00102     0.74922
      H   29    0.20938      0.00000     0.78808    0.00255     0.79062
      H   30    0.21063      0.00000     0.78735    0.00203     0.78937
      H   31    0.23568      0.00000     0.76342    0.00090     0.76432
      H   32    0.20605      0.00000     0.79017    0.00378     0.79395
      H   33    0.20622      0.00000     0.79192    0.00186     0.79378
 =======================================================================
   * Total *    0.00000     23.99182    71.78918    0.21900    96.00000

 Normal termination of Gaussian 16 at Mon Aug 24 14:54:50 2020.
