 Gaussian 16, Revision A.03,

 ---------------------------------
 # opt=CalcAll B3LYP/6-31G* scf=qc
 ---------------------------------

 -------------------
 Title Card Required
 -------------------
 Symbolic Z-matrix:
 Charge =  0 Multiplicity = 1

 SCF Done:  E(RB3LYP) =  -292.391007990     a.u. after    7 cycles
 SCF Done:  E(RB3LYP) =  -292.395489920     a.u. after   11 cycles
 SCF Done:  E(RB3LYP) =  -292.409408620     a.u. after   13 cycles
 SCF Done:  E(RB3LYP) =  -292.412033679     a.u. after    9 cycles
 SCF Done:  E(RB3LYP) =  -292.412671994     a.u. after    9 cycles
 SCF Done:  E(RB3LYP) =  -292.412693213     a.u. after    5 cycles
 SCF Done:  E(RB3LYP) =  -292.412693545     a.u. after    2 cycles
 Optimization completed.
    -- Stationary point found.
 Normal termination of Gaussian 16 at Mon Aug 24 16:54:28 2020.

 ----------------------------------------------------------------------
 # freq B3LYP/6-31G* scf=qc volume NMR pop=NPA density=current Geom=All
 Check Guess=Read
 ----------------------------------------------------------------------

 Structure from the checkpoint file:  "base_4_conf22.chk"
 -------------------
 Title Card Required
 -------------------
 Charge =  0 Multiplicity = 1

 SCF Done:  E(RB3LYP) =  -292.412693545     a.u. after    1 cycles

      1  C    Isotropic =   175.2018   Anisotropy =    21.0219

      2  C    Isotropic =   147.4478   Anisotropy =    40.2644

      3  N    Isotropic =   217.8244   Anisotropy =    45.7556

      4  C    Isotropic =   135.4599   Anisotropy =    56.9237

      5  C    Isotropic =   174.7642   Anisotropy =    17.5885

      6  C    Isotropic =   144.3143   Anisotropy =    45.0062

      7  C    Isotropic =   176.5204   Anisotropy =    16.4612

      8  H    Isotropic =    31.2889   Anisotropy =     9.5835

      9  H    Isotropic =    30.8871   Anisotropy =     6.4127

     10  H    Isotropic =    31.2199   Anisotropy =     8.5542

     11  H    Isotropic =    28.8511   Anisotropy =     5.6088

     12  H    Isotropic =    29.8852   Anisotropy =     6.4859

     13  H    Isotropic =    29.1846   Anisotropy =     7.5715

     14  H    Isotropic =    29.2601   Anisotropy =     7.0673

     15  H    Isotropic =    30.7734   Anisotropy =     5.6980

     16  H    Isotropic =    31.6014   Anisotropy =     9.7598

     17  H    Isotropic =    31.1775   Anisotropy =     6.3280

     18  H    Isotropic =    29.5454   Anisotropy =     6.8006

     19  H    Isotropic =    28.9042   Anisotropy =     6.8746

     20  H    Isotropic =    31.2918   Anisotropy =     7.1116

     21  H    Isotropic =    31.5972   Anisotropy =     9.7748

     22  H    Isotropic =    30.6137   Anisotropy =     5.7440

  Exact polarizability:  78.227  -1.329  74.021   1.665   1.443  63.773
 Approx polarizability:  97.068  -1.718  97.930   3.114   2.473  91.075

                      1                      2                      3
                      A                      A                      A
 Frequencies --     58.7685                88.5518               117.7113
 Red. masses --      1.9105                 2.1035                 1.8666
 Frc consts  --      0.0039                 0.0097                 0.0152
 IR Inten    --      0.0274                 0.1780                 0.2633

                      4                      5                      6
                      A                      A                      A
 Frequencies --    175.1825               222.0028               244.4525
 Red. masses --      2.0614                 1.1209                 1.1730
 Frc consts  --      0.0373                 0.0325                 0.0413
 IR Inten    --      2.4989                 0.1949                 0.2090

                      7                      8                      9
                      A                      A                      A
 Frequencies --    281.1913               290.7696               346.8152
 Red. masses --      1.3573                 2.0973                 2.5192
 Frc consts  --      0.0632                 0.1045                 0.1785
 IR Inten    --      0.5318                 0.3679                 0.4751

                     10                     11                     12
                      A                      A                      A
 Frequencies --    433.2027               466.6871               536.4332
 Red. masses --      2.0185                 2.3758                 2.5963
 Frc consts  --      0.2232                 0.3049                 0.4402
 IR Inten    --      1.0773                 2.9919                10.6250

                     13                     14                     15
                      A                      A                      A
 Frequencies --    728.3107               782.0097               795.7552
 Red. masses --      2.6126                 1.1299                 1.1676
 Frc consts  --      0.8165                 0.4071                 0.4356
 IR Inten    --      2.5119                 1.6191                 6.2425

                     16                     17                     18
                      A                      A                      A
 Frequencies --    817.9302               905.1777               923.8683
 Red. masses --      1.1384                 2.1315                 1.9855
 Frc consts  --      0.4487                 1.0290                 0.9985
 IR Inten    --      2.4793                 0.4329                 1.9577

                     19                     20                     21
                      A                      A                      A
 Frequencies --   1003.5352              1065.4258              1084.5187
 Red. masses --      2.6854                 2.2605                 2.1923
 Frc consts  --      1.5934                 1.5118                 1.5193
 IR Inten    --     10.3327                 4.7103                14.8554

                     22                     23                     24
                      A                      A                      A
 Frequencies --   1102.4004              1121.8989              1129.9702
 Red. masses --      1.6782                 1.7369                 1.8004
 Frc consts  --      1.2016                 1.2881                 1.3545
 IR Inten    --      2.0820                26.6066                36.1074

                     25                     26                     27
                      A                      A                      A
 Frequencies --   1159.0551              1256.7248              1261.3273
 Red. masses --      1.6937                 2.0075                 2.2453
 Frc consts  --      1.3406                 1.8680                 2.1047
 IR Inten    --     11.6604                22.3164                27.6900

                     28                     29                     30
                      A                      A                      A
 Frequencies --   1325.7668              1375.0134              1401.6914
 Red. masses --      1.1082                 1.3041                 1.2774
 Frc consts  --      1.1476                 1.4527                 1.4787
 IR Inten    --      1.9819                24.0135                12.2522

                     31                     32                     33
                      A                      A                      A
 Frequencies --   1403.4524              1411.8724              1428.9880
 Red. masses --      1.2463                 1.3107                 1.2403
 Frc consts  --      1.4463                 1.5394                 1.4922
 IR Inten    --     16.3943                18.3835                16.6404

                     34                     35                     36
                      A                      A                      A
 Frequencies --   1429.4044              1436.3912              1445.8768
 Red. masses --      1.2484                 1.2440                 1.3893
 Frc consts  --      1.5029                 1.5123                 1.7113
 IR Inten    --      3.9170                15.8144                18.3648

                     37                     38                     39
                      A                      A                      A
 Frequencies --   1500.7087              1511.6647              1514.8262
 Red. masses --      1.0677                 1.0659                 1.0461
 Frc consts  --      1.4168                 1.4352                 1.4144
 IR Inten    --      1.6018                 5.3949                 1.4017

                     40                     41                     42
                      A                      A                      A
 Frequencies --   1525.1579              1526.2254              1531.2667
 Red. masses --      1.0475                 1.0528                 1.0495
 Frc consts  --      1.4356                 1.4449                 1.4499
 IR Inten    --      3.8499                 3.5290                 1.6703

                     43                     44                     45
                      A                      A                      A
 Frequencies --   1534.9174              1537.9099              1552.7884
 Red. masses --      1.0499                 1.0626                 1.0893
 Frc consts  --      1.4574                 1.4807                 1.5475
 IR Inten    --      3.3826                 3.4077                 1.1904

                     46                     47                     48
                      A                      A                      A
 Frequencies --   2938.3309              3018.3662              3033.2633
 Red. masses --      1.0737                 1.0630                 1.0629
 Frc consts  --      5.4615                 5.7060                 5.7619
 IR Inten    --     70.9790                45.6325                42.5892

                     49                     50                     51
                      A                      A                      A
 Frequencies --   3046.8195              3050.4422              3052.1913
 Red. masses --      1.0365                 1.0382                 1.0623
 Frc consts  --      5.6691                 5.6918                 5.8304
 IR Inten    --     20.9843                27.4128                26.7961

                     52                     53                     54
                      A                      A                      A
 Frequencies --   3053.5362              3060.8387              3071.8178
 Red. masses --      1.0599                 1.1002                 1.1005
 Frc consts  --      5.8225                 6.0727                 6.1185
 IR Inten    --     15.2949                22.5890                32.3467

                     55                     56                     57
                      A                      A                      A
 Frequencies --   3108.5173              3110.8266              3117.4897
 Red. masses --      1.1007                 1.0999                 1.1014
 Frc consts  --      6.2664                 6.2711                 6.3070
 IR Inten    --     42.9679                64.6764                31.1298

                     58                     59                     60
                      A                      A                      A
 Frequencies --   3124.6426              3126.6876              3137.1102
 Red. masses --      1.1030                 1.1034                 1.1005
 Frc consts  --      6.3449                 6.3556                 6.3812
 IR Inten    --     42.4241                39.5276                42.4260

 - Thermochemistry -
 -------------------
 Temperature   298.150 Kelvin.  Pressure   1.00000 Atm.
 Atom     1 has atomic number  6 and mass  12.00000

 Molecular mass:   101.12045 amu.
 Principal axes and moments of inertia in atomic units:
                           1         2         3
     Eigenvalues --   625.76449 903.421791232.99784
           X            0.99999  -0.00141  -0.00301
           Y            0.00141   1.00000   0.00151
           Z            0.00301  -0.00152   0.99999
 This molecule is an asymmetric top.
 Rotational symmetry number  1.
 Warning -- assumption of classical behavior for rotation
           may cause significant error
 Rotational temperatures (Kelvin)      0.13841     0.09587     0.07025
 Rotational constants (GHZ):           2.88406     1.99767     1.46370
 Zero-point vibrational energy     543370.7 (Joules/Mol)
                                  129.86870 (Kcal/Mol)
 Warning -- explicit consideration of  12 degrees of freedom as
           vibrations may cause significant error
 Vibrational temperatures:     84.55   127.41   169.36   252.05   319.41
          (Kelvin)            351.71   404.57   418.35   498.99   623.28
                              671.46   771.81  1047.88  1125.14  1144.91
                             1176.82  1302.35  1329.24  1443.86  1532.91
                             1560.38  1586.11  1614.16  1625.78  1667.62
                             1808.15  1814.77  1907.48  1978.34  2016.72
                             2019.25  2031.37  2056.00  2056.59  2066.65
                             2080.29  2159.19  2174.95  2179.50  2194.36
                             2195.90  2203.15  2208.40  2212.71  2234.12
                             4227.60  4342.76  4364.19  4383.69  4388.91
                             4391.42  4393.36  4403.86  4419.66  4472.46
                             4475.79  4485.37  4495.66  4498.61  4513.60

 Zero-point correction=                           0.206959 (Hartree/Particle)
 Thermal correction to Energy=                    0.216410
 Thermal correction to Enthalpy=                  0.217354
 Thermal correction to Gibbs Free Energy=         0.172935
 Sum of electronic and zero-point Energies=           -292.205735
 Sum of electronic and thermal Energies=              -292.196284
 Sum of electronic and thermal Enthalpies=            -292.195340
 Sum of electronic and thermal Free Energies=         -292.239758

                     E (Thermal)             CV                S
                      KCal/Mol        Cal/Mol-Kelvin    Cal/Mol-Kelvin
 Total                  135.799             33.751             93.487
 Electronic               0.000              0.000              0.000
 Translational            0.889              2.981             39.751
 Rotational               0.889              2.981             28.035
 Vibrational            134.022             27.789             25.701
 Vibration     1          0.596              1.974              4.498
 Vibration     2          0.601              1.957              3.692
 Vibration     3          0.608              1.935              3.138
 Vibration     4          0.627              1.873              2.379
 Vibration     5          0.648              1.808              1.943
 Vibration     6          0.660              1.772              1.770
 Vibration     7          0.681              1.708              1.526
 Vibration     8          0.687              1.691              1.469
 Vibration     9          0.725              1.582              1.181
 Vibration    10          0.794              1.398              0.848
 Vibration    11          0.824              1.324              0.747
 Vibration    12          0.891              1.169              0.573

 Optimization completed.
    -- Stationary point found.
 Normal termination of Gaussian 16 at Mon Aug 24 16:57:10 2020.
 Gaussian 16:  ES64L-G16RevA.03 25-Dec-2016

 ----------------------------------------------------------------------
 # TD(NStates=10, Root=1) B3LYP/6-31G* scf=qc volume pop=NPA density=cu
 rrent Geom=AllCheck Guess=Read
 ----------------------------------------------------------------------

 Structure from the checkpoint file:  "base_4_conf23.chk"
 -------------------
 Title Card Required
 -------------------
 Charge =  0 Multiplicity = 1

                         Standard orientation:
 ---------------------------------------------------------------------
 Center     Atomic      Atomic             Coordinates (Angstroms)
 Number     Number       Type             X           Y           Z
 ---------------------------------------------------------------------
      1          6           0       -2.376517   -0.810625   -0.137980
      2          6           0       -0.878146   -0.933156   -0.430724
      3          7           0       -0.042206   -0.270134    0.564079
      4          6           0        1.327048   -0.769010    0.642564
      5          6           0        2.249127   -0.589865   -0.580094
      6          6           0       -0.234679    1.169368    0.724822
      7          6           0       -0.057306    2.074808   -0.510258
      8          1           0       -2.948547   -1.422779   -0.844553
      9          1           0       -2.734460    0.220174   -0.235181
     10          1           0       -2.597738   -1.153092    0.878633
     11          1           0       -0.686153   -0.586884   -1.464134
     12          1           0       -0.606205   -1.996606   -0.414938
     13          1           0        1.265192   -1.843618    0.867522
     14          1           0        1.797862   -0.300515    1.516812
     15          1           0        1.805991   -1.021889   -1.484599
     16          1           0        3.204845   -1.099375   -0.404194
     17          1           0        2.467617    0.463652   -0.781689
     18          1           0        0.453267    1.498191    1.513696
     19          1           0       -1.245127    1.334080    1.122327
     20          1           0        0.963129    2.046142   -0.904292
     21          1           0       -0.284274    3.114161   -0.242435
     22          1           0       -0.737114    1.790171   -1.321499
 ---------------------------------------------------------------------

 SCF Done:  E(RB3LYP) =  -292.412693545     a.u. after    1 cycles

 Excitation energies and oscillator strengths:

 Excited State   1:      Singlet-A      6.3206 eV  196.16 nm  f=0.0122  <S**2>=0.000
      29 -> 30         0.70416
 This state for optimization and/or second-order correction.
 Total Energy, E(TD-HF/TD-DFT) =  -292.180416560
 Copying the excited state density for this state as the 1-particle RhoCI density.

 Excited State   2:      Singlet-A      7.2062 eV  172.05 nm  f=0.0057  <S**2>=0.000
      29 -> 31         0.65335
      29 -> 32         0.21833
      29 -> 33         0.13681

 Excited State   3:      Singlet-A      7.4265 eV  166.95 nm  f=0.0051  <S**2>=0.000
      29 -> 31        -0.21614
      29 -> 32         0.66613

 Excited State   4:      Singlet-A      7.4996 eV  165.32 nm  f=0.0182  <S**2>=0.000
      29 -> 31        -0.14378
      29 -> 33         0.68826

 Excited State   5:      Singlet-A      8.0748 eV  153.55 nm  f=0.0206  <S**2>=0.000
      29 -> 34         0.67545
      29 -> 36         0.16742

 Excited State   6:      Singlet-A      8.2530 eV  150.23 nm  f=0.0055  <S**2>=0.000
      29 -> 35         0.65517
      29 -> 36        -0.22198

 Excited State   7:      Singlet-A      8.4777 eV  146.25 nm  f=0.0121  <S**2>=0.000
      29 -> 34        -0.18163
      29 -> 35         0.21153
      29 -> 36         0.62613
      29 -> 39         0.10119

 Excited State   8:      Singlet-A      8.6422 eV  143.46 nm  f=0.0103  <S**2>=0.000
      29 -> 37         0.69452

 Excited State   9:      Singlet-A      8.8984 eV  139.33 nm  f=0.0685  <S**2>=0.000
      29 -> 38         0.69197

 Excited State  10:      Singlet-A      9.0185 eV  137.48 nm  f=0.0317  <S**2>=0.000
      29 -> 36        -0.10376
      29 -> 39         0.69413

 The electronic state is 1-A.
 Alpha  occ. eigenvalues --  -14.30963 -10.20151 -10.20089 -10.20083 -10.16956
 Alpha  occ. eigenvalues --  -10.16870 -10.16838  -0.90612  -0.75241  -0.74827
 Alpha  occ. eigenvalues --   -0.70150  -0.62986  -0.61590  -0.54627  -0.48097
 Alpha  occ. eigenvalues --   -0.46876  -0.44317  -0.41159  -0.41053  -0.40382
 Alpha  occ. eigenvalues --   -0.38530  -0.37753  -0.36706  -0.35835  -0.34552
 Alpha  occ. eigenvalues --   -0.33423  -0.32890  -0.32044  -0.19108
 Alpha virt. eigenvalues --    0.07830   0.11160   0.12019   0.12274   0.14449
 Alpha virt. eigenvalues --    0.15227   0.15774   0.16226   0.17042   0.17569
 Alpha virt. eigenvalues --    0.19069   0.20343   0.20632   0.21488   0.22328

 Mulliken charges:
               1
     1  C   -0.412272
     2  C   -0.056908
     3  N   -0.201727
     4  C   -0.114700
     5  C   -0.405045
     6  C   -0.093698
     7  C   -0.375400
     8  H    0.115983
     9  H    0.103733
    10  H    0.120762
    11  H    0.104809
    12  H    0.062611
    13  H    0.111198
    14  H    0.138839
    15  H    0.129893
    16  H    0.130447
    17  H    0.127702
    18  H    0.094063
    19  H    0.124115
    20  H    0.101421
    21  H    0.112745
    22  H    0.081429
 Sum of Mulliken charges =   0.00000

 Dipole moment (field-independent basis, Debye):
    X=              0.7487    Y=             -0.5365    Z=              1.1378  Tot=              1.4639
 Quadrupole moment (field-independent basis, Debye-Ang):
   XX=            -51.3783   YY=            -52.2455   ZZ=            -49.6607
   XY=             -0.8784   XZ=              0.0428   YZ=              0.5690

 Summary of Natural Population Analysis:

                                       Natural Population
                Natural  -----------------------------------------------
    Atom  No    Charge         Core      Valence    Rydberg      Total
 -----------------------------------------------------------------------
      C    1   -0.69953      1.99944     4.68877    0.01132     6.69953
      C    2   -0.31672      1.99930     4.30002    0.01740     6.31672
      N    3   -0.03815      1.99937     5.02939    0.00939     7.03815
      C    4   -0.30884      1.99933     4.29113    0.01838     6.30884
      C    5   -0.68505      1.99940     4.67557    0.01009     6.68505
      C    6   -0.31288      1.99932     4.29496    0.01860     6.31288
      C    7   -0.69278      1.99940     4.68132    0.01206     6.69278
      H    8    0.21299      0.00000     0.77311    0.01390     0.78701
      H    9    0.19176      0.00000     0.78275    0.02549     0.80824
      H   10    0.21392      0.00000     0.77530    0.01078     0.78608
      H   11    0.20065      0.00000     0.75859    0.04076     0.79935
      H   12    0.17217      0.00000     0.78833    0.03950     0.82783
      H   13    0.20428      0.00000     0.76692    0.02879     0.79572
      H   14    0.22754      0.00000     0.75665    0.01581     0.77246
      H   15    0.21266      0.00000     0.77163    0.01571     0.78734
      H   16    0.22133      0.00000     0.76744    0.01123     0.77867
      H   17    0.20440      0.00000     0.77457    0.02103     0.79560
      H   18    0.19559      0.00000     0.77665    0.02776     0.80441
      H   19    0.21869      0.00000     0.75659    0.02472     0.78131
      H   20    0.18787      0.00000     0.78821    0.02393     0.81213
      H   21    0.21254      0.00000     0.77254    0.01492     0.78746
      H   22    0.17757      0.00000     0.78964    0.03280     0.82243
 =======================================================================
   * Total *    0.00000     13.99557    43.56007    0.44436    58.00000

 Normal termination of Gaussian 16 at Mon Aug 24 17:00:50 2020.
