 Gaussian 16, Revision A.03,

 ---------------------------------
 # opt=CalcAll B3LYP/6-31G* scf=qc
 ---------------------------------

 -------------------
 Title Card Required
 -------------------
 Symbolic Z-matrix:
 Charge =  0 Multiplicity = 1

 SCF Done:  E(RB3LYP) =  -292.408956121     a.u. after    7 cycles
 SCF Done:  E(RB3LYP) =  -292.412871098     a.u. after   13 cycles
 SCF Done:  E(RB3LYP) =  -292.414444046     a.u. after   11 cycles
 SCF Done:  E(RB3LYP) =  -292.414803649     a.u. after    9 cycles
 SCF Done:  E(RB3LYP) =  -292.414882167     a.u. after    5 cycles
 SCF Done:  E(RB3LYP) =  -292.414976424     a.u. after    7 cycles
 SCF Done:  E(RB3LYP) =  -292.415005330     a.u. after    5 cycles
 SCF Done:  E(RB3LYP) =  -292.415024052     a.u. after    6 cycles
 SCF Done:  E(RB3LYP) =  -292.415024125     a.u. after    3 cycles
 Optimization completed.
    -- Stationary point found.
 Normal termination of Gaussian 16 at Mon Aug 24 16:38:48 2020.

 ----------------------------------------------------------------------
 # freq B3LYP/6-31G* scf=qc volume NMR pop=NPA density=current Geom=All
 Check Guess=Read
 ----------------------------------------------------------------------

 Structure from the checkpoint file:  "base_4_conf112.chk"
 -------------------
 Title Card Required
 -------------------
 Charge =  0 Multiplicity = 1

 SCF Done:  E(RB3LYP) =  -292.415024125     a.u. after    1 cycles

      1  C    Isotropic =   174.2617   Anisotropy =    22.6530

      2  C    Isotropic =   140.3298   Anisotropy =    50.0900

      3  N    Isotropic =   209.4959   Anisotropy =    51.2925

      4  C    Isotropic =   148.8086   Anisotropy =    38.4420

      5  C    Isotropic =   175.1362   Anisotropy =    21.4842

      6  C    Isotropic =   142.7828   Anisotropy =    45.7109

      7  C    Isotropic =   183.5621   Anisotropy =     9.3524

      8  H    Isotropic =    31.3729   Anisotropy =     9.7881

      9  H    Isotropic =    31.1524   Anisotropy =     8.1402

     10  H    Isotropic =    31.0250   Anisotropy =     6.5874

     11  H    Isotropic =    29.7382   Anisotropy =     6.4269

     12  H    Isotropic =    29.4681   Anisotropy =     6.1116

     13  H    Isotropic =    29.5674   Anisotropy =     6.1849

     14  H    Isotropic =    29.7190   Anisotropy =     5.7237

     15  H    Isotropic =    30.9047   Anisotropy =     6.7910

     16  H    Isotropic =    31.2845   Anisotropy =     9.6544

     17  H    Isotropic =    31.2103   Anisotropy =     8.4076

     18  H    Isotropic =    29.0017   Anisotropy =     6.3256

     19  H    Isotropic =    29.5516   Anisotropy =     7.4601

     20  H    Isotropic =    30.9220   Anisotropy =     6.9680

     21  H    Isotropic =    31.8905   Anisotropy =     9.8889

     22  H    Isotropic =    31.2849   Anisotropy =     7.4134

  Exact polarizability:  78.758   0.510  74.541  -0.991   1.426  63.603
 Approx polarizability:  97.554   0.967  96.058  -1.569   2.954  92.750

                      1                      2                      3
                      A                      A                      A
 Frequencies --     49.0337                83.9345               116.2744
 Red. masses --      2.1807                 1.7935                 1.9789
 Frc consts  --      0.0031                 0.0074                 0.0158
 IR Inten    --      0.0682                 0.2010                 0.2131

                      4                      5                      6
                      A                      A                      A
 Frequencies --    187.2218               222.6219               236.2213
 Red. masses --      1.5336                 1.1227                 1.1541
 Frc consts  --      0.0317                 0.0328                 0.0379
 IR Inten    --      1.3888                 0.0435                 0.0170

                      7                      8                      9
                      A                      A                      A
 Frequencies --    283.7344               305.0369               340.6119
 Red. masses --      2.0343                 1.6573                 2.4758
 Frc consts  --      0.0965                 0.0909                 0.1692
 IR Inten    --      0.1959                 1.1263                 0.6797

                     10                     11                     12
                      A                      A                      A
 Frequencies --    419.9613               477.4333               531.2527
 Red. masses --      2.1482                 2.4631                 2.5680
 Frc consts  --      0.2232                 0.3308                 0.4270
 IR Inten    --      1.9965                 2.2807                 6.3029

                     13                     14                     15
                      A                      A                      A
 Frequencies --    742.3535               789.5901               808.7299
 Red. masses --      2.5639                 1.1457                 1.1511
 Frc consts  --      0.8325                 0.4209                 0.4436
 IR Inten    --      8.3211                 4.0501                 2.4131

                     16                     17                     18
                      A                      A                      A
 Frequencies --    820.5612               915.2365               934.4892
 Red. masses --      1.1452                 2.0608                 1.9383
 Frc consts  --      0.4543                 1.0171                 0.9973
 IR Inten    --      1.7278                 1.4884                 1.1566

                     19                     20                     21
                      A                      A                      A
 Frequencies --   1012.9070              1070.8689              1093.8935
 Red. masses --      2.5855                 2.3134                 2.5744
 Frc consts  --      1.5629                 1.5631                 1.8150
 IR Inten    --      8.3664                 7.2826                32.4472

                     22                     23                     24
                      A                      A                      A
 Frequencies --   1097.9178              1116.9739              1127.6959
 Red. masses --      1.6640                 1.7091                 1.7623
 Frc consts  --      1.1818                 1.2563                 1.3205
 IR Inten    --      1.7346                 6.9824                28.5136

                     25                     26                     27
                      A                      A                      A
 Frequencies --   1168.8087              1246.0679              1254.8352
 Red. masses --      1.7038                 2.0724                 2.3186
 Frc consts  --      1.3714                 1.8959                 2.1510
 IR Inten    --      9.6304                15.4195                24.7003

                     28                     29                     30
                      A                      A                      A
 Frequencies --   1329.9766              1340.1396              1385.1494
 Red. masses --      1.1067                 1.1976                 1.2757
 Frc consts  --      1.1533                 1.2672                 1.4420
 IR Inten    --      1.1036                26.3025                12.4220

                     31                     32                     33
                      A                      A                      A
 Frequencies --   1400.1519              1415.3733              1427.9601
 Red. masses --      1.2719                 1.3084                 1.2325
 Frc consts  --      1.4691                 1.5443                 1.4807
 IR Inten    --     18.7676                11.3238                 0.1128

                     34                     35                     36
                      A                      A                      A
 Frequencies --   1430.7950              1442.0633              1445.6764
 Red. masses --      1.2591                 1.3138                 1.3721
 Frc consts  --      1.5187                 1.6097                 1.6896
 IR Inten    --     14.6304                19.2235                15.7735

                     37                     38                     39
                      A                      A                      A
 Frequencies --   1509.2879              1517.5451              1519.9044
 Red. masses --      1.0618                 1.0508                 1.0524
 Frc consts  --      1.4251                 1.4258                 1.4324
 IR Inten    --      2.7226                 3.8794                 0.9488

                     40                     41                     42
                      A                      A                      A
 Frequencies --   1524.5565              1527.5651              1531.2962
 Red. masses --      1.0511                 1.0434                 1.0471
 Frc consts  --      1.4393                 1.4345                 1.4466
 IR Inten    --      1.4949                 3.0377                 0.8056

                     43                     44                     45
                      A                      A                      A
 Frequencies --   1538.1677              1541.3264              1553.5462
 Red. masses --      1.0545                 1.0810                 1.0858
 Frc consts  --      1.4699                 1.5131                 1.5440
 IR Inten    --      2.2629                 8.2851                 0.8331

                     46                     47                     48
                      A                      A                      A
 Frequencies --   2930.0765              2938.2318              3044.9485
 Red. masses --      1.0743                 1.0734                 1.0627
 Frc consts  --      5.4343                 5.4597                 5.8050
 IR Inten    --     24.8413               122.7689                27.2518

                     49                     50                     51
                      A                      A                      A
 Frequencies --   3049.1724              3051.2829              3053.5607
 Red. masses --      1.0357                 1.0363                 1.0391
 Frc consts  --      5.6736                 5.6849                 5.7085
 IR Inten    --     24.5759                19.6736                21.5231

                     52                     53                     54
                      A                      A                      A
 Frequencies --   3066.6887              3082.8991              3085.0172
 Red. masses --      1.0865                 1.0930                 1.0923
 Frc consts  --      6.0203                 6.1203                 6.1251
 IR Inten    --     22.4250                25.2382                13.2389

                     55                     56                     57
                      A                      A                      A
 Frequencies --   3112.9788              3115.0058              3118.8688
 Red. masses --      1.1011                 1.1010                 1.1002
 Frc consts  --      6.2869                 6.2942                 6.3056
 IR Inten    --     33.1762                22.7154                77.2039

                     58                     59                     60
                      A                      A                      A
 Frequencies --   3122.1684              3128.5573              3129.8435
 Red. masses --      1.1027                 1.1032                 1.1030
 Frc consts  --      6.3331                 6.3619                 6.3659
 IR Inten    --     39.3363                47.3355                35.9293

 - Thermochemistry -
 -------------------
 Temperature   298.150 Kelvin.  Pressure   1.00000 Atm.
 Atom     1 has atomic number  6 and mass  12.00000

 Molecular mass:   101.12045 amu.
 Principal axes and moments of inertia in atomic units:
                           1         2         3
     Eigenvalues --   666.01431 879.760241349.83560
           X            0.99999  -0.00364  -0.00019
           Y            0.00364   0.99998  -0.00429
           Z            0.00021   0.00428   0.99999
 This molecule is an asymmetric top.
 Rotational symmetry number  1.
 Warning -- assumption of classical behavior for rotation
           may cause significant error
 Rotational temperatures (Kelvin)      0.13005     0.09845     0.06417
 Rotational constants (GHZ):           2.70976     2.05140     1.33701
 Zero-point vibrational energy     543487.7 (Joules/Mol)
                                  129.89668 (Kcal/Mol)
 Warning -- explicit consideration of  12 degrees of freedom as
           vibrations may cause significant error
 Vibrational temperatures:     70.55   120.76   167.29   269.37   320.30
          (Kelvin)            339.87   408.23   438.88   490.06   604.23
                              686.92   764.35  1068.08  1136.04  1163.58
                             1180.60  1316.82  1344.52  1457.35  1540.74
                             1573.87  1579.66  1607.08  1622.50  1681.66
                             1792.81  1805.43  1913.54  1928.16  1992.92
                             2014.51  2036.41  2054.52  2058.59  2074.81
                             2080.01  2171.53  2183.41  2186.80  2193.50
                             2197.83  2203.19  2213.08  2217.62  2235.21
                             4215.73  4227.46  4381.00  4387.08  4390.12
                             4393.39  4412.28  4435.60  4438.65  4478.88
                             4481.80  4487.36  4492.10  4501.30  4503.15

 Zero-point correction=                           0.207004 (Hartree/Particle)
 Thermal correction to Energy=                    0.216454
 Thermal correction to Enthalpy=                  0.217398
 Thermal correction to Gibbs Free Energy=         0.172762
 Sum of electronic and zero-point Energies=           -292.208021
 Sum of electronic and thermal Energies=              -292.198570
 Sum of electronic and thermal Enthalpies=            -292.197626
 Sum of electronic and thermal Free Energies=         -292.242262

                     E (Thermal)             CV                S
                      KCal/Mol        Cal/Mol-Kelvin    Cal/Mol-Kelvin
 Total                  135.827             33.661             93.943
 Electronic               0.000              0.000              0.000
 Translational            0.889              2.981             39.751
 Rotational               0.889              2.981             28.161
 Vibrational            134.049             27.699             26.032
 Vibration     1          0.595              1.978              4.856
 Vibration     2          0.601              1.960              3.797
 Vibration     3          0.608              1.936              3.161
 Vibration     4          0.632              1.857              2.255
 Vibration     5          0.648              1.807              1.938
 Vibration     6          0.655              1.785              1.831
 Vibration     7          0.682              1.704              1.511
 Vibration     8          0.696              1.664              1.389
 Vibration     9          0.720              1.594              1.209
 Vibration    10          0.783              1.427              0.892
 Vibration    11          0.834              1.300              0.717
 Vibration    12          0.886              1.181              0.584

 Optimization completed.
    -- Stationary point found.
 Normal termination of Gaussian 16 at Mon Aug 24 16:41:37 2020.
 Gaussian 16:  ES64L-G16RevA.03 25-Dec-2016

 ----------------------------------------------------------------------
 # TD(NStates=10, Root=1) B3LYP/6-31G* scf=qc volume pop=NPA density=cu
 rrent Geom=AllCheck Guess=Read
 ----------------------------------------------------------------------

 Structure from the checkpoint file:  "base_4_conf113.chk"
 -------------------
 Title Card Required
 -------------------
 Charge =  0 Multiplicity = 1

                         Standard orientation:
 ---------------------------------------------------------------------
 Center     Atomic      Atomic             Coordinates (Angstroms)
 Number     Number       Type             X           Y           Z
 ---------------------------------------------------------------------
      1          6           0       -2.634282    0.053046   -0.087453
      2          6           0       -1.327055   -0.699312    0.179530
      3          7           0       -0.147095    0.007765   -0.328655
      4          6           0        0.255005    1.123045    0.531684
      5          6           0        1.219864    2.100112   -0.143828
      6          6           0        0.945420   -0.892776   -0.711265
      7          6           0        1.622813   -1.697405    0.413617
      8          1           0       -3.490517   -0.540580    0.254377
      9          1           0       -2.748300    0.247581   -1.158865
     10          1           0       -2.674181    1.014674    0.435646
     11          1           0       -1.376358   -1.667601   -0.333059
     12          1           0       -1.246797   -0.926758    1.260084
     13          1           0        0.688509    0.777958    1.490962
     14          1           0       -0.654737    1.672302    0.795832
     15          1           0        2.203249    1.655612   -0.330925
     16          1           0        1.375322    2.976050    0.496307
     17          1           0        0.811114    2.438101   -1.102077
     18          1           0        1.704295   -0.302442   -1.237124
     19          1           0        0.539714   -1.590659   -1.454872
     20          1           0        2.098859   -1.046176    1.155099
     21          1           0        2.402414   -2.344840   -0.005208
     22          1           0        0.906481   -2.337830    0.940700
 ---------------------------------------------------------------------

 SCF Done:  E(RB3LYP) =  -292.415024125     a.u. after    1 cycles

 Excitation energies and oscillator strengths:

 Excited State   1:      Singlet-A      6.6335 eV  186.91 nm  f=0.0158  <S**2>=0.000
      29 -> 30         0.70443
 This state for optimization and/or second-order correction.
 Total Energy, E(TD-HF/TD-DFT) =  -292.171248692
 Copying the excited state density for this state as the 1-particle RhoCI density.

 Excited State   2:      Singlet-A      7.2807 eV  170.29 nm  f=0.0146  <S**2>=0.000
      29 -> 31         0.69937

 Excited State   3:      Singlet-A      7.6201 eV  162.71 nm  f=0.0026  <S**2>=0.000
      29 -> 32         0.68347
      29 -> 33        -0.15808

 Excited State   4:      Singlet-A      7.8988 eV  156.97 nm  f=0.0230  <S**2>=0.000
      29 -> 32         0.16271
      29 -> 33         0.68292

 Excited State   5:      Singlet-A      8.4653 eV  146.46 nm  f=0.0098  <S**2>=0.000
      29 -> 34         0.68235
      29 -> 36         0.14549

 Excited State   6:      Singlet-A      8.5416 eV  145.15 nm  f=0.0302  <S**2>=0.000
      29 -> 35         0.59769
      29 -> 36        -0.35526

 Excited State   7:      Singlet-A      8.6078 eV  144.04 nm  f=0.0276  <S**2>=0.000
      29 -> 34        -0.14542
      29 -> 35         0.35826
      29 -> 36         0.57153

 Excited State   8:      Singlet-A      8.9281 eV  138.87 nm  f=0.0007  <S**2>=0.000
      29 -> 36         0.10640
      29 -> 37         0.66818
      29 -> 38        -0.15560

 Excited State   9:      Singlet-A      9.0617 eV  136.82 nm  f=0.0457  <S**2>=0.000
      29 -> 37         0.14557
      29 -> 38         0.68228

 Excited State  10:      Singlet-A      9.3858 eV  132.10 nm  f=0.0250  <S**2>=0.000
      29 -> 39         0.65474
      29 -> 40        -0.23211

 The electronic state is 1-A.
 Alpha  occ. eigenvalues --  -14.31155 -10.20078 -10.20004 -10.19986 -10.17003
 Alpha  occ. eigenvalues --  -10.16969 -10.16844  -0.90778  -0.75315  -0.74950
 Alpha  occ. eigenvalues --   -0.69921  -0.62911  -0.61327  -0.54657  -0.48008
 Alpha  occ. eigenvalues --   -0.46738  -0.44427  -0.43129  -0.40894  -0.39264
 Alpha  occ. eigenvalues --   -0.38731  -0.36998  -0.36430  -0.35689  -0.34626
 Alpha  occ. eigenvalues --   -0.33712  -0.32752  -0.31909  -0.19846
 Alpha virt. eigenvalues --    0.08284   0.10654   0.11979   0.12923   0.15087
 Alpha virt. eigenvalues --    0.15518   0.15748   0.16380   0.16846   0.18090
 Alpha virt. eigenvalues --    0.18533   0.19454   0.20528   0.21226   0.21830

 Mulliken charges:
               1
     1  C   -0.448907
     2  C   -0.091182
     3  N   -0.194344
     4  C   -0.073926
     5  C   -0.423016
     6  C   -0.096139
     7  C   -0.352603
     8  H    0.139800
     9  H    0.150608
    10  H    0.144070
    11  H    0.098515
    12  H    0.143404
    13  H    0.124389
    14  H    0.073248
    15  H    0.103342
    16  H    0.124361
    17  H    0.130552
    18  H    0.119612
    19  H    0.071725
    20  H    0.072289
    21  H    0.094682
    22  H    0.089520
 Sum of Mulliken charges =  -0.00000

 Dipole moment (field-independent basis, Debye):
    X=             -1.4337    Y=              0.4067    Z=             -0.2305  Tot=              1.5080
 Quadrupole moment (field-independent basis, Debye-Ang):
   XX=            -51.6256   YY=            -52.9838   ZZ=            -49.5807
   XY=              1.0358   XZ=             -0.7672   YZ=             -0.2597

 Summary of Natural Population Analysis:

                                       Natural Population
                Natural  -----------------------------------------------
    Atom  No    Charge         Core      Valence    Rydberg      Total
 -----------------------------------------------------------------------
      C    1   -0.69630      1.99944     4.68574    0.01112     6.69630
      C    2   -0.31583      1.99931     4.29943    0.01709     6.31583
      N    3   -0.03196      1.99932     5.02341    0.00923     7.03196
      C    4   -0.31793      1.99929     4.30077    0.01787     6.31793
      C    5   -0.70337      1.99945     4.69214    0.01178     6.70337
      C    6   -0.31560      1.99933     4.29680    0.01947     6.31560
      C    7   -0.68868      1.99940     4.67775    0.01153     6.68868
      H    8    0.22616      0.00000     0.76530    0.00854     0.77384
      H    9    0.23020      0.00000     0.76501    0.00479     0.76980
      H   10    0.21849      0.00000     0.77065    0.01087     0.78151
      H   11    0.19677      0.00000     0.76872    0.03451     0.80323
      H   12    0.23157      0.00000     0.74216    0.02627     0.76843
      H   13    0.21944      0.00000     0.74397    0.03659     0.78056
      H   14    0.17462      0.00000     0.79130    0.03408     0.82538
      H   15    0.19050      0.00000     0.78325    0.02625     0.80950
      H   16    0.21924      0.00000     0.76966    0.01109     0.78076
      H   17    0.22035      0.00000     0.77207    0.00758     0.77965
      H   18    0.21055      0.00000     0.76438    0.02507     0.78945
      H   19    0.17464      0.00000     0.78777    0.03758     0.82536
      H   20    0.17322      0.00000     0.79114    0.03564     0.82678
      H   21    0.19708      0.00000     0.78084    0.02208     0.80292
      H   22    0.18684      0.00000     0.78805    0.02511     0.81316
 =======================================================================
   * Total *   -0.00000     13.99553    43.56033    0.44414    58.00000

 Normal termination of Gaussian 16 at Mon Aug 24 16:45:56 2020.
