 Gaussian 16, Revision A.03,

 ---------------------------------
 # opt=CalcAll B3LYP/6-31G* scf=qc
 ---------------------------------

 -------------------
 Title Card Required
 -------------------
 Symbolic Z-matrix:
 Charge =  0 Multiplicity = 1

 SCF Done:  E(RB3LYP) =  -292.406833649     a.u. after    7 cycles
 SCF Done:  E(RB3LYP) =  -292.413183383     a.u. after   13 cycles
 SCF Done:  E(RB3LYP) =  -292.414489086     a.u. after    9 cycles
 SCF Done:  E(RB3LYP) =  -292.414704486     a.u. after    9 cycles
 SCF Done:  E(RB3LYP) =  -292.414748224     a.u. after    6 cycles
 SCF Done:  E(RB3LYP) =  -292.414750820     a.u. after    3 cycles
 SCF Done:  E(RB3LYP) =  -292.414751070     a.u. after    3 cycles
 Optimization completed.
    -- Stationary point found.
 Normal termination of Gaussian 16 at Mon Aug 24 16:48:23 2020.

 ----------------------------------------------------------------------
 # freq B3LYP/6-31G* scf=qc volume NMR pop=NPA density=current Geom=All
 Check Guess=Read
 ----------------------------------------------------------------------

 Structure from the checkpoint file:  "base_4_conf182.chk"
 -------------------
 Title Card Required
 -------------------
 Charge =  0 Multiplicity = 1

 SCF Done:  E(RB3LYP) =  -292.414751070     a.u. after    1 cycles

      1  C    Isotropic =   186.5771   Anisotropy =     5.8808

      2  C    Isotropic =   151.5152   Anisotropy =    36.8136

      3  N    Isotropic =   209.3509   Anisotropy =    68.9258

      4  C    Isotropic =   142.1480   Anisotropy =    50.2837

      5  C    Isotropic =   175.1775   Anisotropy =    20.4032

      6  C    Isotropic =   142.1492   Anisotropy =    50.2843

      7  C    Isotropic =   175.1766   Anisotropy =    20.4082

      8  H    Isotropic =    31.9856   Anisotropy =    10.0248

      9  H    Isotropic =    31.1482   Anisotropy =     7.6262

     10  H    Isotropic =    31.1481   Anisotropy =     7.6274

     11  H    Isotropic =    29.3091   Anisotropy =     6.2789

     12  H    Isotropic =    29.3092   Anisotropy =     6.2783

     13  H    Isotropic =    29.9539   Anisotropy =     6.7788

     14  H    Isotropic =    29.2758   Anisotropy =     6.0109

     15  H    Isotropic =    31.1201   Anisotropy =     8.3527

     16  H    Isotropic =    31.2815   Anisotropy =     9.6994

     17  H    Isotropic =    30.8846   Anisotropy =     6.6216

     18  H    Isotropic =    29.2758   Anisotropy =     6.0109

     19  H    Isotropic =    29.9542   Anisotropy =     6.7783

     20  H    Isotropic =    30.8846   Anisotropy =     6.6225

     21  H    Isotropic =    31.2816   Anisotropy =     9.6993

     22  H    Isotropic =    31.1202   Anisotropy =     8.3524

  Exact polarizability:  79.954  -0.000  72.318  -0.001  -2.037  63.891
 Approx polarizability:  97.365  -0.000  96.394  -0.001  -2.935  92.595

                      1                      2                      3
                      A                      A                      A
 Frequencies --     57.6046                70.6864               137.5769
 Red. masses --      2.2749                 2.3532                 1.3458
 Frc consts  --      0.0044                 0.0069                 0.0150
 IR Inten    --      0.0522                 0.0405                 0.6920

                      4                      5                      6
                      A                      A                      A
 Frequencies --    201.6059               227.1200               251.5081
 Red. masses --      1.5987                 1.0839                 2.1756
 Frc consts  --      0.0383                 0.0329                 0.0811
 IR Inten    --      1.5850                 0.0182                 0.1841

                      7                      8                      9
                      A                      A                      A
 Frequencies --    279.4278               293.5073               377.7632
 Red. masses --      1.3422                 1.5591                 2.0465
 Frc consts  --      0.0617                 0.0791                 0.1721
 IR Inten    --      0.4592                 1.1099                 0.0257

                     10                     11                     12
                      A                      A                      A
 Frequencies --    425.9221               490.7007               499.0883
 Red. masses --      3.1513                 2.5162                 2.1834
 Frc consts  --      0.3368                 0.3570                 0.3204
 IR Inten    --      0.8951                 9.4424                 1.1731

                     13                     14                     15
                      A                      A                      A
 Frequencies --    744.4862               782.6996               818.8182
 Red. masses --      2.6390                 1.1202                 1.1224
 Frc consts  --      0.8618                 0.4043                 0.4434
 IR Inten    --      8.1434                 4.6534                 2.5450

                     16                     17                     18
                      A                      A                      A
 Frequencies --    824.3106               919.2109               934.0087
 Red. masses --      1.1657                 1.8944                 2.2706
 Frc consts  --      0.4667                 0.9431                 1.1671
 IR Inten    --      1.8586                 3.0470                 2.7298

                     19                     20                     21
                      A                      A                      A
 Frequencies --   1019.5136              1072.1779              1078.2110
 Red. masses --      2.1486                 2.4185                 2.1773
 Frc consts  --      1.3158                 1.6380                 1.4913
 IR Inten    --      9.2595                 2.8707                13.4499

                     22                     23                     24
                      A                      A                      A
 Frequencies --   1105.4203              1113.2670              1143.7256
 Red. masses --      1.7853                 2.0199                 1.4819
 Frc consts  --      1.2853                 1.4750                 1.1422
 IR Inten    --     25.2540                10.1602                11.1918

                     25                     26                     27
                      A                      A                      A
 Frequencies --   1180.2597              1240.4515              1258.6990
 Red. masses --      1.9311                 2.0013                 2.6817
 Frc consts  --      1.5849                 1.8144                 2.5032
 IR Inten    --     15.3009                 7.7901                29.9901

                     28                     29                     30
                      A                      A                      A
 Frequencies --   1316.7243              1358.8139              1365.6751
 Red. masses --      1.1039                 1.2266                 1.1661
 Frc consts  --      1.1276                 1.3344                 1.2814
 IR Inten    --      7.2545                14.4887                12.9307

                     31                     32                     33
                      A                      A                      A
 Frequencies --   1399.3174              1411.1716              1427.0864
 Red. masses --      1.2397                 1.3976                 1.2228
 Frc consts  --      1.4303                 1.6398                 1.4672
 IR Inten    --     11.2666                28.4674                 0.0079

                     34                     35                     36
                      A                      A                      A
 Frequencies --   1431.0733              1434.9151              1459.8926
 Red. masses --      1.2530                 1.2783                 1.4207
 Frc consts  --      1.5119                 1.5507                 1.7839
 IR Inten    --     19.7507                22.6208                 3.8403

                     37                     38                     39
                      A                      A                      A
 Frequencies --   1511.4072              1514.4163              1524.1341
 Red. masses --      1.0536                 1.0583                 1.0452
 Frc consts  --      1.4180                 1.4300                 1.4306
 IR Inten    --      4.1624                 4.2400                 1.2398

                     40                     41                     42
                      A                      A                      A
 Frequencies --   1529.0697              1530.8144              1532.4358
 Red. masses --      1.0471                 1.0472                 1.0425
 Frc consts  --      1.4424                 1.4458                 1.4424
 IR Inten    --      6.1019                 1.1535                 0.2298

                     43                     44                     45
                      A                      A                      A
 Frequencies --   1544.6656              1544.7185              1557.9485
 Red. masses --      1.0679                 1.0719                 1.0896
 Frc consts  --      1.5012                 1.5070                 1.5581
 IR Inten    --      7.4760                 0.4502                 0.5839

                     46                     47                     48
                      A                      A                      A
 Frequencies --   2923.0519              2931.7675              3049.8522
 Red. masses --      1.0738                 1.0744                 1.0357
 Frc consts  --      5.4056                 5.4407                 5.6760
 IR Inten    --     13.3769               141.8434                23.8143

                     49                     50                     51
                      A                      A                      A
 Frequencies --   3051.6456              3052.9849              3053.4097
 Red. masses --      1.0815                 1.0372                 1.0407
 Frc consts  --      5.9342                 5.6957                 5.7168
 IR Inten    --      6.7373                 1.3355                27.9841

                     52                     53                     54
                      A                      A                      A
 Frequencies --   3059.8611              3070.0280              3094.3572
 Red. masses --      1.0833                 1.0616                 1.1029
 Frc consts  --      5.9758                 5.8951                 6.2220
 IR Inten    --     57.0479                26.8289                11.0374

                     55                     56                     57
                      A                      A                      A
 Frequencies --   3113.6245              3117.6778              3119.5052
 Red. masses --      1.1007                 1.1018                 1.1005
 Frc consts  --      6.2873                 6.3096                 6.3098
 IR Inten    --     27.7567                33.2490                88.8024

                     58                     59                     60
                      A                      A                      A
 Frequencies --   3123.3402              3127.4441              3128.0204
 Red. masses --      1.1029                 1.1032                 1.1033
 Frc consts  --      6.3393                 6.3572                 6.3606
 IR Inten    --     12.1235                57.0580                29.9313

 - Thermochemistry -
 -------------------
 Temperature   298.150 Kelvin.  Pressure   1.00000 Atm.
 Atom     1 has atomic number  6 and mass  12.00000

 Molecular mass:   101.12045 amu.
 Principal axes and moments of inertia in atomic units:
                           1         2         3
     Eigenvalues --   564.16504 979.581841316.01750
           X            1.00000   0.00000   0.00000
           Y           -0.00000   1.00000  -0.00064
           Z           -0.00000   0.00064   1.00000
 This molecule is an asymmetric top.
 Rotational symmetry number  1.
 Warning -- assumption of classical behavior for rotation
           may cause significant error
 Rotational temperatures (Kelvin)      0.15353     0.08842     0.06582
 Rotational constants (GHZ):           3.19896     1.84236     1.37137
 Zero-point vibrational energy     544053.4 (Joules/Mol)
                                  130.03188 (Kcal/Mol)
 Warning -- explicit consideration of  12 degrees of freedom as
           vibrations may cause significant error
 Vibrational temperatures:     82.88   101.70   197.94   290.07   326.78
          (Kelvin)            361.86   402.03   422.29   543.52   612.81
                              706.01   718.08  1071.15  1126.13  1178.10
                             1186.00  1322.54  1343.83  1466.85  1542.62
                             1551.31  1590.45  1601.74  1645.57  1698.13
                             1784.73  1810.99  1894.47  1955.03  1964.90
                             2013.31  2030.36  2053.26  2059.00  2064.52
                             2100.46  2174.58  2178.91  2192.89  2199.99
                             2202.50  2204.83  2222.43  2222.51  2241.54
                             4205.62  4218.16  4388.06  4390.64  4392.56
                             4393.18  4402.46  4417.09  4452.09  4479.81
                             4485.64  4488.27  4493.79  4499.69  4500.52

 Zero-point correction=                           0.207219 (Hartree/Particle)
 Thermal correction to Energy=                    0.216570
 Thermal correction to Enthalpy=                  0.217514
 Thermal correction to Gibbs Free Energy=         0.173228
 Sum of electronic and zero-point Energies=           -292.207532
 Sum of electronic and thermal Energies=              -292.198181
 Sum of electronic and thermal Enthalpies=            -292.197237
 Sum of electronic and thermal Free Energies=         -292.241523

                     E (Thermal)             CV                S
                      KCal/Mol        Cal/Mol-Kelvin    Cal/Mol-Kelvin
 Total                  135.900             33.538             93.208
 Electronic               0.000              0.000              0.000
 Translational            0.889              2.981             39.751
 Rotational               0.889              2.981             28.077
 Vibrational            134.122             27.577             25.379
 Vibration     1          0.596              1.974              4.538
 Vibration     2          0.598              1.968              4.134
 Vibration     3          0.614              1.916              2.837
 Vibration     4          0.638              1.838              2.118
 Vibration     5          0.651              1.800              1.902
 Vibration     6          0.663              1.760              1.720
 Vibration     7          0.680              1.712              1.537
 Vibration     8          0.688              1.686              1.454
 Vibration     9          0.748              1.518              1.048
 Vibration    10          0.788              1.414              0.872
 Vibration    11          0.846              1.271              0.682
 Vibration    12          0.855              1.252              0.660

 Optimization completed.
    -- Stationary point found.
 Normal termination of Gaussian 16 at Mon Aug 24 16:51:06 2020.
 Gaussian 16:  ES64L-G16RevA.03 25-Dec-2016

 ----------------------------------------------------------------------
 # TD(NStates=10, Root=1) B3LYP/6-31G* scf=qc volume pop=NPA density=cu
 rrent Geom=AllCheck Guess=Read
 ----------------------------------------------------------------------

 Structure from the checkpoint file:  "base_4_conf183.chk"
 -------------------
 Title Card Required
 -------------------
 Charge =  0 Multiplicity = 1

                         Standard orientation:
 ---------------------------------------------------------------------
 Center     Atomic      Atomic             Coordinates (Angstroms)
 Number     Number       Type             X           Y           Z
 ---------------------------------------------------------------------
      1          6           0        0.000663    2.095797    0.446927
      2          6           0        0.000139    1.018665   -0.654129
      3          7           0       -0.000137   -0.384103   -0.222343
      4          6           0        1.209289   -0.797086    0.494590
      5          6           0        2.492379   -0.657553   -0.327331
      6          6           0       -1.209679   -0.796596    0.494674
      7          6           0       -2.492726   -0.656934   -0.327299
      8          1           0        0.000809    3.093499   -0.007734
      9          1           0        0.885770    2.025475    1.089103
     10          1           0       -0.884167    2.025931    1.089533
     11          1           0        0.871787    1.167141   -1.300419
     12          1           0       -0.871699    1.167589   -1.300057
     13          1           0        1.076680   -1.856364    0.748222
     14          1           0        1.333980   -0.268419    1.460465
     15          1           0        2.375504   -1.140275   -1.303677
     16          1           0        3.324522   -1.138399    0.199214
     17          1           0        2.774432    0.387523   -0.493705
     18          1           0       -1.334237   -0.267685    1.460431
     19          1           0       -1.077348   -1.855852    0.748543
     20          1           0       -2.774552    0.388168   -0.493891
     21          1           0       -3.324988   -1.137488    0.199324
     22          1           0       -2.375930   -1.139877   -1.303544
 ---------------------------------------------------------------------

 SCF Done:  E(RB3LYP) =  -292.414751070     a.u. after    1 cycles

 Excitation energies and oscillator strengths:

 Excited State   1:      Singlet-A      6.4987 eV  190.78 nm  f=0.0079  <S**2>=0.000
      29 -> 30         0.70473
 This state for optimization and/or second-order correction.
 Total Energy, E(TD-HF/TD-DFT) =  -292.175928676
 Copying the excited state density for this state as the 1-particle RhoCI density.

 Excited State   2:      Singlet-A      7.4730 eV  165.91 nm  f=0.0232  <S**2>=0.000
      29 -> 31         0.70552

 Excited State   3:      Singlet-A      7.6247 eV  162.61 nm  f=0.0131  <S**2>=0.000
      29 -> 32         0.70310

 Excited State   4:      Singlet-A      7.8730 eV  157.48 nm  f=0.0218  <S**2>=0.000
      29 -> 33         0.70389

 Excited State   5:      Singlet-A      8.4418 eV  146.87 nm  f=0.0199  <S**2>=0.000
      29 -> 35         0.67631
      29 -> 36        -0.16733

 Excited State   6:      Singlet-A      8.4866 eV  146.09 nm  f=0.0166  <S**2>=0.000
      29 -> 34         0.69649

 Excited State   7:      Singlet-A      8.8192 eV  140.58 nm  f=0.0000  <S**2>=0.000
      29 -> 35         0.17067
      29 -> 36         0.68439

 Excited State   8:      Singlet-A      9.0096 eV  137.61 nm  f=0.0158  <S**2>=0.000
      29 -> 37         0.67494
      29 -> 39         0.16619
      29 -> 40         0.11610

 Excited State   9:      Singlet-A      9.2349 eV  134.26 nm  f=0.0005  <S**2>=0.000
      29 -> 38         0.69652

 Excited State  10:      Singlet-A      9.3304 eV  132.88 nm  f=0.0056  <S**2>=0.000
      29 -> 37        -0.17953
      29 -> 39         0.62959
      29 -> 40         0.15902
      29 -> 42        -0.14701

 The electronic state is 1-A.
 Alpha  occ. eigenvalues --  -14.31184 -10.20022 -10.20021 -10.19852 -10.17057
 Alpha  occ. eigenvalues --  -10.17057 -10.16967  -0.90767  -0.75545  -0.74669
 Alpha  occ. eigenvalues --   -0.70129  -0.63657  -0.60343  -0.54606  -0.48260
 Alpha  occ. eigenvalues --   -0.47726  -0.43717  -0.42026  -0.40686  -0.40526
 Alpha  occ. eigenvalues --   -0.38961  -0.37201  -0.36004  -0.35722  -0.34288
 Alpha  occ. eigenvalues --   -0.33594  -0.32679  -0.32320  -0.19876
 Alpha virt. eigenvalues --    0.07757   0.11110   0.12174   0.12640   0.15219
 Alpha virt. eigenvalues --    0.15344   0.16097   0.16631   0.17627   0.18028
 Alpha virt. eigenvalues --    0.18529   0.19307   0.20500   0.21149   0.21755

 Mulliken charges:
               1
     1  C   -0.343878
     2  C   -0.107987
     3  N   -0.203723
     4  C   -0.094784
     5  C   -0.420816
     6  C   -0.094797
     7  C   -0.420832
     8  H    0.098109
     9  H    0.068008
    10  H    0.067991
    11  H    0.117374
    12  H    0.117358
    13  H    0.084156
    14  H    0.149882
    15  H    0.137289
    16  H    0.126851
    17  H    0.110786
    18  H    0.149871
    19  H    0.084162
    20  H    0.110799
    21  H    0.126873
    22  H    0.137309
 Sum of Mulliken charges =   0.00000

 Dipole moment (field-independent basis, Debye):
    X=             -0.0008    Y=             -1.1242    Z=             -0.2757  Tot=              1.1575
 Quadrupole moment (field-independent basis, Debye-Ang):
   XX=            -52.0187   YY=            -53.4611   ZZ=            -48.9092
   XY=             -0.0001   XZ=             -0.0000   YZ=             -0.7884

 Summary of Natural Population Analysis:

                                       Natural Population
                Natural  -----------------------------------------------
    Atom  No    Charge         Core      Valence    Rydberg      Total
 -----------------------------------------------------------------------
      C    1   -0.69270      1.99940     4.68119    0.01211     6.69270
      C    2   -0.31824      1.99931     4.29914    0.01979     6.31824
      N    3   -0.02583      1.99931     5.01758    0.00893     7.02583
      C    4   -0.31837      1.99931     4.30075    0.01831     6.31837
      C    5   -0.70035      1.99945     4.69066    0.01024     6.70035
      C    6   -0.31837      1.99931     4.30075    0.01832     6.31837
      C    7   -0.70034      1.99945     4.69065    0.01024     6.70034
      H    8    0.20309      0.00000     0.77698    0.01993     0.79691
      H    9    0.17027      0.00000     0.79549    0.03424     0.82973
      H   10    0.17026      0.00000     0.79550    0.03424     0.82974
      H   11    0.20849      0.00000     0.76783    0.02369     0.79151
      H   12    0.20847      0.00000     0.76784    0.02369     0.79153
      H   13    0.18026      0.00000     0.78713    0.03262     0.81974
      H   14    0.23518      0.00000     0.73757    0.02725     0.76482
      H   15    0.22453      0.00000     0.76923    0.00624     0.77547
      H   16    0.22037      0.00000     0.76909    0.01054     0.77963
      H   17    0.19646      0.00000     0.77928    0.02426     0.80354
      H   18    0.23516      0.00000     0.73758    0.02725     0.76484
      H   19    0.18026      0.00000     0.78713    0.03261     0.81974
      H   20    0.19647      0.00000     0.77928    0.02425     0.80353
      H   21    0.22038      0.00000     0.76908    0.01054     0.77962
      H   22    0.22455      0.00000     0.76922    0.00623     0.77545
 =======================================================================
   * Total *    0.00000     13.99553    43.56896    0.43551    58.00000

 Normal termination of Gaussian 16 at Mon Aug 24 16:54:57 2020.
