 Gaussian 16, Revision A.03,

 ---------------------------------
 # opt=CalcAll B3LYP/6-31G* scf=qc
 ---------------------------------

 -------------------
 Title Card Required
 -------------------
 Symbolic Z-matrix:
 Charge =  0 Multiplicity = 1

 SCF Done:  E(RB3LYP) =  -519.745377949     a.u. after    9 cycles
 SCF Done:  E(RB3LYP) =  -519.775163047     a.u. after   13 cycles
 SCF Done:  E(RB3LYP) =  -519.812814342     a.u. after   15 cycles
 SCF Done:  E(RB3LYP) =  -519.821321433     a.u. after   15 cycles
 SCF Done:  E(RB3LYP) =  -519.826402892     a.u. after   15 cycles
 SCF Done:  E(RB3LYP) =  -519.824496504     a.u. after   15 cycles
 SCF Done:  E(RB3LYP) =  -519.823782623     a.u. after   14 cycles
 SCF Done:  E(RB3LYP) =  -519.822715789     a.u. after    9 cycles
 SCF Done:  E(RB3LYP) =  -519.826434143     a.u. after    3 cycles
 SCF Done:  E(RB3LYP) =  -519.828608385     a.u. after   13 cycles
 SCF Done:  E(RB3LYP) =  -519.829422598     a.u. after    9 cycles
 SCF Done:  E(RB3LYP) =  -519.829451226     a.u. after    5 cycles
 SCF Done:  E(RB3LYP) =  -519.829452351     a.u. after    2 cycles
 Optimization completed.
    -- Stationary point found.
 Normal termination of Gaussian 16 at Mon Aug 24 17:25:25 2020.

 ----------------------------------------------------------------------
 # freq B3LYP/6-31G* scf=qc volume NMR pop=NPA density=current Geom=All
 Check Guess=Read
 ----------------------------------------------------------------------

 Structure from the checkpoint file:  "base_3_conf42.chk"
 -------------------
 Title Card Required
 -------------------
 Charge =  0 Multiplicity = 1

 SCF Done:  E(RB3LYP) =  -519.829452351     a.u. after    1 cycles

      1  N    Isotropic =   210.2894   Anisotropy =    59.8301

      2  C    Isotropic =    44.7783   Anisotropy =    69.4601

      3  N    Isotropic =    19.7213   Anisotropy =   285.3828

      4  C    Isotropic =   135.3689   Anisotropy =    31.4258

      5  C    Isotropic =   163.0963   Anisotropy =    32.4348

      6  C    Isotropic =   152.7008   Anisotropy =    46.8988

      7  C    Isotropic =   159.1542   Anisotropy =    39.1435

      8  N    Isotropic =   182.1552   Anisotropy =    82.9095

      9  C    Isotropic =   152.1209   Anisotropy =    52.2872

     10  C    Isotropic =   150.8919   Anisotropy =    45.6696

     11  C    Isotropic =   148.0080   Anisotropy =    53.5537

     12  C    Isotropic =   151.6473   Anisotropy =    54.8054

     13  H    Isotropic =    31.0887   Anisotropy =     5.7448

     14  H    Isotropic =    30.5616   Anisotropy =     6.0574

     15  H    Isotropic =    31.0452   Anisotropy =     7.8894

     16  H    Isotropic =    31.0196   Anisotropy =     6.5447

     17  H    Isotropic =    31.1936   Anisotropy =     8.2926

     18  H    Isotropic =    30.5394   Anisotropy =     6.6860

     19  H    Isotropic =    30.9927   Anisotropy =     5.7580

     20  H    Isotropic =    30.7495   Anisotropy =     6.9871

     21  H    Isotropic =    31.0561   Anisotropy =     8.2228

     22  H    Isotropic =    29.5585   Anisotropy =     4.5850

     23  H    Isotropic =    29.8833   Anisotropy =     9.0933

     24  H    Isotropic =    29.9835   Anisotropy =     9.2576

     25  H    Isotropic =    29.3341   Anisotropy =     7.1025

     26  H    Isotropic =    29.7957   Anisotropy =     8.3950

     27  H    Isotropic =    30.2739   Anisotropy =     9.0302

     28  H    Isotropic =    29.2969   Anisotropy =     6.0184

     29  H    Isotropic =    29.5093   Anisotropy =     7.9126

     30  H    Isotropic =    29.8060   Anisotropy =     9.4485

     31  H    Isotropic =    29.2312   Anisotropy =     6.8424

     32  H    Isotropic =    29.8845   Anisotropy =     8.3731

     33  H    Isotropic =    29.7705   Anisotropy =     9.6436

  Exact polarizability: 143.945   1.404 121.707  -0.482  -0.836  96.881
 Approx polarizability: 189.262   5.919 166.672  -4.471  -1.899 139.887

                      1                      2                      3
                      A                      A                      A
 Frequencies --     31.7888                67.1459                88.9747
 Red. masses --      2.5931                 2.7506                 2.5814
 Frc consts  --      0.0015                 0.0073                 0.0120
 IR Inten    --      0.2107                 0.4453                 2.1976

                      4                      5                      6
                      A                      A                      A
 Frequencies --    129.2068               133.8245               148.2527
 Red. masses --      1.7577                 2.1579                 2.0180
 Frc consts  --      0.0173                 0.0228                 0.0261
 IR Inten    --      2.0488                 1.3562                 0.6992

                      7                      8                      9
                      A                      A                      A
 Frequencies --    184.8218               201.8000               215.2280
 Red. masses --      1.7138                 1.2801                 1.1420
 Frc consts  --      0.0345                 0.0307                 0.0312
 IR Inten    --      0.2928                 0.5190                 0.1783

                     10                     11                     12
                      A                      A                      A
 Frequencies --    218.5094               226.4125               248.9428
 Red. masses --      1.1529                 1.5806                 1.3227
 Frc consts  --      0.0324                 0.0477                 0.0483
 IR Inten    --      0.9405                 1.0720                 2.4261

                     13                     14                     15
                      A                      A                      A
 Frequencies --    266.0824               271.3674               292.0504
 Red. masses --      1.1291                 1.9205                 1.3850
 Frc consts  --      0.0471                 0.0833                 0.0696
 IR Inten    --      1.3168                 0.8373                 3.1158

                     16                     17                     18
                      A                      A                      A
 Frequencies --    304.3340               329.8141               351.0487
 Red. masses --      2.2060                 2.7728                 2.4062
 Frc consts  --      0.1204                 0.1777                 0.1747
 IR Inten    --      4.3759                 2.8825                 1.3136

                     19                     20                     21
                      A                      A                      A
 Frequencies --    372.0327               379.4720               408.7510
 Red. masses --      2.6623                 2.4120                 2.4176
 Frc consts  --      0.2171                 0.2046                 0.2380
 IR Inten    --      5.5076                 1.4037                 1.9097

                     22                     23                     24
                      A                      A                      A
 Frequencies --    454.6453               503.9390               532.4546
 Red. masses --      2.4206                 3.5027                 3.2035
 Frc consts  --      0.2948                 0.5241                 0.5351
 IR Inten    --      0.7070                 8.1051                 0.1378

                     25                     26                     27
                      A                      A                      A
 Frequencies --    589.2178               694.2827               761.2905
 Red. masses --      3.4187                 5.2931                 7.6801
 Frc consts  --      0.6993                 1.5033                 2.6225
 IR Inten    --      9.8929                 2.2525                 9.2644

                     28                     29                     30
                      A                      A                      A
 Frequencies --    783.5674               909.8127               919.7668
 Red. masses --      3.6161                 2.3085                 2.3675
 Frc consts  --      1.3081                 1.1259                 1.1801
 IR Inten    --      1.1026                 8.5058                 5.8124

                     31                     32                     33
                      A                      A                      A
 Frequencies --    927.0644               953.4051               967.3278
 Red. masses --      1.7093                 3.0534                 1.2051
 Frc consts  --      0.8655                 1.6353                 0.6644
 IR Inten    --      0.4795                 5.8358                 0.2339

                     34                     35                     36
                      A                      A                      A
 Frequencies --   1045.2752              1056.1506              1065.6294
 Red. masses --      1.7839                 1.3961                 1.5136
 Frc consts  --      1.1483                 0.9175                 1.0127
 IR Inten    --     59.4024                 3.1466                18.5712

                     37                     38                     39
                      A                      A                      A
 Frequencies --   1081.0470              1096.9204              1131.7420
 Red. masses --      1.4307                 1.3800                 1.5461
 Frc consts  --      0.9851                 0.9783                 1.1668
 IR Inten    --     11.5227                 3.4041                82.6910

                     40                     41                     42
                      A                      A                      A
 Frequencies --   1135.6706              1149.6722              1182.2023
 Red. masses --      1.4523                 1.3527                 1.3499
 Frc consts  --      1.1036                 1.0534                 1.1116
 IR Inten    --     72.8900                32.7804                 3.4596

                     43                     44                     45
                      A                      A                      A
 Frequencies --   1184.2626              1246.4786              1248.4771
 Red. masses --      1.4162                 2.5045                 2.7357
 Frc consts  --      1.1702                 2.2926                 2.5124
 IR Inten    --     20.8585                79.1191                12.1239

                     46                     47                     48
                      A                      A                      A
 Frequencies --   1256.1648              1268.9123              1284.0589
 Red. masses --      2.8665                 4.4914                 4.9224
 Frc consts  --      2.6650                 4.2608                 4.7819
 IR Inten    --     14.1615                41.0476                18.1316

                     49                     50                     51
                      A                      A                      A
 Frequencies --   1361.3027              1396.7806              1416.9323
 Red. masses --      2.9648                 3.0561                 1.2428
 Frc consts  --      3.2371                 3.5129                 1.4701
 IR Inten    --     14.5958               206.1663                 3.4993

                     52                     53                     54
                      A                      A                      A
 Frequencies --   1419.9582              1448.5289              1460.9749
 Red. masses --      1.2393                 1.2243                 1.1540
 Frc consts  --      1.4722                 1.5135                 1.4512
 IR Inten    --      6.5734                 4.6983                 0.6063

                     55                     56                     57
                      A                      A                      A
 Frequencies --   1466.6279              1483.2353              1494.6400
 Red. masses --      1.1374                 1.1680                 1.1628
 Frc consts  --      1.4414                 1.5140                 1.5305
 IR Inten    --      2.7396                15.0107                13.8272

                     58                     59                     60
                      A                      A                      A
 Frequencies --   1503.5552              1505.1984              1509.6035
 Red. masses --      1.0581                 1.0730                 1.0572
 Frc consts  --      1.4094                 1.4323                 1.4195
 IR Inten    --      3.0699                 5.2862                 4.6257

                     61                     62                     63
                      A                      A                      A
 Frequencies --   1511.9145              1514.8636              1516.3342
 Red. masses --      1.0471                 1.0523                 1.0466
 Frc consts  --      1.4102                 1.4228                 1.4178
 IR Inten    --      0.7662                 7.9012                 0.7403

                     64                     65                     66
                      A                      A                      A
 Frequencies --   1518.9840              1529.4207              1530.7194
 Red. masses --      1.0656                 1.0537                 1.0553
 Frc consts  --      1.4485                 1.4522                 1.4568
 IR Inten    --      8.2060                11.1413                 7.1417

                     67                     68                     69
                      A                      A                      A
 Frequencies --   1532.5423              1542.1406              1545.6590
 Red. masses --      1.0560                 1.0552                 1.0546
 Frc consts  --      1.4613                 1.4785                 1.4845
 IR Inten    --      2.0740                10.0147                11.0830

                     70                     71                     72
                      A                      A                      A
 Frequencies --   1550.5354              1566.2880              1702.2325
 Red. masses --      1.0766                 1.1167                 9.2282
 Frc consts  --      1.5250                 1.6142                15.7546
 IR Inten    --      6.8323                30.5594               472.1502

                     73                     74                     75
                      A                      A                      A
 Frequencies --   2977.6214              2984.0467              2988.7471
 Red. masses --      1.0497                 1.0557                 1.0574
 Frc consts  --      5.4836                 5.5387                 5.5653
 IR Inten    --     40.0049               129.3997               103.9600

                     76                     77                     78
                      A                      A                      A
 Frequencies --   3015.9076              3025.4323              3033.8670
 Red. masses --      1.0490                 1.0905                 1.0906
 Frc consts  --      5.6217                 5.8810                 5.9142
 IR Inten    --     79.6903                63.2900                35.9633

                     79                     80                     81
                      A                      A                      A
 Frequencies --   3041.6411              3047.7721              3055.0891
 Red. masses --      1.0357                 1.0376                 1.0387
 Frc consts  --      5.6457                 5.6786                 5.7119
 IR Inten    --     23.1683                29.1420                36.2113

                     82                     83                     84
                      A                      A                      A
 Frequencies --   3078.3536              3081.7939              3104.8622
 Red. masses --      1.0852                 1.0916                 1.1015
 Frc consts  --      6.0588                 6.1083                 6.2563
 IR Inten    --     26.9962                65.0514                 1.5153

                     85                     86                     87
                      A                      A                      A
 Frequencies --   3110.6849              3116.9782              3126.3886
 Red. masses --      1.1010                 1.1007                 1.1027
 Frc consts  --      6.2769                 6.3005                 6.3502
 IR Inten    --     29.0533                82.1153                15.0802

                     88                     89                     90
                      A                      A                      A
 Frequencies --   3130.3729              3154.6900              3163.3321
 Red. masses --      1.1019                 1.0964                 1.0940
 Frc consts  --      6.3618                 6.4291                 6.4498
 IR Inten    --     49.6178                29.9693                 9.0021

                     91                     92                     93
                      A                      A                      A
 Frequencies --   3167.7230              3168.4215              3170.2396
 Red. masses --      1.0968                 1.0947                 1.0924
 Frc consts  --      6.4843                 6.4749                 6.4686
 IR Inten    --     13.4825                20.0626                 8.4827

 - Thermochemistry -
 -------------------
 Temperature   298.150 Kelvin.  Pressure   1.00000 Atm.
 Atom     1 has atomic number  7 and mass  14.00307

 Molecular mass:   171.17355 amu.
 Principal axes and moments of inertia in atomic units:
                           1         2         3
     Eigenvalues --  1507.521382533.371793285.51165
           X            1.00000   0.00073   0.00244
           Y           -0.00074   0.99999   0.00428
           Z           -0.00244  -0.00428   0.99999
 This molecule is an asymmetric top.
 Rotational symmetry number  1.
 Warning -- assumption of classical behavior for rotation
           may cause significant error
 Rotational temperatures (Kelvin)      0.05745     0.03419     0.02636
 Rotational constants (GHZ):           1.19716     0.71239     0.54930
 Zero-point vibrational energy     789967.4 (Joules/Mol)
                                  188.80674 (Kcal/Mol)
 Warning -- explicit consideration of  25 degrees of freedom as
           vibrations may cause significant error
 Vibrational temperatures:     45.74    96.61   128.01   185.90   192.54
          (Kelvin)            213.30   265.92   290.35   309.67   314.39
                              325.76   358.17   382.83   390.44   420.20
                              437.87   474.53   505.08   535.27   545.98
                              588.10   654.13   725.06   766.08   847.75
                              998.92  1095.33  1127.38  1309.02  1323.34
                             1333.84  1371.74  1391.77  1503.92  1519.57
                             1533.20  1555.39  1578.22  1628.32  1633.98
                             1654.12  1700.93  1703.89  1793.40  1796.28
                             1807.34  1825.68  1847.47  1958.61  2009.66
                             2038.65  2043.00  2084.11  2102.02  2110.15
                             2134.04  2150.45  2163.28  2165.64  2171.98
                             2175.31  2179.55  2181.67  2185.48  2200.50
                             2202.36  2204.99  2218.80  2223.86  2230.87
                             2253.54  2449.13  4284.13  4293.38  4300.14
                             4339.22  4352.92  4365.06  4376.24  4385.06
                             4395.59  4429.06  4434.01  4467.20  4475.58
                             4484.64  4498.18  4503.91  4538.90  4551.33
                             4557.65  4558.65  4561.27

 Zero-point correction=                           0.300883 (Hartree/Particle)
 Thermal correction to Energy=                    0.316645
 Thermal correction to Enthalpy=                  0.317589
 Thermal correction to Gibbs Free Energy=         0.259213
 Sum of electronic and zero-point Energies=           -519.528570
 Sum of electronic and thermal Energies=              -519.512808
 Sum of electronic and thermal Enthalpies=            -519.511863
 Sum of electronic and thermal Free Energies=         -519.570240

                     E (Thermal)             CV                S
                      KCal/Mol        Cal/Mol-Kelvin    Cal/Mol-Kelvin
 Total                  198.698             57.739            122.863
 Electronic               0.000              0.000              0.000
 Translational            0.889              2.981             41.320
 Rotational               0.889              2.981             30.907
 Vibrational            196.920             51.778             50.636
 Vibration     1          0.594              1.983              5.715
 Vibration     2          0.598              1.970              4.235
 Vibration     3          0.602              1.957              3.682
 Vibration     4          0.612              1.924              2.958
 Vibration     5          0.613              1.920              2.890
 Vibration     6          0.618              1.905              2.695
 Vibration     7          0.631              1.861              2.279
 Vibration     8          0.639              1.837              2.117
 Vibration     9          0.645              1.818              1.999
 Vibration    10          0.646              1.813              1.971
 Vibration    11          0.650              1.801              1.907
 Vibration    12          0.662              1.765              1.738
 Vibration    13          0.672              1.735              1.622
 Vibration    14          0.675              1.726              1.587
 Vibration    15          0.687              1.689              1.462
 Vibration    16          0.695              1.665              1.393
 Vibration    17          0.713              1.616              1.261
 Vibration    18          0.728              1.573              1.161
 Vibration    19          0.744              1.530              1.071
 Vibration    20          0.749              1.514              1.041
 Vibration    21          0.773              1.451              0.931
 Vibration    22          0.813              1.351              0.782
 Vibration    23          0.859              1.241              0.648
 Vibration    24          0.887              1.178              0.582
 Vibration    25          0.946              1.055              0.469

 Optimization completed.
    -- Stationary point found.
 Normal termination of Gaussian 16 at Mon Aug 24 17:32:23 2020.
 Gaussian 16:  ES64L-G16RevA.03 25-Dec-2016

 ----------------------------------------------------------------------
 # TD(NStates=10, Root=1) B3LYP/6-31G* scf=qc volume pop=NPA density=cu
 rrent Geom=AllCheck Guess=Read
 ----------------------------------------------------------------------

 Structure from the checkpoint file:  "base_3_conf43.chk"
 -------------------
 Title Card Required
 -------------------
 Charge =  0 Multiplicity = 1

                         Standard orientation:
 ---------------------------------------------------------------------
 Center     Atomic      Atomic             Coordinates (Angstroms)
 Number     Number       Type             X           Y           Z
 ---------------------------------------------------------------------
      1          7           0        0.845150    1.214589   -0.137598
      2          6           0        0.568776   -0.158471    0.029918
      3          7           0       -0.561561   -0.724371    0.241544
      4          6           0       -1.910558   -0.200732   -0.003589
      5          6           0       -2.024001    0.948715   -1.028556
      6          6           0       -2.696515   -1.411249   -0.562047
      7          6           0       -2.558654    0.206728    1.336796
      8          7           0        1.707798   -0.975516   -0.093764
      9          6           0        2.889002   -0.652483    0.699792
     10          6           0        1.483809   -2.407755   -0.226576
     11          6           0        0.485906    2.182310    0.877816
     12          6           0        1.762545    1.690229   -1.155336
     13          1           0       -1.508437    0.688715   -1.959967
     14          1           0       -1.611154    1.891209   -0.663720
     15          1           0       -3.080547    1.121177   -1.267779
     16          1           0       -2.272574   -1.732299   -1.520448
     17          1           0       -3.752915   -1.161064   -0.719382
     18          1           0       -2.632808   -2.254373    0.132953
     19          1           0       -2.101585    1.109488    1.754548
     20          1           0       -2.449489   -0.600854    2.068319
     21          1           0       -3.628240    0.408319    1.202192
     22          1           0        2.987574    0.427099    0.817183
     23          1           0        3.790214   -1.030586    0.202845
     24          1           0        2.839872   -1.103998    1.705223
     25          1           0        0.676143   -2.587637   -0.936631
     26          1           0        1.202384   -2.879950    0.726940
     27          1           0        2.406212   -2.873743   -0.593088
     28          1           0       -0.080201    1.693671    1.671215
     29          1           0       -0.121960    3.005128    0.472001
     30          1           0        1.388099    2.631322    1.327373
     31          1           0        1.992107    0.880166   -1.848834
     32          1           0        2.711224    2.064277   -0.733686
     33          1           0        1.304504    2.517261   -1.717839
 ---------------------------------------------------------------------

 SCF Done:  E(RB3LYP) =  -519.829452351     a.u. after    1 cycles

 Excitation energies and oscillator strengths:

 Excited State   1:      Singlet-A      5.4515 eV  227.43 nm  f=0.0042  <S**2>=0.000
      46 -> 49         0.30894
      47 -> 49         0.51870
      48 -> 49        -0.36050
 This state for optimization and/or second-order correction.
 Total Energy, E(TD-HF/TD-DFT) =  -519.629114388
 Copying the excited state density for this state as the 1-particle RhoCI density.

 Excited State   2:      Singlet-A      5.9977 eV  206.72 nm  f=0.1131  <S**2>=0.000
      46 -> 49         0.57308
      48 -> 49         0.39146

 Excited State   3:      Singlet-A      6.2848 eV  197.28 nm  f=0.2789  <S**2>=0.000
      46 -> 49        -0.25423
      47 -> 49         0.45924
      48 -> 49         0.44139

 Excited State   4:      Singlet-A      6.4985 eV  190.79 nm  f=0.0068  <S**2>=0.000
      47 -> 50        -0.10236
      48 -> 50         0.68374

 Excited State   5:      Singlet-A      6.9201 eV  179.17 nm  f=0.0289  <S**2>=0.000
      46 -> 50        -0.24403
      47 -> 50         0.64075
      48 -> 50         0.12538

 Excited State   6:      Singlet-A      7.0578 eV  175.67 nm  f=0.0037  <S**2>=0.000
      46 -> 50         0.64309
      47 -> 50         0.26119

 Excited State   7:      Singlet-A      7.4164 eV  167.18 nm  f=0.0078  <S**2>=0.000
      48 -> 51         0.68246
      48 -> 53        -0.11772

 Excited State   8:      Singlet-A      7.6924 eV  161.18 nm  f=0.0147  <S**2>=0.000
      48 -> 52         0.68149

 Excited State   9:      Singlet-A      7.8211 eV  158.52 nm  f=0.0223  <S**2>=0.000
      47 -> 51         0.67156

 Excited State  10:      Singlet-A      7.9410 eV  156.13 nm  f=0.0095  <S**2>=0.000
      46 -> 51         0.58541
      46 -> 52         0.13023
      47 -> 52        -0.13706
      47 -> 53         0.10845
      48 -> 51        -0.10691
      48 -> 53        -0.27307

 The electronic state is 1-A.
 Alpha  occ. eigenvalues --  -14.33742 -14.33696 -14.27855 -10.26424 -10.21164
 Alpha  occ. eigenvalues --  -10.20867 -10.20858 -10.20809 -10.19422 -10.16070
 Alpha  occ. eigenvalues --  -10.15854 -10.15373  -0.96890  -0.89945  -0.86533
 Alpha  occ. eigenvalues --   -0.77042  -0.71591  -0.70449  -0.68210  -0.67182
 Alpha  occ. eigenvalues --   -0.66538  -0.63323  -0.56682  -0.52425  -0.50149
 Alpha  occ. eigenvalues --   -0.47227  -0.46454  -0.45260  -0.44299  -0.43262
 Alpha  occ. eigenvalues --   -0.42363  -0.41918  -0.40387  -0.39514  -0.38972
 Alpha  occ. eigenvalues --   -0.38246  -0.37734  -0.37449  -0.37225  -0.36392
 Alpha  occ. eigenvalues --   -0.35384  -0.34810  -0.32836  -0.31471  -0.29727
 Alpha  occ. eigenvalues --   -0.22026  -0.21458  -0.20160
 Alpha virt. eigenvalues --    0.04029   0.07085   0.10340   0.11255   0.12771
 Alpha virt. eigenvalues --    0.13209   0.13951   0.14387   0.15222   0.15691
 Alpha virt. eigenvalues --    0.16177   0.16815   0.17107   0.17445   0.18035

 Mulliken charges:
               1
     1  N   -0.398677
     2  C    0.525279
     3  N   -0.425532
     4  C    0.189159
     5  C   -0.441568
     6  C   -0.432084
     7  C   -0.426074
     8  N   -0.405472
     9  C   -0.293792
    10  C   -0.296458
    11  C   -0.307242
    12  C   -0.300368
    13  H    0.156981
    14  H    0.160004
    15  H    0.145302
    16  H    0.144897
    17  H    0.129696
    18  H    0.147220
    19  H    0.136490
    20  H    0.146016
    21  H    0.125526
    22  H    0.152090
    23  H    0.135123
    24  H    0.113161
    25  H    0.159778
    26  H    0.122881
    27  H    0.140110
    28  H    0.174940
    29  H    0.137865
    30  H    0.129745
    31  H    0.180836
    32  H    0.139293
    33  H    0.134876
 Sum of Mulliken charges =  -0.00000

 Dipole moment (field-independent basis, Debye):
    X=             -0.0431    Y=              1.1410    Z=             -0.3624  Tot=              1.1980
 Quadrupole moment (field-independent basis, Debye-Ang):
   XX=            -74.9258   YY=            -74.9276   ZZ=            -77.9269
   XY=              0.2949   XZ=              0.3602   YZ=              0.3641

 Summary of Natural Population Analysis:

                                       Natural Population
                Natural  -----------------------------------------------
    Atom  No    Charge         Core      Valence    Rydberg      Total
 -----------------------------------------------------------------------
      N    1   -0.45652      1.99935     5.44459    0.01258     7.45652
      C    2    0.37821      1.99913     3.58838    0.03428     5.62179
      N    3   -0.33340      1.99898     5.31528    0.01914     7.33340
      C    4    0.09787      1.99908     3.88404    0.01901     5.90213
      C    5   -0.66113      1.99931     4.65235    0.00947     6.66113
      C    6   -0.66529      1.99935     4.65562    0.01032     6.66529
      C    7   -0.67641      1.99935     4.66659    0.01047     6.67641
      N    8   -0.49703      1.99939     5.48377    0.01386     7.49703
      C    9   -0.46049      1.99946     4.44880    0.01223     6.46049
      C   10   -0.46742      1.99949     4.45528    0.01265     6.46742
      C   11   -0.46579      1.99946     4.45404    0.01230     6.46579
      C   12   -0.46965      1.99946     4.45744    0.01275     6.46965
      H   13    0.24186      0.00000     0.75709    0.00105     0.75814
      H   14    0.23573      0.00000     0.76320    0.00107     0.76427
      H   15    0.23710      0.00000     0.76152    0.00137     0.76290
      H   16    0.23363      0.00000     0.76517    0.00120     0.76637
      H   17    0.22189      0.00000     0.77654    0.00157     0.77811
      H   18    0.23511      0.00000     0.76367    0.00121     0.76489
      H   19    0.22196      0.00000     0.77712    0.00092     0.77804
      H   20    0.23745      0.00000     0.76112    0.00143     0.76255
      H   21    0.22115      0.00000     0.77708    0.00177     0.77885
      H   22    0.22286      0.00000     0.77625    0.00090     0.77714
      H   23    0.21401      0.00000     0.78373    0.00226     0.78599
      H   24    0.18700      0.00000     0.80649    0.00651     0.81300
      H   25    0.23466      0.00000     0.76446    0.00088     0.76534
      H   26    0.19239      0.00000     0.80292    0.00469     0.80761
      H   27    0.22152      0.00000     0.77750    0.00097     0.77848
      H   28    0.23568      0.00000     0.76342    0.00090     0.76432
      H   29    0.20621      0.00000     0.79193    0.00186     0.79379
      H   30    0.20606      0.00000     0.79016    0.00378     0.79394
      H   31    0.25078      0.00000     0.74820    0.00102     0.74922
      H   32    0.21064      0.00000     0.78734    0.00202     0.78936
      H   33    0.20936      0.00000     0.78808    0.00255     0.79064
 =======================================================================
   * Total *   -0.00000     23.99182    71.78919    0.21899    96.00000

 Normal termination of Gaussian 16 at Mon Aug 24 17:40:32 2020.
