 Gaussian 16, Revision A.03,

 ---------------------------------
 # opt=CalcAll B3LYP/6-31G* scf=qc
 ---------------------------------

 -------------------
 Title Card Required
 -------------------
 Symbolic Z-matrix:
 Charge =  0 Multiplicity = 1

 SCF Done:  E(RB3LYP) =  -519.717136323     a.u. after    8 cycles
 SCF Done:  E(RB3LYP) =  -519.736625085     a.u. after   13 cycles
 SCF Done:  E(RB3LYP) =  -519.785899601     a.u. after   13 cycles
 SCF Done:  E(RB3LYP) =  -519.768243821     a.u. after   17 cycles
 SCF Done:  E(RB3LYP) =  -519.816219010     a.u. after   14 cycles
 SCF Done:  E(RB3LYP) =  -519.818673575     a.u. after   13 cycles
 SCF Done:  E(RB3LYP) =  -519.826147068     a.u. after   13 cycles
 SCF Done:  E(RB3LYP) =  -519.828383708     a.u. after   11 cycles
 SCF Done:  E(RB3LYP) =  -519.829000045     a.u. after   13 cycles
 SCF Done:  E(RB3LYP) =  -519.829418763     a.u. after    9 cycles
 SCF Done:  E(RB3LYP) =  -519.829446352     a.u. after    5 cycles
 SCF Done:  E(RB3LYP) =  -519.829451161     a.u. after    3 cycles
 SCF Done:  E(RB3LYP) =  -519.829452247     a.u. after    4 cycles
 SCF Done:  E(RB3LYP) =  -519.829452358     a.u. after    2 cycles
 Optimization completed.
    -- Stationary point found.
 Normal termination of Gaussian 16 at Mon Aug 24 11:26:29 2020.

 ----------------------------------------------------------------------
 # freq B3LYP/6-31G* scf=qc volume NMR pop=NPA density=current Geom=All
 Check Guess=Read
 ----------------------------------------------------------------------

 Structure from the checkpoint file:  "base_3_conf112.chk"
 -------------------
 Title Card Required
 -------------------
 Charge =  0 Multiplicity = 1

 SCF Done:  E(RB3LYP) =  -519.829452358     a.u. after    1 cycles

      1  N    Isotropic =   210.2993   Anisotropy =    59.8248

      2  C    Isotropic =    44.7814   Anisotropy =    69.4479

      3  N    Isotropic =    19.7292   Anisotropy =   285.3580

      4  C    Isotropic =   135.3674   Anisotropy =    31.4253

      5  C    Isotropic =   163.0964   Anisotropy =    32.4309

      6  C    Isotropic =   152.7023   Anisotropy =    46.8986

      7  C    Isotropic =   159.1521   Anisotropy =    39.1466

      8  N    Isotropic =   182.1502   Anisotropy =    82.9176

      9  C    Isotropic =   150.8952   Anisotropy =    45.6738

     10  C    Isotropic =   152.1250   Anisotropy =    52.2824

     11  C    Isotropic =   148.0085   Anisotropy =    53.5572

     12  C    Isotropic =   151.6464   Anisotropy =    54.8039

     13  H    Isotropic =    31.0884   Anisotropy =     5.7439

     14  H    Isotropic =    30.5619   Anisotropy =     6.0569

     15  H    Isotropic =    31.0452   Anisotropy =     7.8891

     16  H    Isotropic =    31.0198   Anisotropy =     6.5446

     17  H    Isotropic =    31.1936   Anisotropy =     8.2927

     18  H    Isotropic =    30.5396   Anisotropy =     6.6860

     19  H    Isotropic =    30.9932   Anisotropy =     5.7586

     20  H    Isotropic =    30.7494   Anisotropy =     6.9873

     21  H    Isotropic =    31.0561   Anisotropy =     8.2228

     22  H    Isotropic =    29.3333   Anisotropy =     7.1002

     23  H    Isotropic =    29.7961   Anisotropy =     8.3968

     24  H    Isotropic =    30.2736   Anisotropy =     9.0309

     25  H    Isotropic =    29.5585   Anisotropy =     4.5842

     26  H    Isotropic =    29.8831   Anisotropy =     9.0932

     27  H    Isotropic =    29.9833   Anisotropy =     9.2586

     28  H    Isotropic =    29.2972   Anisotropy =     6.0192

     29  H    Isotropic =    29.5095   Anisotropy =     7.9138

     30  H    Isotropic =    29.8058   Anisotropy =     9.4488

     31  H    Isotropic =    29.2319   Anisotropy =     6.8430

     32  H    Isotropic =    29.8844   Anisotropy =     8.3726

     33  H    Isotropic =    29.7707   Anisotropy =     9.6432

  Exact polarizability: 143.951   1.401 121.707   0.482   0.836  96.882
 Approx polarizability: 189.269   5.914 166.670   4.470   1.899 139.887

                      1                      2                      3
                      A                      A                      A
 Frequencies --     31.8226                67.1548                88.9512
 Red. masses --      2.5933                 2.7505                 2.5805
 Frc consts  --      0.0015                 0.0073                 0.0120
 IR Inten    --      0.2106                 0.4458                 2.1988

                      4                      5                      6
                      A                      A                      A
 Frequencies --    129.1826               133.8050               148.1917
 Red. masses --      1.7529                 2.1639                 2.0198
 Frc consts  --      0.0172                 0.0228                 0.0261
 IR Inten    --      2.0515                 1.3537                 0.6973

                      7                      8                      9
                      A                      A                      A
 Frequencies --    184.8108               201.7549               215.1733
 Red. masses --      1.7120                 1.2812                 1.1408
 Frc consts  --      0.0345                 0.0307                 0.0311
 IR Inten    --      0.2913                 0.5188                 0.1779

                     10                     11                     12
                      A                      A                      A
 Frequencies --    218.4896               226.3888               248.9342
 Red. masses --      1.1535                 1.5803                 1.3234
 Frc consts  --      0.0324                 0.0477                 0.0483
 IR Inten    --      0.9386                 1.0769                 2.4276

                     13                     14                     15
                      A                      A                      A
 Frequencies --    266.0768               271.3693               292.0514
 Red. masses --      1.1287                 1.9207                 1.3856
 Frc consts  --      0.0471                 0.0833                 0.0696
 IR Inten    --      1.3132                 0.8385                 3.1174

                     16                     17                     18
                      A                      A                      A
 Frequencies --    304.3045               329.7914               351.0260
 Red. masses --      2.2049                 2.7739                 2.4068
 Frc consts  --      0.1203                 0.1778                 0.1747
 IR Inten    --      4.3733                 2.8859                 1.3166

                     19                     20                     21
                      A                      A                      A
 Frequencies --    372.0070               379.4399               408.7505
 Red. masses --      2.6629                 2.4113                 2.4176
 Frc consts  --      0.2171                 0.2045                 0.2380
 IR Inten    --      5.5080                 1.3940                 1.9088

                     22                     23                     24
                      A                      A                      A
 Frequencies --    454.6127               503.9335               532.4468
 Red. masses --      2.4208                 3.5029                 3.2034
 Frc consts  --      0.2948                 0.5241                 0.5351
 IR Inten    --      0.7060                 8.1072                 0.1377

                     25                     26                     27
                      A                      A                      A
 Frequencies --    589.1892               694.2721               761.2813
 Red. masses --      3.4185                 5.2932                 7.6807
 Frc consts  --      0.6992                 1.5032                 2.6226
 IR Inten    --      9.8872                 2.2530                 9.2677

                     28                     29                     30
                      A                      A                      A
 Frequencies --    783.5506               909.7988               919.7565
 Red. masses --      3.6162                 2.3092                 2.3668
 Frc consts  --      1.3081                 1.1262                 1.1797
 IR Inten    --      1.1009                 8.5131                 5.8046

                     31                     32                     33
                      A                      A                      A
 Frequencies --    927.0516               953.3990               967.3209
 Red. masses --      1.7093                 3.0536                 1.2051
 Frc consts  --      0.8655                 1.6353                 0.6644
 IR Inten    --      0.4796                 5.8370                 0.2333

                     34                     35                     36
                      A                      A                      A
 Frequencies --   1045.2716              1056.1415              1065.6219
 Red. masses --      1.7839                 1.3961                 1.5135
 Frc consts  --      1.1484                 0.9175                 1.0126
 IR Inten    --     59.4234                 3.1473                18.5692

                     37                     38                     39
                      A                      A                      A
 Frequencies --   1081.0532              1096.9126              1131.7300
 Red. masses --      1.4305                 1.3800                 1.5482
 Frc consts  --      0.9850                 0.9783                 1.1683
 IR Inten    --     11.5210                 3.4039                83.1846

                     40                     41                     42
                      A                      A                      A
 Frequencies --   1135.6612              1149.6598              1182.1976
 Red. masses --      1.4507                 1.3525                 1.3499
 Frc consts  --      1.1024                 1.0532                 1.1116
 IR Inten    --     72.5034                32.7322                 3.4671

                     43                     44                     45
                      A                      A                      A
 Frequencies --   1184.2477              1246.4759              1248.4649
 Red. masses --      1.4161                 2.5044                 2.7358
 Frc consts  --      1.1701                 2.2925                 2.5124
 IR Inten    --     20.8470                79.1522                12.0943

                     46                     47                     48
                      A                      A                      A
 Frequencies --   1256.1581              1268.9110              1284.0568
 Red. masses --      2.8665                 4.4937                 4.9223
 Frc consts  --      2.6649                 4.2630                 4.7818
 IR Inten    --     14.1540                41.0657                18.1397

                     49                     50                     51
                      A                      A                      A
 Frequencies --   1361.3259              1396.7731              1416.9318
 Red. masses --      2.9648                 3.0561                 1.2428
 Frc consts  --      3.2371                 3.5129                 1.4701
 IR Inten    --     14.5526               206.2146                 3.5000

                     52                     53                     54
                      A                      A                      A
 Frequencies --   1419.9584              1448.5283              1460.9657
 Red. masses --      1.2393                 1.2243                 1.1540
 Frc consts  --      1.4722                 1.5135                 1.4512
 IR Inten    --      6.5750                 4.6944                 0.6070

                     55                     56                     57
                      A                      A                      A
 Frequencies --   1466.6281              1483.2277              1494.6304
 Red. masses --      1.1374                 1.1680                 1.1628
 Frc consts  --      1.4414                 1.5140                 1.5305
 IR Inten    --      2.7376                15.0304                13.8227

                     58                     59                     60
                      A                      A                      A
 Frequencies --   1503.5558              1505.1970              1509.5915
 Red. masses --      1.0581                 1.0730                 1.0572
 Frc consts  --      1.4093                 1.4323                 1.4194
 IR Inten    --      3.0709                 5.2886                 4.6185

                     61                     62                     63
                      A                      A                      A
 Frequencies --   1511.9131              1514.8548              1516.3331
 Red. masses --      1.0471                 1.0523                 1.0466
 Frc consts  --      1.4102                 1.4228                 1.4178
 IR Inten    --      0.7649                 7.8882                 0.7362

                     64                     65                     66
                      A                      A                      A
 Frequencies --   1518.9805              1529.4246              1530.7229
 Red. masses --      1.0656                 1.0537                 1.0552
 Frc consts  --      1.4486                 1.4523                 1.4568
 IR Inten    --      8.2224                11.1148                 7.1573

                     67                     68                     69
                      A                      A                      A
 Frequencies --   1532.5278              1542.1457              1545.6566
 Red. masses --      1.0560                 1.0552                 1.0546
 Frc consts  --      1.4612                 1.4785                 1.4845
 IR Inten    --      2.0747                10.0074                11.0825

                     70                     71                     72
                      A                      A                      A
 Frequencies --   1550.5419              1566.2864              1702.2242
 Red. masses --      1.0767                 1.1167                 9.2285
 Frc consts  --      1.5251                 1.6141                15.7548
 IR Inten    --      6.8282                30.5504               472.2257

                     73                     74                     75
                      A                      A                      A
 Frequencies --   2977.6109              2984.0285              2988.7583
 Red. masses --      1.0497                 1.0557                 1.0574
 Frc consts  --      5.4836                 5.5387                 5.5653
 IR Inten    --     39.9115               129.6713               103.8202

                     76                     77                     78
                      A                      A                      A
 Frequencies --   3015.9056              3025.4480              3033.8847
 Red. masses --      1.0490                 1.0905                 1.0906
 Frc consts  --      5.6216                 5.8809                 5.9142
 IR Inten    --     79.7454                63.2703                35.9734

                     79                     80                     81
                      A                      A                      A
 Frequencies --   3041.6430              3047.7741              3055.0915
 Red. masses --      1.0357                 1.0376                 1.0387
 Frc consts  --      5.6457                 5.6786                 5.7119
 IR Inten    --     23.1724                29.1395                36.2110

                     82                     83                     84
                      A                      A                      A
 Frequencies --   3078.3033              3081.7492              3104.8631
 Red. masses --      1.0852                 1.0916                 1.1015
 Frc consts  --      6.0586                 6.1082                 6.2563
 IR Inten    --     27.1174                64.9439                 1.5131

                     85                     86                     87
                      A                      A                      A
 Frequencies --   3110.6862              3116.9795              3126.3857
 Red. masses --      1.1010                 1.1007                 1.1027
 Frc consts  --      6.2769                 6.3005                 6.3502
 IR Inten    --     29.0741                82.1162                15.0804

                     88                     89                     90
                      A                      A                      A
 Frequencies --   3130.3725              3154.6979              3163.3135
 Red. masses --      1.1019                 1.0964                 1.0940
 Frc consts  --      6.3618                 6.4291                 6.4497
 IR Inten    --     49.6185                29.9664                 9.0077

                     91                     92                     93
                      A                      A                      A
 Frequencies --   3167.7346              3168.4290              3170.2425
 Red. masses --      1.0968                 1.0947                 1.0924
 Frc consts  --      6.4844                 6.4749                 6.4686
 IR Inten    --     13.4642                20.0647                 8.4845

 - Thermochemistry -
 -------------------
 Temperature   298.150 Kelvin.  Pressure   1.00000 Atm.
 Atom     1 has atomic number  7 and mass  14.00307

 Molecular mass:   171.17355 amu.
 Principal axes and moments of inertia in atomic units:
                           1         2         3
     Eigenvalues --  1507.518672533.480533285.60009
           X            1.00000   0.00073  -0.00244
           Y           -0.00074   0.99999  -0.00428
           Z            0.00244   0.00428   0.99999
 This molecule is an asymmetric top.
 Rotational symmetry number  1.
 Warning -- assumption of classical behavior for rotation
           may cause significant error
 Rotational temperatures (Kelvin)      0.05745     0.03419     0.02636
 Rotational constants (GHZ):           1.19716     0.71236     0.54929
 Zero-point vibrational energy     789962.9 (Joules/Mol)
                                  188.80566 (Kcal/Mol)
 Warning -- explicit consideration of  25 degrees of freedom as
           vibrations may cause significant error
 Vibrational temperatures:     45.79    96.62   127.98   185.86   192.52
          (Kelvin)            213.21   265.90   290.28   309.59   314.36
                              325.72   358.16   382.83   390.44   420.20
                              437.83   474.50   505.05   535.24   545.93
                              588.10   654.09   725.05   766.07   847.71
                              998.90  1095.31  1127.35  1309.00  1323.32
                             1333.82  1371.73  1391.76  1503.91  1519.55
                             1533.19  1555.39  1578.21  1628.31  1633.96
                             1654.10  1700.92  1703.87  1793.40  1796.26
                             1807.33  1825.68  1847.47  1958.64  2009.64
                             2038.65  2043.00  2084.11  2102.00  2110.15
                             2134.03  2150.44  2163.28  2165.64  2171.97
                             2175.31  2179.54  2181.67  2185.47  2200.50
                             2202.37  2204.97  2218.80  2223.86  2230.88
                             2253.54  2449.12  4284.12  4293.35  4300.16
                             4339.22  4352.94  4365.08  4376.25  4385.07
                             4395.60  4428.99  4433.95  4467.21  4475.58
                             4484.64  4498.17  4503.91  4538.91  4551.30
                             4557.66  4558.66  4561.27

 Zero-point correction=                           0.300881 (Hartree/Particle)
 Thermal correction to Energy=                    0.316644
 Thermal correction to Enthalpy=                  0.317588
 Thermal correction to Gibbs Free Energy=         0.259211
 Sum of electronic and zero-point Energies=           -519.528571
 Sum of electronic and thermal Energies=              -519.512809
 Sum of electronic and thermal Enthalpies=            -519.511864
 Sum of electronic and thermal Free Energies=         -519.570242

                     E (Thermal)             CV                S
                      KCal/Mol        Cal/Mol-Kelvin    Cal/Mol-Kelvin
 Total                  198.697             57.740            122.865
 Electronic               0.000              0.000              0.000
 Translational            0.889              2.981             41.320
 Rotational               0.889              2.981             30.907
 Vibrational            196.919             51.779             50.638
 Vibration     1          0.594              1.983              5.712
 Vibration     2          0.598              1.970              4.235
 Vibration     3          0.602              1.957              3.683
 Vibration     4          0.612              1.924              2.958
 Vibration     5          0.613              1.920              2.891
 Vibration     6          0.618              1.905              2.695
 Vibration     7          0.631              1.861              2.279
 Vibration     8          0.639              1.837              2.117
 Vibration     9          0.645              1.818              1.999
 Vibration    10          0.646              1.813              1.972
 Vibration    11          0.650              1.801              1.907
 Vibration    12          0.662              1.765              1.738
 Vibration    13          0.672              1.735              1.622
 Vibration    14          0.675              1.726              1.587
 Vibration    15          0.687              1.689              1.462
 Vibration    16          0.695              1.666              1.393
 Vibration    17          0.713              1.616              1.261
 Vibration    18          0.728              1.573              1.162
 Vibration    19          0.744              1.530              1.072
 Vibration    20          0.749              1.514              1.041
 Vibration    21          0.773              1.451              0.931
 Vibration    22          0.813              1.351              0.782
 Vibration    23          0.859              1.241              0.648
 Vibration    24          0.887              1.178              0.582
 Vibration    25          0.946              1.055              0.469

 Optimization completed.
    -- Stationary point found.
 Normal termination of Gaussian 16 at Mon Aug 24 11:32:29 2020.
 Gaussian 16:  ES64L-G16RevA.03 25-Dec-2016

 ----------------------------------------------------------------------
 # TD(NStates=10, Root=1) B3LYP/6-31G* scf=qc volume pop=NPA density=cu
 rrent Geom=AllCheck Guess=Read
 ----------------------------------------------------------------------

 Structure from the checkpoint file:  "base_3_conf113.chk"
 -------------------
 Title Card Required
 -------------------
 Charge =  0 Multiplicity = 1

                         Standard orientation:
 ---------------------------------------------------------------------
 Center     Atomic      Atomic             Coordinates (Angstroms)
 Number     Number       Type             X           Y           Z
 ---------------------------------------------------------------------
      1          7           0       -0.845104   -1.214583   -0.137623
      2          6           0       -0.568724    0.158477    0.029989
      3          7           0        0.561628    0.724359    0.241592
      4          6           0        1.910619    0.200725   -0.003582
      5          6           0        2.024073   -0.948999   -1.028245
      6          6           0        2.696454    1.411150   -0.562421
      7          6           0        2.558840   -0.206357    1.336864
      8          7           0       -1.707745    0.975540   -0.093559
      9          6           0       -1.483922    2.407784   -0.226555
     10          6           0       -2.889124    0.652364    0.699661
     11          6           0       -0.486133   -2.182330    0.877866
     12          6           0       -1.762447   -1.690112   -1.155463
     13          1           0        1.508340   -0.689352   -1.959660
     14          1           0        1.611422   -1.891451   -0.663084
     15          1           0        3.080609   -1.121375   -1.267568
     16          1           0        2.272430    1.731908   -1.520883
     17          1           0        3.752863    1.161007   -0.719760
     18          1           0        2.632730    2.254457    0.132355
     19          1           0        2.101736   -1.108942    1.754958
     20          1           0        2.449815    0.601460    2.068148
     21          1           0        3.628395   -0.408080    1.202215
     22          1           0       -0.675984    2.587638   -0.936307
     23          1           0       -1.202962    2.880187    0.726994
     24          1           0       -2.406238    2.873594   -0.593525
     25          1           0       -2.987415   -0.427218    0.817286
     26          1           0       -3.790296    1.030092    0.202347
     27          1           0       -2.840441    1.104130    1.704999
     28          1           0        0.080156   -1.693796    1.671199
     29          1           0        0.121477   -3.005349    0.472081
     30          1           0       -1.388431   -2.631053    1.327505
     31          1           0       -1.991728   -0.880073   -1.849085
     32          1           0       -2.711278   -2.063934   -0.733953
     33          1           0       -1.304473   -2.517280   -1.717818
 ---------------------------------------------------------------------

 SCF Done:  E(RB3LYP) =  -519.829452358     a.u. after    1 cycles

 Excitation energies and oscillator strengths:

 Excited State   1:      Singlet-A      5.4515 eV  227.43 nm  f=0.0042  <S**2>=0.000
      46 -> 49         0.30903
      47 -> 49         0.51865
      48 -> 49         0.36049
 This state for optimization and/or second-order correction.
 Total Energy, E(TD-HF/TD-DFT) =  -519.629111851
 Copying the excited state density for this state as the 1-particle RhoCI density.

 Excited State   2:      Singlet-A      5.9977 eV  206.72 nm  f=0.1131  <S**2>=0.000
      46 -> 49         0.57315
      48 -> 49        -0.39131

 Excited State   3:      Singlet-A      6.2846 eV  197.28 nm  f=0.2789  <S**2>=0.000
      46 -> 49        -0.25396
      47 -> 49         0.45923
      48 -> 49        -0.44151

 Excited State   4:      Singlet-A      6.4982 eV  190.80 nm  f=0.0068  <S**2>=0.000
      47 -> 50         0.10248
      48 -> 50         0.68370

 Excited State   5:      Singlet-A      6.9197 eV  179.17 nm  f=0.0290  <S**2>=0.000
      46 -> 50        -0.24396
      47 -> 50         0.64076
      48 -> 50        -0.12543

 Excited State   6:      Singlet-A      7.0578 eV  175.67 nm  f=0.0037  <S**2>=0.000
      46 -> 50         0.64313
      47 -> 50         0.26111

 Excited State   7:      Singlet-A      7.4160 eV  167.18 nm  f=0.0078  <S**2>=0.000
      48 -> 51         0.68246
      48 -> 53        -0.11767

 Excited State   8:      Singlet-A      7.6919 eV  161.19 nm  f=0.0148  <S**2>=0.000
      48 -> 52         0.68148

 Excited State   9:      Singlet-A      7.8209 eV  158.53 nm  f=0.0223  <S**2>=0.000
      47 -> 51         0.67151

 Excited State  10:      Singlet-A      7.9409 eV  156.13 nm  f=0.0095  <S**2>=0.000
      46 -> 51         0.58532
      46 -> 52         0.13018
      47 -> 52        -0.13715
      47 -> 53         0.10850
      48 -> 51         0.10685
      48 -> 53         0.27324

 The electronic state is 1-A.
 Alpha  occ. eigenvalues --  -14.33742 -14.33695 -14.27855 -10.26424 -10.21164
 Alpha  occ. eigenvalues --  -10.20867 -10.20858 -10.20809 -10.19423 -10.16069
 Alpha  occ. eigenvalues --  -10.15853 -10.15374  -0.96889  -0.89944  -0.86533
 Alpha  occ. eigenvalues --   -0.77042  -0.71590  -0.70450  -0.68210  -0.67181
 Alpha  occ. eigenvalues --   -0.66538  -0.63323  -0.56682  -0.52425  -0.50149
 Alpha  occ. eigenvalues --   -0.47227  -0.46454  -0.45260  -0.44299  -0.43262
 Alpha  occ. eigenvalues --   -0.42363  -0.41918  -0.40387  -0.39514  -0.38972
 Alpha  occ. eigenvalues --   -0.38246  -0.37734  -0.37449  -0.37225  -0.36393
 Alpha  occ. eigenvalues --   -0.35384  -0.34810  -0.32836  -0.31471  -0.29727
 Alpha  occ. eigenvalues --   -0.22026  -0.21458  -0.20159
 Alpha virt. eigenvalues --    0.04030   0.07085   0.10340   0.11254   0.12770
 Alpha virt. eigenvalues --    0.13209   0.13952   0.14386   0.15222   0.15691
 Alpha virt. eigenvalues --    0.16177   0.16815   0.17107   0.17445   0.18034

 Mulliken charges:
               1
     1  N   -0.398659
     2  C    0.525253
     3  N   -0.425539
     4  C    0.189160
     5  C   -0.441562
     6  C   -0.432073
     7  C   -0.426070
     8  N   -0.405457
     9  C   -0.296457
    10  C   -0.293794
    11  C   -0.307241
    12  C   -0.300362
    13  H    0.156981
    14  H    0.159995
    15  H    0.145304
    16  H    0.144888
    17  H    0.129682
    18  H    0.147214
    19  H    0.136487
    20  H    0.146013
    21  H    0.125519
    22  H    0.159788
    23  H    0.122878
    24  H    0.140103
    25  H    0.152091
    26  H    0.135127
    27  H    0.113169
    28  H    0.174945
    29  H    0.137872
    30  H    0.129743
    31  H    0.180827
    32  H    0.139297
    33  H    0.134883
 Sum of Mulliken charges =  -0.00000

 Dipole moment (field-independent basis, Debye):
    X=              0.0421    Y=             -1.1417    Z=             -0.3628  Tot=              1.1987
 Quadrupole moment (field-independent basis, Debye-Ang):
   XX=            -74.9264   YY=            -74.9277   ZZ=            -77.9263
   XY=              0.2948   XZ=             -0.3593   YZ=             -0.3643

 Summary of Natural Population Analysis:

                                       Natural Population
                Natural  -----------------------------------------------
    Atom  No    Charge         Core      Valence    Rydberg      Total
 -----------------------------------------------------------------------
      N    1   -0.45648      1.99935     5.44455    0.01258     7.45648
      C    2    0.37821      1.99913     3.58838    0.03428     5.62179
      N    3   -0.33344      1.99898     5.31531    0.01914     7.33344
      C    4    0.09788      1.99908     3.88404    0.01901     5.90212
      C    5   -0.66112      1.99931     4.65235    0.00947     6.66112
      C    6   -0.66529      1.99935     4.65562    0.01032     6.66529
      C    7   -0.67641      1.99935     4.66659    0.01047     6.67641
      N    8   -0.49703      1.99939     5.48377    0.01386     7.49703
      C    9   -0.46741      1.99949     4.45527    0.01265     6.46741
      C   10   -0.46049      1.99946     4.44880    0.01223     6.46049
      C   11   -0.46580      1.99946     4.45405    0.01230     6.46580
      C   12   -0.46966      1.99946     4.45745    0.01275     6.46966
      H   13    0.24186      0.00000     0.75709    0.00105     0.75814
      H   14    0.23573      0.00000     0.76320    0.00107     0.76427
      H   15    0.23710      0.00000     0.76152    0.00137     0.76290
      H   16    0.23363      0.00000     0.76517    0.00120     0.76637
      H   17    0.22188      0.00000     0.77655    0.00158     0.77812
      H   18    0.23511      0.00000     0.76368    0.00121     0.76489
      H   19    0.22196      0.00000     0.77712    0.00092     0.77804
      H   20    0.23745      0.00000     0.76112    0.00143     0.76255
      H   21    0.22114      0.00000     0.77709    0.00177     0.77886
      H   22    0.23466      0.00000     0.76446    0.00088     0.76534
      H   23    0.19239      0.00000     0.80292    0.00469     0.80761
      H   24    0.22151      0.00000     0.77752    0.00097     0.77849
      H   25    0.22286      0.00000     0.77625    0.00090     0.77714
      H   26    0.21401      0.00000     0.78373    0.00226     0.78599
      H   27    0.18700      0.00000     0.80648    0.00651     0.81300
      H   28    0.23568      0.00000     0.76342    0.00090     0.76432
      H   29    0.20622      0.00000     0.79192    0.00186     0.79378
      H   30    0.20606      0.00000     0.79016    0.00378     0.79394
      H   31    0.25078      0.00000     0.74821    0.00102     0.74922
      H   32    0.21064      0.00000     0.78733    0.00202     0.78936
      H   33    0.20937      0.00000     0.78808    0.00255     0.79063
 =======================================================================
   * Total *   -0.00000     23.99182    71.78919    0.21899    96.00000

 Normal termination of Gaussian 16 at Mon Aug 24 11:39:26 2020.
