 Gaussian 16, Revision A.03,

 ---------------------------------
 # opt=CalcAll B3LYP/6-31G* scf=qc
 ---------------------------------

 -------------------
 Title Card Required
 -------------------
 Symbolic Z-matrix:
 Charge =  0 Multiplicity = 1

 SCF Done:  E(RB3LYP) =  -329.307690704     a.u. after    7 cycles
 SCF Done:  E(RB3LYP) =  -329.310669634     a.u. after    6 cycles
 SCF Done:  E(RB3LYP) =  -329.310692062     a.u. after    2 cycles
 SCF Done:  E(RB3LYP) =  -329.310701412     a.u. after    2 cycles
 Optimization completed.
    -- Stationary point found.
 Normal termination of Gaussian 16 at Mon Aug 24 16:20:05 2020.

 ----------------------------------------------------------------------
 # freq B3LYP/6-31G* scf=qc volume NMR pop=NPA density=current Geom=All
 Check Guess=Read
 ----------------------------------------------------------------------

 Structure from the checkpoint file:  "base_1_conf12.chk"
 -------------------
 Title Card Required
 -------------------
 Charge =  0 Multiplicity = 1

 SCF Done:  E(RB3LYP) =  -329.310701412     a.u. after    1 cycles

      1  N    Isotropic =   232.8344   Anisotropy =    21.6573

      2  C    Isotropic =   141.1993   Anisotropy =    40.2436

      3  C    Isotropic =   160.8133   Anisotropy =     5.5423

      4  C    Isotropic =   165.9155   Anisotropy =     0.5845

      5  C    Isotropic =   160.8087   Anisotropy =     5.5196

      6  C    Isotropic =   141.1988   Anisotropy =    40.2180

      7  C    Isotropic =   160.8069   Anisotropy =     5.5206

      8  C    Isotropic =   141.1809   Anisotropy =    40.2235

      9  H    Isotropic =    29.4970   Anisotropy =     9.0106

     10  H    Isotropic =    29.4975   Anisotropy =     9.0088

     11  H    Isotropic =    30.7972   Anisotropy =     8.9336

     12  H    Isotropic =    30.7977   Anisotropy =     8.9328

     13  H    Isotropic =    30.5308   Anisotropy =     9.6823

     14  H    Isotropic =    30.7984   Anisotropy =     8.9337

     15  H    Isotropic =    30.7970   Anisotropy =     8.9311

     16  H    Isotropic =    29.4985   Anisotropy =     9.0081

     17  H    Isotropic =    29.4967   Anisotropy =     9.0084

     18  H    Isotropic =    30.7970   Anisotropy =     8.9323

     19  H    Isotropic =    30.7982   Anisotropy =     8.9296

     20  H    Isotropic =    29.4983   Anisotropy =     9.0054

     21  H    Isotropic =    29.4977   Anisotropy =     9.0059

  Exact polarizability:  69.782  -0.004  75.379  -0.006   0.001  75.378
 Approx polarizability:  97.378  -0.006 106.188  -0.010   0.001 106.186

                      1                      2                      3
                      A                      A                      A
 Frequencies --     77.7105               301.8469               301.9623
 Red. masses --      1.7100                 1.7051                 1.7050
 Frc consts  --      0.0061                 0.0915                 0.0916
 IR Inten    --      0.0000                 0.3866                 0.3855

                      4                      5                      6
                      A                      A                      A
 Frequencies --    407.7490               407.9253               551.9634
 Red. masses --      2.2283                 2.2285                 3.5538
 Frc consts  --      0.2183                 0.2185                 0.6379
 IR Inten    --      0.0100                 0.0101                 0.2855

                      7                      8                      9
                      A                      A                      A
 Frequencies --    552.0855               612.2749               787.9334
 Red. masses --      3.5526                 8.5782                 4.5783
 Frc consts  --      0.6380                 1.8947                 1.6747
 IR Inten    --      0.2856                 7.4543                13.7457

                     10                     11                     12
                      A                      A                      A
 Frequencies --    803.4705               810.4071               838.3251
 Red. masses --      3.3631                 1.1688                 1.3595
 Frc consts  --      1.2792                 0.4523                 0.5629
 IR Inten    --      3.9666                 0.0006                 2.8435

                     13                     14                     15
                      A                      A                      A
 Frequencies --    838.4776               885.3775               885.9819
 Red. masses --      1.3607                 2.6975                 2.7068
 Frc consts  --      0.5636                 1.2459                 1.2519
 IR Inten    --      2.8437                 0.0907                 0.0914

                     16                     17                     18
                      A                      A                      A
 Frequencies --    974.8297               977.9130              1008.2029
 Red. masses --      3.7452                 1.4272                 2.2097
 Frc consts  --      2.0969                 0.8041                 1.3233
 IR Inten    --     22.8573                 0.0100                 5.5787

                     19                     20                     21
                      A                      A                      A
 Frequencies --   1008.4317              1023.3279              1077.3190
 Red. masses --      2.2076                 3.3052                 3.0642
 Frc consts  --      1.3227                 2.0393                 2.0954
 IR Inten    --      5.5265                 0.2577                18.0770

                     22                     23                     24
                      A                      A                      A
 Frequencies --   1077.7230              1147.7241              1147.8014
 Red. masses --      3.0594                 1.3886                 1.3871
 Frc consts  --      2.0936                 1.0777                 1.0767
 IR Inten    --     18.0902                 1.0398                 1.0295

                     25                     26                     27
                      A                      A                      A
 Frequencies --   1182.8354              1241.7720              1241.8730
 Red. masses --      1.0774                 1.4402                 1.4414
 Frc consts  --      0.8881                 1.3084                 1.3097
 IR Inten    --      0.0001                 4.5171                 4.5335

                     28                     29                     30
                      A                      A                      A
 Frequencies --   1279.7637              1315.6659              1315.8895
 Red. masses --      1.0965                 1.4194                 1.4191
 Frc consts  --      1.0580                 1.4476                 1.4478
 IR Inten    --      0.0000                 1.6824                 1.6834

                     31                     32                     33
                      A                      A                      A
 Frequencies --   1354.8441              1354.8455              1368.1415
 Red. masses --      1.2758                 1.2759                 1.4018
 Frc consts  --      1.3798                 1.3799                 1.5460
 IR Inten    --      0.1270                 0.1293                 5.3360

                     34                     35                     36
                      A                      A                      A
 Frequencies --   1368.3536              1371.2372              1394.1062
 Red. masses --      1.4034                 1.5256                 1.4103
 Frc consts  --      1.5482                 1.6901                 1.6149
 IR Inten    --      5.3570                 3.9204                 1.4888

                     37                     38                     39
                      A                      A                      A
 Frequencies --   1394.3412              1404.7142              1510.2595
 Red. masses --      1.4122                 1.3355                 1.0783
 Frc consts  --      1.6177                 1.5526                 1.4491
 IR Inten    --      1.4875                10.0670                 0.6127

                     40                     41                     42
                      A                      A                      A
 Frequencies --   1510.3506              1523.8461              1525.8657
 Red. masses --      1.0783                 1.0882                 1.0900
 Frc consts  --      1.4492                 1.4888                 1.4953
 IR Inten    --      0.5996                 1.6196                 5.5514

                     43                     44                     45
                      A                      A                      A
 Frequencies --   1525.9456              1543.7443              3036.0325
 Red. masses --      1.0901                 1.0938                 1.0602
 Frc consts  --      1.4956                 1.5358                 5.7575
 IR Inten    --      5.5729                 0.1533                21.7553

                     46                     47                     48
                      A                      A                      A
 Frequencies --   3036.0618              3036.0894              3049.7349
 Red. masses --      1.0598                 1.0607                 1.0592
 Frc consts  --      5.7557                 5.7609                 5.8041
 IR Inten    --     17.5518                28.2620                84.7305

                     49                     50                     51
                      A                      A                      A
 Frequencies --   3049.7616              3054.7181              3067.2012
 Red. masses --      1.0592                 1.0645                 1.1076
 Frc consts  --      5.8043                 5.8522                 6.1393
 IR Inten    --     84.9042                76.8607                 0.0066

                     52                     53                     54
                      A                      A                      A
 Frequencies --   3069.0609              3070.5581              3070.5938
 Red. masses --      1.0814                 1.1062                 1.1062
 Frc consts  --      6.0015                 6.1448                 6.1449
 IR Inten    --     35.4389                 8.8250                 8.8337

                     55                     56                     57
                      A                      A                      A
 Frequencies --   3091.9722              3099.2013              3099.2251
 Red. masses --      1.1078                 1.1070                 1.1070
 Frc consts  --      6.2399                 6.2648                 6.2649
 IR Inten    --      0.0004                94.3012                94.2341

 - Thermochemistry -
 -------------------
 Temperature   298.150 Kelvin.  Pressure   1.00000 Atm.
 Atom     1 has atomic number  7 and mass  14.00307

 Molecular mass:   111.10480 amu.
 Principal axes and moments of inertia in atomic units:
                           1         2         3
     Eigenvalues --   712.16013 748.65609 748.66706
           X            1.00000  -0.00038  -0.00058
           Y            0.00038   1.00000  -0.00113
           Z            0.00058   0.00113   1.00000
 This molecule is an asymmetric top.
 Rotational symmetry number  1.
 Warning -- assumption of classical behavior for rotation
           may cause significant error
 Rotational temperatures (Kelvin)      0.12162     0.11569     0.11569
 Rotational constants (GHZ):           2.53418     2.41064     2.41061
 Zero-point vibrational energy     514785.2 (Joules/Mol)
                                  123.03662 (Kcal/Mol)
 Warning -- explicit consideration of   8 degrees of freedom as
           vibrations may cause significant error
 Vibrational temperatures:    111.81   434.29   434.46   586.66   586.91
          (Kelvin)            794.15   794.33   880.93  1133.66  1156.01
                             1166.00  1206.16  1206.38  1273.86  1274.73
                             1402.56  1407.00  1450.58  1450.91  1472.34
                             1550.02  1550.60  1651.32  1651.43  1701.84
                             1786.63  1786.78  1841.29  1892.95  1893.27
                             1949.32  1949.32  1968.45  1968.76  1972.90
                             2005.81  2006.15  2021.07  2172.93  2173.06
                             2192.47  2195.38  2195.50  2221.10  4368.17
                             4368.22  4368.26  4387.89  4387.93  4395.06
                             4413.02  4415.69  4417.85  4417.90  4448.66
                             4459.06  4459.09

 Zero-point correction=                           0.196071 (Hartree/Particle)
 Thermal correction to Energy=                    0.202590
 Thermal correction to Enthalpy=                  0.203534
 Thermal correction to Gibbs Free Energy=         0.165498
 Sum of electronic and zero-point Energies=           -329.114630
 Sum of electronic and thermal Energies=              -329.108112
 Sum of electronic and thermal Enthalpies=            -329.107168
 Sum of electronic and thermal Free Energies=         -329.145203

                     E (Thermal)             CV                S
                      KCal/Mol        Cal/Mol-Kelvin    Cal/Mol-Kelvin
 Total                  127.127             26.945             80.053
 Electronic               0.000              0.000              0.000
 Translational            0.889              2.981             40.032
 Rotational               0.889              2.981             27.481
 Vibrational            125.349             20.984             12.540
 Vibration     1          0.599              1.964              3.948
 Vibration     2          0.694              1.670              1.407
 Vibration     3          0.694              1.670              1.406
 Vibration     4          0.772              1.453              0.935
 Vibration     5          0.772              1.453              0.934
 Vibration     6          0.907              1.135              0.540
 Vibration     7          0.907              1.135              0.540
 Vibration     8          0.972              1.006              0.429

                           ! Non-Optimized Parameters !
 Normal termination of Gaussian 16 at Mon Aug 24 16:23:29 2020.
 Gaussian 16:  ES64L-G16RevA.03 25-Dec-2016

 ----------------------------------------------------------------------
 # TD(NStates=10, Root=1) B3LYP/6-31G* scf=qc volume pop=NPA density=cu
 rrent Geom=AllCheck Guess=Read
 ----------------------------------------------------------------------

 Structure from the checkpoint file:  "base_1_conf13.chk"
 -------------------
 Title Card Required
 -------------------
 Charge =  0 Multiplicity = 1

                         Standard orientation:
 ---------------------------------------------------------------------
 Center     Atomic      Atomic             Coordinates (Angstroms)
 Number     Number       Type             X           Y           Z
 ---------------------------------------------------------------------
      1          7           0        1.294010    0.000884    0.001338
      2          6           0        0.798912    1.000244   -0.959768
      3          6           0       -0.762536    1.042592   -1.004358
      4          6           0       -1.295322   -0.000836   -0.001331
      5          6           0       -0.764592    0.347175    1.404341
      6          6           0        0.796933    0.332460    1.346887
      7          6           0       -0.761535   -1.391248   -0.402226
      8          6           0        0.799907   -1.331205   -0.384766
      9          1           0        1.215468    0.753185   -1.943292
     10          1           0        1.212230    1.974036   -0.672039
     11          1           0       -1.134233    0.818101   -2.012243
     12          1           0       -1.137343    2.040234   -0.742415
     13          1           0       -2.391538   -0.001580   -0.002482
     14          1           0       -1.138832   -0.379027    2.137110
     15          1           0       -1.138310    1.331692    1.713282
     16          1           0        1.210845   -0.402999    2.046644
     17          1           0        1.211502    1.308426    1.625294
     18          1           0       -1.134323   -1.663482   -1.397868
     19          1           0       -1.134520   -2.151746    0.295563
     20          1           0        1.215181   -1.568610   -1.371209
     21          1           0        1.215211   -2.059507    0.321616
 ---------------------------------------------------------------------

 SCF Done:  E(RB3LYP) =  -329.310701412     a.u. after    1 cycles

 Excitation energies and oscillator strengths:

 Excited State   1:      Singlet-A      6.3776 eV  194.40 nm  f=0.0011  <S**2>=0.000
      31 -> 32         0.70302
 This state for optimization and/or second-order correction.
 Total Energy, E(TD-HF/TD-DFT) =  -329.076327470
 Copying the excited state density for this state as the 1-particle RhoCI density.

 Excited State   2:      Singlet-A      7.3461 eV  168.77 nm  f=0.0173  <S**2>=0.000
      31 -> 33         0.70328

 Excited State   3:      Singlet-A      7.3462 eV  168.77 nm  f=0.0173  <S**2>=0.000
      31 -> 34         0.70328

 Excited State   4:      Singlet-A      8.1936 eV  151.32 nm  f=0.0120  <S**2>=0.000
      31 -> 35         0.69992

 Excited State   5:      Singlet-A      8.4213 eV  147.23 nm  f=0.0001  <S**2>=0.000
      31 -> 38         0.69747

 Excited State   6:      Singlet-A      8.4498 eV  146.73 nm  f=0.0328  <S**2>=0.000
      31 -> 36         0.68297
      31 -> 37         0.16846

 Excited State   7:      Singlet-A      8.4499 eV  146.73 nm  f=0.0328  <S**2>=0.000
      31 -> 36        -0.16846
      31 -> 37         0.68297

 Excited State   8:      Singlet-A      8.9166 eV  139.05 nm  f=0.0042  <S**2>=0.000
      30 -> 32         0.70307

 Excited State   9:      Singlet-A      8.9169 eV  139.04 nm  f=0.0042  <S**2>=0.000
      29 -> 32         0.70307

 Excited State  10:      Singlet-A      9.2071 eV  134.66 nm  f=0.0036  <S**2>=0.000
      31 -> 39         0.69990

 The electronic state is 1-A.
 Alpha  occ. eigenvalues --  -14.31231 -10.19831 -10.19831 -10.19829 -10.18360
 Alpha  occ. eigenvalues --  -10.17428 -10.17428 -10.17426  -0.92307  -0.78634
 Alpha  occ. eigenvalues --   -0.73923  -0.73922  -0.61627  -0.61627  -0.60184
 Alpha  occ. eigenvalues --   -0.50272  -0.48085  -0.48085  -0.47824  -0.40121
 Alpha  occ. eigenvalues --   -0.39385  -0.39385  -0.37213  -0.37212  -0.36312
 Alpha  occ. eigenvalues --   -0.36311  -0.34077  -0.31853  -0.29492  -0.29490
 Alpha  occ. eigenvalues --   -0.20043
 Alpha virt. eigenvalues --    0.06956   0.10924   0.10924   0.13652   0.14602
 Alpha virt. eigenvalues --    0.14603   0.15148   0.17597   0.17598   0.17866
 Alpha virt. eigenvalues --    0.18620   0.20814   0.20815   0.21313   0.21314

 Mulliken charges:
               1
     1  N   -0.206741
     2  C   -0.129882
     3  C   -0.233875
     4  C   -0.078735
     5  C   -0.233880
     6  C   -0.129881
     7  C   -0.233867
     8  C   -0.129882
     9  H    0.112198
    10  H    0.112067
    11  H    0.101580
    12  H    0.101645
    13  H    0.094277
    14  H    0.101667
    15  H    0.101567
    16  H    0.112038
    17  H    0.112211
    18  H    0.101641
    19  H    0.101577
    20  H    0.112018
    21  H    0.112255
 Sum of Mulliken charges =   0.00000

 Dipole moment (field-independent basis, Debye):
    X=              0.9584    Y=              0.0005    Z=              0.0013  Tot=              0.9584
 Quadrupole moment (field-independent basis, Debye-Ang):
   XX=            -53.4897   YY=            -53.8091   ZZ=            -53.8102
   XY=              0.0002   XZ=              0.0005   YZ=             -0.0009

 Summary of Natural Population Analysis:

                                       Natural Population
                Natural  -----------------------------------------------
    Atom  No    Charge         Core      Valence    Rydberg      Total
 -----------------------------------------------------------------------
      N    1   -0.11063      1.99930     5.09570    0.01563     7.11063
      C    2   -0.31984      1.99933     4.29915    0.02135     6.31984
      C    3   -0.46276      1.99928     4.44731    0.01617     6.46276
      C    4   -0.26165      1.99920     4.24496    0.01749     6.26165
      C    5   -0.46275      1.99928     4.44731    0.01617     6.46275
      C    6   -0.31984      1.99933     4.29916    0.02135     6.31984
      C    7   -0.46275      1.99928     4.44730    0.01617     6.46275
      C    8   -0.31983      1.99933     4.29915    0.02135     6.31983
      H    9    0.20995      0.00000     0.76473    0.02533     0.79005
      H   10    0.20985      0.00000     0.76478    0.02537     0.79015
      H   11    0.20624      0.00000     0.77098    0.02278     0.79376
      H   12    0.20628      0.00000     0.77097    0.02275     0.79372
      H   13    0.22311      0.00000     0.75943    0.01747     0.77689
      H   14    0.20630      0.00000     0.77096    0.02274     0.79370
      H   15    0.20622      0.00000     0.77100    0.02278     0.79378
      H   16    0.20982      0.00000     0.76480    0.02538     0.79018
      H   17    0.20997      0.00000     0.76471    0.02532     0.79003
      H   18    0.20628      0.00000     0.77097    0.02275     0.79372
      H   19    0.20624      0.00000     0.77099    0.02277     0.79376
      H   20    0.20979      0.00000     0.76482    0.02539     0.79021
      H   21    0.21000      0.00000     0.76469    0.02531     0.79000
 =======================================================================
   * Total *   -0.00000     15.99431    45.55386    0.45183    62.00000

 Normal termination of Gaussian 16 at Mon Aug 24 16:30:27 2020.
