 Gaussian 16, Revision A.03,

 ---------------------------------
 # opt=CalcAll B3LYP/6-31G* scf=qc
 ---------------------------------

 -------------------
 Title Card Required
 -------------------
 Symbolic Z-matrix:
 Charge =  0 Multiplicity = 1

 SCF Done:  E(RB3LYP) =  -519.793937516     a.u. after    9 cycles
 SCF Done:  E(RB3LYP) =  -519.814949979     a.u. after   15 cycles
 SCF Done:  E(RB3LYP) =  -519.823894011     a.u. after   15 cycles
 SCF Done:  E(RB3LYP) =  -519.827618522     a.u. after   11 cycles
 SCF Done:  E(RB3LYP) =  -519.829137441     a.u. after   11 cycles
 SCF Done:  E(RB3LYP) =  -519.829411661     a.u. after   11 cycles
 SCF Done:  E(RB3LYP) =  -519.829447759     a.u. after    5 cycles
 SCF Done:  E(RB3LYP) =  -519.829451506     a.u. after    4 cycles
 SCF Done:  E(RB3LYP) =  -519.829452325     a.u. after    4 cycles
 SCF Done:  E(RB3LYP) =  -519.829452360     a.u. after    2 cycles
 Optimization completed.
    -- Stationary point found.
 Normal termination of Gaussian 16 at Mon Aug 24 14:23:02 2020.

 ----------------------------------------------------------------------
 # freq B3LYP/6-31G* scf=qc volume NMR pop=NPA density=current Geom=All
 Check Guess=Read
 ----------------------------------------------------------------------

 Structure from the checkpoint file:  "base_3_conf172.chk"
 -------------------
 Title Card Required
 -------------------
 Charge =  0 Multiplicity = 1

 SCF Done:  E(RB3LYP) =  -519.829452360     a.u. after    1 cycles

      1  N    Isotropic =   210.2932   Anisotropy =    59.8249

      2  C    Isotropic =    44.7801   Anisotropy =    69.4529

      3  N    Isotropic =    19.7246   Anisotropy =   285.3709

      4  C    Isotropic =   135.3673   Anisotropy =    31.4255

      5  C    Isotropic =   159.1520   Anisotropy =    39.1471

      6  C    Isotropic =   152.7025   Anisotropy =    46.8983

      7  C    Isotropic =   163.0968   Anisotropy =    32.4291

      8  N    Isotropic =   182.1503   Anisotropy =    82.9132

      9  C    Isotropic =   150.8934   Anisotropy =    45.6713

     10  C    Isotropic =   152.1229   Anisotropy =    52.2843

     11  C    Isotropic =   151.6462   Anisotropy =    54.8037

     12  C    Isotropic =   148.0080   Anisotropy =    53.5582

     13  H    Isotropic =    30.7493   Anisotropy =     6.9872

     14  H    Isotropic =    30.9932   Anisotropy =     5.7587

     15  H    Isotropic =    31.0561   Anisotropy =     8.2228

     16  H    Isotropic =    30.5395   Anisotropy =     6.6859

     17  H    Isotropic =    31.1936   Anisotropy =     8.2927

     18  H    Isotropic =    31.0198   Anisotropy =     6.5446

     19  H    Isotropic =    30.5619   Anisotropy =     6.0570

     20  H    Isotropic =    31.0883   Anisotropy =     5.7441

     21  H    Isotropic =    31.0452   Anisotropy =     7.8890

     22  H    Isotropic =    29.3337   Anisotropy =     7.1014

     23  H    Isotropic =    30.2738   Anisotropy =     9.0306

     24  H    Isotropic =    29.7960   Anisotropy =     8.3957

     25  H    Isotropic =    29.5587   Anisotropy =     4.5844

     26  H    Isotropic =    29.9835   Anisotropy =     9.2577

     27  H    Isotropic =    29.8831   Anisotropy =     9.0933

     28  H    Isotropic =    29.2316   Anisotropy =     6.8432

     29  H    Isotropic =    29.7708   Anisotropy =     9.6435

     30  H    Isotropic =    29.8844   Anisotropy =     8.3721

     31  H    Isotropic =    29.2971   Anisotropy =     6.0187

     32  H    Isotropic =    29.8058   Anisotropy =     9.4485

     33  H    Isotropic =    29.5095   Anisotropy =     7.9143

  Exact polarizability: 143.949  -1.402 121.707   0.482  -0.836  96.882
 Approx polarizability: 189.267  -5.917 166.669   4.470  -1.899 139.887

                      1                      2                      3
                      A                      A                      A
 Frequencies --     31.8321                67.1479                88.9496
 Red. masses --      2.5934                 2.7506                 2.5807
 Frc consts  --      0.0015                 0.0073                 0.0120
 IR Inten    --      0.2106                 0.4460                 2.1979

                      4                      5                      6
                      A                      A                      A
 Frequencies --    129.2031               133.8118               148.2089
 Red. masses --      1.7540                 2.1629                 2.0191
 Frc consts  --      0.0173                 0.0228                 0.0261
 IR Inten    --      2.0487                 1.3544                 0.6988

                      7                      8                      9
                      A                      A                      A
 Frequencies --    184.8273               201.7714               215.2037
 Red. masses --      1.7121                 1.2810                 1.1413
 Frc consts  --      0.0345                 0.0307                 0.0311
 IR Inten    --      0.2913                 0.5191                 0.1780

                     10                     11                     12
                      A                      A                      A
 Frequencies --    218.4978               226.3899               248.9557
 Red. masses --      1.1532                 1.5802                 1.3233
 Frc consts  --      0.0324                 0.0477                 0.0483
 IR Inten    --      0.9373                 1.0792                 2.4235

                     13                     14                     15
                      A                      A                      A
 Frequencies --    266.0836               271.3797               292.0603
 Red. masses --      1.1288                 1.9202                 1.3857
 Frc consts  --      0.0471                 0.0833                 0.0696
 IR Inten    --      1.3123                 0.8384                 3.1172

                     16                     17                     18
                      A                      A                      A
 Frequencies --    304.3117               329.7984               351.0332
 Red. masses --      2.2050                 2.7740                 2.4067
 Frc consts  --      0.1203                 0.1778                 0.1747
 IR Inten    --      4.3743                 2.8851                 1.3159

                     19                     20                     21
                      A                      A                      A
 Frequencies --    372.0233               379.4544               408.7544
 Red. masses --      2.6622                 2.4119                 2.4176
 Frc consts  --      0.2171                 0.2046                 0.2380
 IR Inten    --      5.5065                 1.4017                 1.9092

                     22                     23                     24
                      A                      A                      A
 Frequencies --    454.6221               503.9402               532.4537
 Red. masses --      2.4208                 3.5029                 3.2035
 Frc consts  --      0.2948                 0.5241                 0.5351
 IR Inten    --      0.7067                 8.1060                 0.1381

                     25                     26                     27
                      A                      A                      A
 Frequencies --    589.2058               694.2752               761.2871
 Red. masses --      3.4187                 5.2931                 7.6804
 Frc consts  --      0.6993                 1.5032                 2.6226
 IR Inten    --      9.8904                 2.2529                 9.2647

                     28                     29                     30
                      A                      A                      A
 Frequencies --    783.5581               909.8042               919.7628
 Red. masses --      3.6161                 2.3088                 2.3673
 Frc consts  --      1.3081                 1.1260                 1.1799
 IR Inten    --      1.1023                 8.5089                 5.8086

                     31                     32                     33
                      A                      A                      A
 Frequencies --    927.0540               953.3985               967.3230
 Red. masses --      1.7093                 3.0535                 1.2051
 Frc consts  --      0.8655                 1.6353                 0.6644
 IR Inten    --      0.4794                 5.8356                 0.2334

                     34                     35                     36
                      A                      A                      A
 Frequencies --   1045.2704              1056.1421              1065.6221
 Red. masses --      1.7840                 1.3961                 1.5135
 Frc consts  --      1.1484                 0.9175                 1.0126
 IR Inten    --     59.4261                 3.1471                18.5664

                     37                     38                     39
                      A                      A                      A
 Frequencies --   1081.0502              1096.9110              1131.7323
 Red. masses --      1.4306                 1.3800                 1.5477
 Frc consts  --      0.9850                 0.9783                 1.1680
 IR Inten    --     11.5182                 3.4043                83.0599

                     40                     41                     42
                      A                      A                      A
 Frequencies --   1135.6643              1149.6627              1182.2000
 Red. masses --      1.4509                 1.3527                 1.3500
 Frc consts  --      1.1026                 1.0534                 1.1116
 IR Inten    --     72.5546                32.7617                 3.4635

                     43                     44                     45
                      A                      A                      A
 Frequencies --   1184.2546              1246.4743              1248.4653
 Red. masses --      1.4161                 2.5044                 2.7358
 Frc consts  --      1.1702                 2.2926                 2.5124
 IR Inten    --     20.8521                79.1559                12.0872

                     46                     47                     48
                      A                      A                      A
 Frequencies --   1256.1581              1268.9029              1284.0495
 Red. masses --      2.8666                 4.4922                 4.9219
 Frc consts  --      2.6651                 4.2616                 4.7813
 IR Inten    --     14.1571                41.0559                18.1358

                     49                     50                     51
                      A                      A                      A
 Frequencies --   1361.3105              1396.7683              1416.9326
 Red. masses --      2.9647                 3.0562                 1.2428
 Frc consts  --      3.2370                 3.5130                 1.4701
 IR Inten    --     14.5633               206.1693                 3.5004

                     52                     53                     54
                      A                      A                      A
 Frequencies --   1419.9605              1448.5298              1460.9719
 Red. masses --      1.2393                 1.2243                 1.1540
 Frc consts  --      1.4722                 1.5135                 1.4512
 IR Inten    --      6.5756                 4.6949                 0.6061

                     55                     56                     57
                      A                      A                      A
 Frequencies --   1466.6281              1483.2321              1494.6357
 Red. masses --      1.1374                 1.1680                 1.1628
 Frc consts  --      1.4414                 1.5140                 1.5305
 IR Inten    --      2.7384                15.0290                13.8218

                     58                     59                     60
                      A                      A                      A
 Frequencies --   1503.5570              1505.1986              1509.5893
 Red. masses --      1.0581                 1.0730                 1.0572
 Frc consts  --      1.4093                 1.4323                 1.4194
 IR Inten    --      3.0699                 5.2896                 4.6177

                     61                     62                     63
                      A                      A                      A
 Frequencies --   1511.9122              1514.8541              1516.3329
 Red. masses --      1.0471                 1.0523                 1.0466
 Frc consts  --      1.4102                 1.4228                 1.4178
 IR Inten    --      0.7640                 7.8863                 0.7355

                     64                     65                     66
                      A                      A                      A
 Frequencies --   1518.9812              1529.4224              1530.7224
 Red. masses --      1.0656                 1.0537                 1.0553
 Frc consts  --      1.4486                 1.4522                 1.4568
 IR Inten    --      8.2259                11.1332                 7.1385

                     67                     68                     69
                      A                      A                      A
 Frequencies --   1532.5285              1542.1463              1545.6544
 Red. masses --      1.0560                 1.0552                 1.0546
 Frc consts  --      1.4612                 1.4786                 1.4845
 IR Inten    --      2.0763                10.0126                11.0776

                     70                     71                     72
                      A                      A                      A
 Frequencies --   1550.5363              1566.2855              1702.2312
 Red. masses --      1.0767                 1.1167                 9.2288
 Frc consts  --      1.5251                 1.6141                15.7555
 IR Inten    --      6.8305                30.5450               472.1882

                     73                     74                     75
                      A                      A                      A
 Frequencies --   2977.6021              2984.0176              2988.7573
 Red. masses --      1.0497                 1.0557                 1.0574
 Frc consts  --      5.4836                 5.5387                 5.5653
 IR Inten    --     39.8967               129.7439               103.7478

                     76                     77                     78
                      A                      A                      A
 Frequencies --   3015.9074              3025.4612              3033.8954
 Red. masses --      1.0490                 1.0905                 1.0906
 Frc consts  --      5.6216                 5.8809                 5.9142
 IR Inten    --     79.7076                63.2655                35.9837

                     79                     80                     81
                      A                      A                      A
 Frequencies --   3041.6426              3047.7730              3055.0905
 Red. masses --      1.0357                 1.0376                 1.0387
 Frc consts  --      5.6457                 5.6786                 5.7119
 IR Inten    --     23.1726                29.1371                36.2099

                     82                     83                     84
                      A                      A                      A
 Frequencies --   3078.3250              3081.7739              3104.8635
 Red. masses --      1.0852                 1.0916                 1.1015
 Frc consts  --      6.0587                 6.1083                 6.2563
 IR Inten    --     27.0977                64.9583                 1.5132

                     85                     86                     87
                      A                      A                      A
 Frequencies --   3110.6854              3116.9784              3126.3825
 Red. masses --      1.1010                 1.1007                 1.1027
 Frc consts  --      6.2769                 6.3005                 6.3502
 IR Inten    --     29.0610                82.1401                15.0660

                     88                     89                     90
                      A                      A                      A
 Frequencies --   3130.3712              3154.6986              3163.3244
 Red. masses --      1.1019                 1.0964                 1.0940
 Frc consts  --      6.3618                 6.4291                 6.4498
 IR Inten    --     49.6206                29.9641                 9.0064

                     91                     92                     93
                      A                      A                      A
 Frequencies --   3167.7278              3168.4226              3170.2526
 Red. masses --      1.0968                 1.0947                 1.0924
 Frc consts  --      6.4843                 6.4748                 6.4686
 IR Inten    --     13.4713                20.0683                 8.4841

 - Thermochemistry -
 -------------------
 Temperature   298.150 Kelvin.  Pressure   1.00000 Atm.
 Atom     1 has atomic number  7 and mass  14.00307

 Molecular mass:   171.17355 amu.
 Principal axes and moments of inertia in atomic units:
                           1         2         3
     Eigenvalues --  1507.516342533.454733285.56822
           X            1.00000  -0.00073  -0.00244
           Y            0.00074   0.99999   0.00428
           Z            0.00244  -0.00428   0.99999
 This molecule is an asymmetric top.
 Rotational symmetry number  1.
 Warning -- assumption of classical behavior for rotation
           may cause significant error
 Rotational temperatures (Kelvin)      0.05745     0.03419     0.02636
 Rotational constants (GHZ):           1.19716     0.71236     0.54929
 Zero-point vibrational energy     789964.9 (Joules/Mol)
                                  188.80614 (Kcal/Mol)
 Warning -- explicit consideration of  25 degrees of freedom as
           vibrations may cause significant error
 Vibrational temperatures:     45.80    96.61   127.98   185.89   192.53
          (Kelvin)            213.24   265.93   290.30   309.63   314.37
                              325.72   358.19   382.83   390.45   420.21
                              437.84   474.51   505.06   535.26   545.95
                              588.11   654.10   725.06   766.08   847.74
                              998.91  1095.32  1127.37  1309.01  1323.33
                             1333.82  1371.73  1391.76  1503.91  1519.55
                             1533.19  1555.39  1578.21  1628.31  1633.97
                             1654.11  1700.92  1703.88  1793.40  1796.26
                             1807.33  1825.67  1847.46  1958.62  2009.64
                             2038.65  2043.01  2084.11  2102.01  2110.15
                             2134.04  2150.45  2163.28  2165.65  2171.96
                             2175.30  2179.54  2181.66  2185.48  2200.50
                             2202.37  2204.97  2218.80  2223.85  2230.88
                             2253.54  2449.13  4284.11  4293.34  4300.16
                             4339.22  4352.96  4365.10  4376.25  4385.07
                             4395.59  4429.02  4433.99  4467.21  4475.58
                             4484.64  4498.17  4503.91  4538.91  4551.32
                             4557.65  4558.65  4561.29

 Zero-point correction=                           0.300882 (Hartree/Particle)
 Thermal correction to Energy=                    0.316644
 Thermal correction to Enthalpy=                  0.317588
 Thermal correction to Gibbs Free Energy=         0.259212
 Sum of electronic and zero-point Energies=           -519.528571
 Sum of electronic and thermal Energies=              -519.512808
 Sum of electronic and thermal Enthalpies=            -519.511864
 Sum of electronic and thermal Free Energies=         -519.570240

                     E (Thermal)             CV                S
                      KCal/Mol        Cal/Mol-Kelvin    Cal/Mol-Kelvin
 Total                  198.697             57.740            122.863
 Electronic               0.000              0.000              0.000
 Translational            0.889              2.981             41.320
 Rotational               0.889              2.981             30.907
 Vibrational            196.920             51.778             50.636
 Vibration     1          0.594              1.983              5.712
 Vibration     2          0.598              1.970              4.235
 Vibration     3          0.602              1.957              3.683
 Vibration     4          0.612              1.924              2.958
 Vibration     5          0.613              1.920              2.891
 Vibration     6          0.618              1.905              2.695
 Vibration     7          0.631              1.861              2.279
 Vibration     8          0.639              1.837              2.117
 Vibration     9          0.645              1.818              1.999
 Vibration    10          0.646              1.813              1.972
 Vibration    11          0.650              1.801              1.907
 Vibration    12          0.662              1.764              1.738
 Vibration    13          0.672              1.735              1.622
 Vibration    14          0.675              1.726              1.587
 Vibration    15          0.687              1.689              1.462
 Vibration    16          0.695              1.666              1.393
 Vibration    17          0.713              1.616              1.261
 Vibration    18          0.728              1.573              1.162
 Vibration    19          0.744              1.530              1.071
 Vibration    20          0.749              1.514              1.041
 Vibration    21          0.773              1.451              0.931
 Vibration    22          0.813              1.351              0.782
 Vibration    23          0.859              1.241              0.648
 Vibration    24          0.887              1.178              0.582
 Vibration    25          0.946              1.055              0.469

 Optimization completed.
    -- Stationary point found.
 Normal termination of Gaussian 16 at Mon Aug 24 14:29:24 2020.
 Gaussian 16:  ES64L-G16RevA.03 25-Dec-2016

 ----------------------------------------------------------------------
 # TD(NStates=10, Root=1) B3LYP/6-31G* scf=qc volume pop=NPA density=cu
 rrent Geom=AllCheck Guess=Read
 ----------------------------------------------------------------------

 Structure from the checkpoint file:  "base_3_conf173.chk"
 -------------------
 Title Card Required
 -------------------
 Charge =  0 Multiplicity = 1

                         Standard orientation:
 ---------------------------------------------------------------------
 Center     Atomic      Atomic             Coordinates (Angstroms)
 Number     Number       Type             X           Y           Z
 ---------------------------------------------------------------------
      1          7           0       -0.845140    1.214576   -0.137680
      2          6           0       -0.568729   -0.158478    0.029921
      3          7           0        0.561632   -0.724335    0.241537
      4          6           0        1.910621   -0.200668   -0.003580
      5          6           0        2.558815    0.206324    1.336907
      6          6           0        2.696473   -1.411045   -0.562495
      7          6           0        2.024083    0.949129   -1.028158
      8          7           0       -1.707726   -0.975566   -0.093694
      9          6           0       -1.483772   -2.407802   -0.226567
     10          6           0       -2.888986   -0.652502    0.699761
     11          6           0       -1.762624    1.690074   -1.155410
     12          6           0       -0.486239    2.182301    0.877858
     13          1           0        2.449746   -0.601528    2.068146
     14          1           0        2.101726    1.108902    1.755033
     15          1           0        3.628379    0.408023    1.202299
     16          1           0        2.632743   -2.254403    0.132219
     17          1           0        3.752883   -1.160881   -0.719799
     18          1           0        2.272466   -1.731735   -1.520987
     19          1           0        1.611410    1.891550   -0.662942
     20          1           0        1.508380    0.689539   -1.959605
     21          1           0        3.080625    1.121535   -1.267436
     22          1           0       -0.675959   -2.587656   -0.936463
     23          1           0       -2.406111   -2.873744   -0.593302
     24          1           0       -1.202567   -2.880067    0.726979
     25          1           0       -2.987377    0.427071    0.817382
     26          1           0       -2.840056   -1.104243    1.705099
     27          1           0       -3.790211   -1.030336    0.202629
     28          1           0       -1.991837    0.880071   -1.849094
     29          1           0       -1.304800    2.517362   -1.717706
     30          1           0       -2.711481    2.063723   -0.733802
     31          1           0        0.080193    1.693797    1.671106
     32          1           0       -1.388568    2.630856    1.327609
     33          1           0        0.121208    3.005441    0.472076
 ---------------------------------------------------------------------

 SCF Done:  E(RB3LYP) =  -519.829452360     a.u. after    1 cycles

 Excitation energies and oscillator strengths:

 Excited State   1:      Singlet-A      5.4516 eV  227.43 nm  f=0.0042  <S**2>=0.000
      46 -> 49         0.30897
      47 -> 49         0.51873
      48 -> 49        -0.36042
 This state for optimization and/or second-order correction.
 Total Energy, E(TD-HF/TD-DFT) =  -519.629111124
 Copying the excited state density for this state as the 1-particle RhoCI density.

 Excited State   2:      Singlet-A      5.9976 eV  206.72 nm  f=0.1131  <S**2>=0.000
      46 -> 49         0.57302
      48 -> 49         0.39155

 Excited State   3:      Singlet-A      6.2847 eV  197.28 nm  f=0.2789  <S**2>=0.000
      46 -> 49        -0.25432
      47 -> 49         0.45919
      48 -> 49         0.44136

 Excited State   4:      Singlet-A      6.4984 eV  190.79 nm  f=0.0068  <S**2>=0.000
      47 -> 50        -0.10239
      48 -> 50         0.68372

 Excited State   5:      Singlet-A      6.9200 eV  179.17 nm  f=0.0290  <S**2>=0.000
      46 -> 50        -0.24419
      47 -> 50         0.64068
      48 -> 50         0.12538

 Excited State   6:      Singlet-A      7.0578 eV  175.67 nm  f=0.0037  <S**2>=0.000
      46 -> 50         0.64304
      47 -> 50         0.26133

 Excited State   7:      Singlet-A      7.4161 eV  167.18 nm  f=0.0078  <S**2>=0.000
      48 -> 51         0.68247
      48 -> 53        -0.11769

 Excited State   8:      Singlet-A      7.6922 eV  161.18 nm  f=0.0148  <S**2>=0.000
      48 -> 52         0.68149

 Excited State   9:      Singlet-A      7.8210 eV  158.53 nm  f=0.0223  <S**2>=0.000
      47 -> 51         0.67154

 Excited State  10:      Singlet-A      7.9409 eV  156.13 nm  f=0.0095  <S**2>=0.000
      46 -> 51         0.58566
      46 -> 52         0.12985
      47 -> 52        -0.13638
      47 -> 53         0.10839
      48 -> 51        -0.10684
      48 -> 53        -0.27319

 The electronic state is 1-A.
 Alpha  occ. eigenvalues --  -14.33742 -14.33696 -14.27856 -10.26424 -10.21164
 Alpha  occ. eigenvalues --  -10.20867 -10.20858 -10.20809 -10.19422 -10.16070
 Alpha  occ. eigenvalues --  -10.15853 -10.15374  -0.96890  -0.89944  -0.86533
 Alpha  occ. eigenvalues --   -0.77042  -0.71590  -0.70449  -0.68210  -0.67181
 Alpha  occ. eigenvalues --   -0.66538  -0.63323  -0.56682  -0.52425  -0.50149
 Alpha  occ. eigenvalues --   -0.47227  -0.46454  -0.45260  -0.44299  -0.43262
 Alpha  occ. eigenvalues --   -0.42363  -0.41918  -0.40387  -0.39514  -0.38972
 Alpha  occ. eigenvalues --   -0.38245  -0.37734  -0.37449  -0.37225  -0.36392
 Alpha  occ. eigenvalues --   -0.35384  -0.34810  -0.32836  -0.31471  -0.29727
 Alpha  occ. eigenvalues --   -0.22027  -0.21458  -0.20160
 Alpha virt. eigenvalues --    0.04029   0.07085   0.10340   0.11255   0.12770
 Alpha virt. eigenvalues --    0.13209   0.13952   0.14386   0.15222   0.15691
 Alpha virt. eigenvalues --    0.16177   0.16815   0.17107   0.17445   0.18034

 Mulliken charges:
               1
     1  N   -0.398671
     2  C    0.525256
     3  N   -0.425528
     4  C    0.189154
     5  C   -0.426072
     6  C   -0.432074
     7  C   -0.441557
     8  N   -0.405459
     9  C   -0.296461
    10  C   -0.293793
    11  C   -0.300357
    12  C   -0.307243
    13  H    0.146015
    14  H    0.136491
    15  H    0.125522
    16  H    0.147216
    17  H    0.129685
    18  H    0.144891
    19  H    0.160002
    20  H    0.156985
    21  H    0.145305
    22  H    0.159784
    23  H    0.140109
    24  H    0.122879
    25  H    0.152091
    26  H    0.113164
    27  H    0.135124
    28  H    0.180827
    29  H    0.134884
    30  H    0.139287
    31  H    0.174940
    32  H    0.129736
    33  H    0.137868
 Sum of Mulliken charges =  -0.00000

 Dipole moment (field-independent basis, Debye):
    X=              0.0426    Y=              1.1412    Z=             -0.3625  Tot=              1.1982
 Quadrupole moment (field-independent basis, Debye-Ang):
   XX=            -74.9264   YY=            -74.9278   ZZ=            -77.9266
   XY=             -0.2944   XZ=             -0.3598   YZ=              0.3640

 Summary of Natural Population Analysis:

                                       Natural Population
                Natural  -----------------------------------------------
    Atom  No    Charge         Core      Valence    Rydberg      Total
 -----------------------------------------------------------------------
      N    1   -0.45651      1.99935     5.44458    0.01258     7.45651
      C    2    0.37822      1.99913     3.58838    0.03428     5.62178
      N    3   -0.33341      1.99898     5.31528    0.01914     7.33341
      C    4    0.09788      1.99908     3.88404    0.01901     5.90212
      C    5   -0.67641      1.99935     4.66659    0.01047     6.67641
      C    6   -0.66529      1.99935     4.65562    0.01032     6.66529
      C    7   -0.66112      1.99931     4.65235    0.00947     6.66112
      N    8   -0.49703      1.99939     5.48377    0.01386     7.49703
      C    9   -0.46742      1.99949     4.45528    0.01265     6.46742
      C   10   -0.46049      1.99946     4.44880    0.01223     6.46049
      C   11   -0.46965      1.99946     4.45744    0.01275     6.46965
      C   12   -0.46580      1.99946     4.45405    0.01230     6.46580
      H   13    0.23745      0.00000     0.76112    0.00143     0.76255
      H   14    0.22196      0.00000     0.77712    0.00092     0.77804
      H   15    0.22114      0.00000     0.77709    0.00177     0.77886
      H   16    0.23511      0.00000     0.76368    0.00121     0.76489
      H   17    0.22188      0.00000     0.77654    0.00158     0.77812
      H   18    0.23363      0.00000     0.76517    0.00120     0.76637
      H   19    0.23573      0.00000     0.76319    0.00107     0.76427
      H   20    0.24186      0.00000     0.75709    0.00105     0.75814
      H   21    0.23710      0.00000     0.76152    0.00137     0.76290
      H   22    0.23466      0.00000     0.76446    0.00088     0.76534
      H   23    0.22152      0.00000     0.77751    0.00097     0.77848
      H   24    0.19239      0.00000     0.80292    0.00469     0.80761
      H   25    0.22286      0.00000     0.77625    0.00090     0.77714
      H   26    0.18700      0.00000     0.80648    0.00651     0.81300
      H   27    0.21401      0.00000     0.78373    0.00226     0.78599
      H   28    0.25078      0.00000     0.74820    0.00102     0.74922
      H   29    0.20938      0.00000     0.78808    0.00255     0.79062
      H   30    0.21063      0.00000     0.78734    0.00203     0.78937
      H   31    0.23568      0.00000     0.76342    0.00090     0.76432
      H   32    0.20605      0.00000     0.79017    0.00378     0.79395
      H   33    0.20622      0.00000     0.79192    0.00186     0.79378
 =======================================================================
   * Total *    0.00000     23.99182    71.78918    0.21899    96.00000

 Normal termination of Gaussian 16 at Mon Aug 24 14:36:37 2020.
