 Gaussian 16, Revision A.03,

 ---------------------------------
 # opt=CalcAll B3LYP/6-31G* scf=qc
 ---------------------------------

 -------------------
 Title Card Required
 -------------------
 Symbolic Z-matrix:
 Charge =  0 Multiplicity = 1

 SCF Done:  E(RB3LYP) =  -519.759031773     a.u. after    9 cycles
 SCF Done:  E(RB3LYP) =  -519.770050202     a.u. after   13 cycles
 SCF Done:  E(RB3LYP) =  -519.804138957     a.u. after   15 cycles
 SCF Done:  E(RB3LYP) =  -519.818580499     a.u. after   13 cycles
 SCF Done:  E(RB3LYP) =  -519.824241833     a.u. after   13 cycles
 SCF Done:  E(RB3LYP) =  -519.827438240     a.u. after   13 cycles
 SCF Done:  E(RB3LYP) =  -519.828972803     a.u. after   11 cycles
 SCF Done:  E(RB3LYP) =  -519.828915904     a.u. after   13 cycles
 SCF Done:  E(RB3LYP) =  -519.829424965     a.u. after    9 cycles
 SCF Done:  E(RB3LYP) =  -519.829444523     a.u. after    7 cycles
 SCF Done:  E(RB3LYP) =  -519.829443331     a.u. after    3 cycles
 SCF Done:  E(RB3LYP) =  -519.829452233     a.u. after    4 cycles
 SCF Done:  E(RB3LYP) =  -519.829452182     a.u. after    4 cycles
 SCF Done:  E(RB3LYP) =  -519.829452352     a.u. after    2 cycles
 Optimization completed.
    -- Stationary point found.
 Normal termination of Gaussian 16 at Mon Aug 24 13:47:11 2020.

 ----------------------------------------------------------------------
 # freq B3LYP/6-31G* scf=qc volume NMR pop=NPA density=current Geom=All
 Check Guess=Read
 ----------------------------------------------------------------------

 Structure from the checkpoint file:  "base_3_conf152.chk"
 -------------------
 Title Card Required
 -------------------
 Charge =  0 Multiplicity = 1

 SCF Done:  E(RB3LYP) =  -519.829452352     a.u. after    1 cycles

      1  N    Isotropic =   210.2857   Anisotropy =    59.8242

      2  C    Isotropic =    44.7783   Anisotropy =    69.4620

      3  N    Isotropic =    19.7012   Anisotropy =   285.4133

      4  C    Isotropic =   135.3666   Anisotropy =    31.4252

      5  C    Isotropic =   159.1510   Anisotropy =    39.1477

      6  C    Isotropic =   152.7034   Anisotropy =    46.8972

      7  C    Isotropic =   163.0980   Anisotropy =    32.4251

      8  N    Isotropic =   182.1509   Anisotropy =    82.9129

      9  C    Isotropic =   152.1187   Anisotropy =    52.2867

     10  C    Isotropic =   150.8880   Anisotropy =    45.6683

     11  C    Isotropic =   151.6464   Anisotropy =    54.8060

     12  C    Isotropic =   148.0071   Anisotropy =    53.5596

     13  H    Isotropic =    30.7493   Anisotropy =     6.9871

     14  H    Isotropic =    30.9933   Anisotropy =     5.7592

     15  H    Isotropic =    31.0560   Anisotropy =     8.2228

     16  H    Isotropic =    30.5396   Anisotropy =     6.6857

     17  H    Isotropic =    31.1935   Anisotropy =     8.2927

     18  H    Isotropic =    31.0197   Anisotropy =     6.5446

     19  H    Isotropic =    30.5618   Anisotropy =     6.0572

     20  H    Isotropic =    31.0879   Anisotropy =     5.7443

     21  H    Isotropic =    31.0452   Anisotropy =     7.8890

     22  H    Isotropic =    29.5590   Anisotropy =     4.5852

     23  H    Isotropic =    29.9838   Anisotropy =     9.2556

     24  H    Isotropic =    29.8834   Anisotropy =     9.0935

     25  H    Isotropic =    29.3349   Anisotropy =     7.1047

     26  H    Isotropic =    30.2742   Anisotropy =     9.0294

     27  H    Isotropic =    29.7954   Anisotropy =     8.3930

     28  H    Isotropic =    29.2311   Anisotropy =     6.8435

     29  H    Isotropic =    29.7709   Anisotropy =     9.6439

     30  H    Isotropic =    29.8845   Anisotropy =     8.3714

     31  H    Isotropic =    29.2971   Anisotropy =     6.0180

     32  H    Isotropic =    29.8059   Anisotropy =     9.4479

     33  H    Isotropic =    29.5096   Anisotropy =     7.9152

  Exact polarizability: 143.943  -1.406 121.705   0.481  -0.836  96.882
 Approx polarizability: 189.261  -5.924 166.668   4.470  -1.898 139.889

                      1                      2                      3
                      A                      A                      A
 Frequencies --     31.8496                67.1310                88.9518
 Red. masses --      2.5936                 2.7508                 2.5812
 Frc consts  --      0.0016                 0.0073                 0.0120
 IR Inten    --      0.2104                 0.4460                 2.1958

                      4                      5                      6
                      A                      A                      A
 Frequencies --    129.2437               133.8245               148.2667
 Red. masses --      1.7581                 2.1588                 2.0171
 Frc consts  --      0.0173                 0.0228                 0.0261
 IR Inten    --      2.0409                 1.3569                 0.7039

                      7                      8                      9
                      A                      A                      A
 Frequencies --    184.8533               201.8053               215.2756
 Red. masses --      1.7129                 1.2800                 1.1426
 Frc consts  --      0.0345                 0.0307                 0.0312
 IR Inten    --      0.2918                 0.5195                 0.1788

                     10                     11                     12
                      A                      A                      A
 Frequencies --    218.5131               226.3775               248.9779
 Red. masses --      1.1525                 1.5802                 1.3231
 Frc consts  --      0.0324                 0.0477                 0.0483
 IR Inten    --      0.9339                 1.0828                 2.4183

                     13                     14                     15
                      A                      A                      A
 Frequencies --    266.0818               271.3943               292.0684
 Red. masses --      1.1286                 1.9193                 1.3860
 Frc consts  --      0.0471                 0.0833                 0.0697
 IR Inten    --      1.3080                 0.8378                 3.1187

                     16                     17                     18
                      A                      A                      A
 Frequencies --    304.3120               329.8025               351.0424
 Red. masses --      2.2049                 2.7741                 2.4067
 Frc consts  --      0.1203                 0.1778                 0.1747
 IR Inten    --      4.3748                 2.8815                 1.3158

                     19                     20                     21
                      A                      A                      A
 Frequencies --    372.0391               379.4775               408.7669
 Red. masses --      2.6612                 2.4129                 2.4177
 Frc consts  --      0.2170                 0.2047                 0.2380
 IR Inten    --      5.5040                 1.4159                 1.9097

                     22                     23                     24
                      A                      A                      A
 Frequencies --    454.6500               503.9563               532.4613
 Red. masses --      2.4208                 3.5030                 3.2037
 Frc consts  --      0.2948                 0.5242                 0.5351
 IR Inten    --      0.7077                 8.1024                 0.1386

                     25                     26                     27
                      A                      A                      A
 Frequencies --    589.2455               694.2849               761.3003
 Red. masses --      3.4188                 5.2930                 7.6794
 Frc consts  --      0.6994                 1.5032                 2.6223
 IR Inten    --      9.8978                 2.2537                 9.2565

                     28                     29                     30
                      A                      A                      A
 Frequencies --    783.5720               909.8101               919.7710
 Red. masses --      3.6160                 2.3084                 2.3679
 Frc consts  --      1.3081                 1.1258                 1.1802
 IR Inten    --      1.1059                 8.5011                 5.8118

                     31                     32                     33
                      A                      A                      A
 Frequencies --    927.0585               953.3971               967.3250
 Red. masses --      1.7093                 3.0536                 1.2051
 Frc consts  --      0.8655                 1.6353                 0.6644
 IR Inten    --      0.4789                 5.8320                 0.2331

                     34                     35                     36
                      A                      A                      A
 Frequencies --   1045.2650              1056.1426              1065.6206
 Red. masses --      1.7842                 1.3961                 1.5134
 Frc consts  --      1.1486                 0.9175                 1.0125
 IR Inten    --     59.4316                 3.1436                18.5572

                     37                     38                     39
                      A                      A                      A
 Frequencies --   1081.0410              1096.9084              1131.7292
 Red. masses --      1.4308                 1.3800                 1.5465
 Frc consts  --      0.9852                 0.9783                 1.1670
 IR Inten    --     11.5227                 3.4055                82.7685

                     40                     41                     42
                      A                      A                      A
 Frequencies --   1135.6691              1149.6648              1182.2009
 Red. masses --      1.4516                 1.3530                 1.3500
 Frc consts  --      1.1031                 1.0537                 1.1116
 IR Inten    --     72.7145                32.8282                 3.4533

                     43                     44                     45
                      A                      A                      A
 Frequencies --   1184.2722              1246.4712              1248.4645
 Red. masses --      1.4163                 2.5044                 2.7358
 Frc consts  --      1.1703                 2.2926                 2.5124
 IR Inten    --     20.8620                79.1647                12.0663

                     46                     47                     48
                      A                      A                      A
 Frequencies --   1256.1577              1268.8885              1284.0366
 Red. masses --      2.8669                 4.4900                 4.9200
 Frc consts  --      2.6653                 4.2594                 4.7794
 IR Inten    --     14.1644                41.0347                18.1236

                     49                     50                     51
                      A                      A                      A
 Frequencies --   1361.2620              1396.7463              1416.9353
 Red. masses --      2.9645                 3.0565                 1.2428
 Frc consts  --      3.2365                 3.5133                 1.4701
 IR Inten    --     14.6184               206.0481                 3.5007

                     52                     53                     54
                      A                      A                      A
 Frequencies --   1419.9652              1448.5330              1460.9851
 Red. masses --      1.2393                 1.2243                 1.1540
 Frc consts  --      1.4722                 1.5135                 1.4513
 IR Inten    --      6.5776                 4.6962                 0.6035

                     55                     56                     57
                      A                      A                      A
 Frequencies --   1466.6276              1483.2451              1494.6479
 Red. masses --      1.1374                 1.1680                 1.1628
 Frc consts  --      1.4414                 1.5140                 1.5306
 IR Inten    --      2.7388                15.0194                13.8161

                     58                     59                     60
                      A                      A                      A
 Frequencies --   1503.5590              1505.1982              1509.5822
 Red. masses --      1.0581                 1.0730                 1.0572
 Frc consts  --      1.4093                 1.4323                 1.4194
 IR Inten    --      3.0672                 5.2914                 4.6144

                     61                     62                     63
                      A                      A                      A
 Frequencies --   1511.9101              1514.8517              1516.3328
 Red. masses --      1.0471                 1.0524                 1.0466
 Frc consts  --      1.4102                 1.4228                 1.4178
 IR Inten    --      0.7630                 7.8873                 0.7385

                     64                     65                     66
                      A                      A                      A
 Frequencies --   1518.9802              1529.4181              1530.7212
 Red. masses --      1.0656                 1.0537                 1.0553
 Frc consts  --      1.4486                 1.4522                 1.4568
 IR Inten    --      8.2283                11.1797                 7.0982

                     67                     68                     69
                      A                      A                      A
 Frequencies --   1532.5253              1542.1464              1545.6484
 Red. masses --      1.0560                 1.0552                 1.0546
 Frc consts  --      1.4612                 1.4786                 1.4845
 IR Inten    --      2.0806                10.0290                11.0567

                     70                     71                     72
                      A                      A                      A
 Frequencies --   1550.5264              1566.2834              1702.2499
 Red. masses --      1.0766                 1.1167                 9.2296
 Frc consts  --      1.5250                 1.6141                15.7573
 IR Inten    --      6.8357                30.5319               472.0521

                     73                     74                     75
                      A                      A                      A
 Frequencies --   2977.5853              2983.9958              2988.7281
 Red. masses --      1.0497                 1.0558                 1.0575
 Frc consts  --      5.4836                 5.5387                 5.5653
 IR Inten    --     39.8684               129.7212               103.7852

                     76                     77                     78
                      A                      A                      A
 Frequencies --   3015.9084              3025.4858              3033.9102
 Red. masses --      1.0490                 1.0904                 1.0905
 Frc consts  --      5.6217                 5.8809                 5.9142
 IR Inten    --     79.6079                63.2716                35.9959

                     79                     80                     81
                      A                      A                      A
 Frequencies --   3041.6450              3047.7732              3055.0917
 Red. masses --      1.0357                 1.0376                 1.0387
 Frc consts  --      5.6457                 5.6786                 5.7120
 IR Inten    --     23.1740                29.1293                36.2103

                     82                     83                     84
                      A                      A                      A
 Frequencies --   3078.3900              3081.8253              3104.8683
 Red. masses --      1.0852                 1.0916                 1.1015
 Frc consts  --      6.0589                 6.1083                 6.2563
 IR Inten    --     26.9088                65.1251                 1.5124

                     85                     86                     87
                      A                      A                      A
 Frequencies --   3110.6878              3116.9793              3126.3790
 Red. masses --      1.1010                 1.1007                 1.1027
 Frc consts  --      6.2769                 6.3005                 6.3502
 IR Inten    --     29.0369                82.1706                15.0564

                     88                     89                     90
                      A                      A                      A
 Frequencies --   3130.3707              3154.7068              3163.3439
 Red. masses --      1.1019                 1.0964                 1.0940
 Frc consts  --      6.3618                 6.4292                 6.4499
 IR Inten    --     49.6211                29.9559                 9.0041

                     91                     92                     93
                      A                      A                      A
 Frequencies --   3167.7044              3168.4116              3170.2644
 Red. masses --      1.0968                 1.0947                 1.0924
 Frc consts  --      6.4843                 6.4748                 6.4687
 IR Inten    --     13.4981                20.0757                 8.4856

 - Thermochemistry -
 -------------------
 Temperature   298.150 Kelvin.  Pressure   1.00000 Atm.
 Atom     1 has atomic number  7 and mass  14.00307

 Molecular mass:   171.17355 amu.
 Principal axes and moments of inertia in atomic units:
                           1         2         3
     Eigenvalues --  1507.542332533.398003285.49584
           X            1.00000  -0.00073  -0.00245
           Y            0.00074   0.99999   0.00428
           Z            0.00244  -0.00428   0.99999
 This molecule is an asymmetric top.
 Rotational symmetry number  1.
 Warning -- assumption of classical behavior for rotation
           may cause significant error
 Rotational temperatures (Kelvin)      0.05745     0.03419     0.02636
 Rotational constants (GHZ):           1.19714     0.71238     0.54931
 Zero-point vibrational energy     789968.1 (Joules/Mol)
                                  188.80691 (Kcal/Mol)
 Warning -- explicit consideration of  25 degrees of freedom as
           vibrations may cause significant error
 Vibrational temperatures:     45.82    96.59   127.98   185.95   192.54
          (Kelvin)            213.32   265.96   290.35   309.73   314.39
                              325.71   358.22   382.83   390.48   420.22
                              437.84   474.51   505.07   535.28   545.98
                              588.12   654.14   725.08   766.09   847.79
                              998.92  1095.34  1127.39  1309.01  1323.35
                             1333.83  1371.73  1391.76  1503.90  1519.55
                             1533.19  1555.38  1578.21  1628.31  1633.97
                             1654.11  1700.92  1703.90  1793.39  1796.26
                             1807.33  1825.65  1847.44  1958.55  2009.61
                             2038.65  2043.01  2084.12  2102.03  2110.15
                             2134.06  2150.46  2163.29  2165.64  2171.95
                             2175.30  2179.53  2181.66  2185.47  2200.49
                             2202.37  2204.96  2218.80  2223.84  2230.86
                             2253.53  2449.16  4284.08  4293.30  4300.11
                             4339.22  4353.00  4365.12  4376.25  4385.07
                             4395.60  4429.12  4434.06  4467.21  4475.59
                             4484.64  4498.16  4503.91  4538.92  4551.35
                             4557.62  4558.64  4561.30

 Zero-point correction=                           0.300883 (Hartree/Particle)
 Thermal correction to Energy=                    0.316645
 Thermal correction to Enthalpy=                  0.317589
 Thermal correction to Gibbs Free Energy=         0.259215
 Sum of electronic and zero-point Energies=           -519.528569
 Sum of electronic and thermal Energies=              -519.512808
 Sum of electronic and thermal Enthalpies=            -519.511863
 Sum of electronic and thermal Free Energies=         -519.570238

                     E (Thermal)             CV                S
                      KCal/Mol        Cal/Mol-Kelvin    Cal/Mol-Kelvin
 Total                  198.698             57.739            122.859
 Electronic               0.000              0.000              0.000
 Translational            0.889              2.981             41.320
 Rotational               0.889              2.981             30.907
 Vibrational            196.920             51.777             50.631
 Vibration     1          0.594              1.983              5.711
 Vibration     2          0.598              1.970              4.236
 Vibration     3          0.602              1.957              3.683
 Vibration     4          0.612              1.924              2.957
 Vibration     5          0.613              1.920              2.890
 Vibration     6          0.618              1.905              2.694
 Vibration     7          0.631              1.861              2.279
 Vibration     8          0.639              1.837              2.117
 Vibration     9          0.645              1.818              1.998
 Vibration    10          0.646              1.813              1.971
 Vibration    11          0.650              1.801              1.907
 Vibration    12          0.662              1.764              1.738
 Vibration    13          0.672              1.735              1.622
 Vibration    14          0.675              1.726              1.587
 Vibration    15          0.687              1.689              1.462
 Vibration    16          0.695              1.666              1.393
 Vibration    17          0.713              1.616              1.261
 Vibration    18          0.728              1.573              1.162
 Vibration    19          0.744              1.530              1.071
 Vibration    20          0.749              1.514              1.041
 Vibration    21          0.773              1.451              0.931
 Vibration    22          0.813              1.351              0.782
 Vibration    23          0.859              1.241              0.648
 Vibration    24          0.887              1.178              0.582
 Vibration    25          0.947              1.055              0.469

 Optimization completed.
    -- Stationary point found.
 Normal termination of Gaussian 16 at Mon Aug 24 13:53:13 2020.
 Gaussian 16:  ES64L-G16RevA.03 25-Dec-2016

 ----------------------------------------------------------------------
 # TD(NStates=10, Root=1) B3LYP/6-31G* scf=qc volume pop=NPA density=cu
 rrent Geom=AllCheck Guess=Read
 ----------------------------------------------------------------------

 Structure from the checkpoint file:  "base_3_conf153.chk"
 -------------------
 Title Card Required
 -------------------
 Charge =  0 Multiplicity = 1

                         Standard orientation:
 ---------------------------------------------------------------------
 Center     Atomic      Atomic             Coordinates (Angstroms)
 Number     Number       Type             X           Y           Z
 ---------------------------------------------------------------------
      1          7           0       -0.845207    1.214587   -0.137796
      2          6           0       -0.568750   -0.158468    0.029758
      3          7           0        0.561620   -0.724298    0.241366
      4          6           0        1.910615   -0.200562   -0.003570
      5          6           0        2.558711    0.206112    1.337057
      6          6           0        2.696505   -1.410808   -0.562714
      7          6           0        2.024144    0.949474   -1.027870
      8          7           0       -1.707713   -0.975609   -0.093973
      9          6           0       -2.888699   -0.652824    0.700028
     10          6           0       -1.483474   -2.407823   -0.226675
     11          6           0       -1.762905    1.690049   -1.155354
     12          6           0       -0.486475    2.182244    0.877870
     13          1           0        2.449667   -0.601948    2.068070
     14          1           0        2.101532    1.108540    1.755412
     15          1           0        3.628266    0.407931    1.202553
     16          1           0        2.632720   -2.254333    0.131792
     17          1           0        3.752926   -1.160607   -0.719878
     18          1           0        2.272570   -1.731267   -1.521316
     19          1           0        1.611483    1.891821   -0.662451
     20          1           0        1.508474    0.690120   -1.959400
     21          1           0        3.080702    1.121906   -1.267059
     22          1           0       -2.987542    0.426742    0.817340
     23          1           0       -2.839055   -1.104214    1.705492
     24          1           0       -3.789987   -1.031237    0.203462
     25          1           0       -0.676088   -2.587649   -0.937066
     26          1           0       -2.405944   -2.874035   -0.592722
     27          1           0       -1.201526   -2.879829    0.726781
     28          1           0       -1.992012    0.880110   -1.849147
     29          1           0       -1.305311    2.517534   -1.717544
     30          1           0       -2.711805    2.063426   -0.733596
     31          1           0        0.080214    1.693781    1.670959
     32          1           0       -1.388874    2.630460    1.327823
     33          1           0        0.120669    3.005625    0.472132
 ---------------------------------------------------------------------

 SCF Done:  E(RB3LYP) =  -519.829452352     a.u. after    1 cycles

 Excitation energies and oscillator strengths:

 Excited State   1:      Singlet-A      5.4515 eV  227.43 nm  f=0.0042  <S**2>=0.000
      46 -> 49         0.30908
      47 -> 49         0.51866
      48 -> 49        -0.36043
 This state for optimization and/or second-order correction.
 Total Energy, E(TD-HF/TD-DFT) =  -519.629113077
 Copying the excited state density for this state as the 1-particle RhoCI density.

 Excited State   2:      Singlet-A      5.9972 eV  206.74 nm  f=0.1131  <S**2>=0.000
      46 -> 49         0.57285
      48 -> 49         0.39182

 Excited State   3:      Singlet-A      6.2848 eV  197.28 nm  f=0.2788  <S**2>=0.000
      46 -> 49        -0.25459
      47 -> 49         0.45931
      48 -> 49         0.44113

 Excited State   4:      Singlet-A      6.4986 eV  190.79 nm  f=0.0068  <S**2>=0.000
      47 -> 50        -0.10222
      48 -> 50         0.68377

 Excited State   5:      Singlet-A      6.9205 eV  179.15 nm  f=0.0289  <S**2>=0.000
      46 -> 50        -0.24455
      47 -> 50         0.64056
      48 -> 50         0.12528

 Excited State   6:      Singlet-A      7.0579 eV  175.67 nm  f=0.0037  <S**2>=0.000
      46 -> 50         0.64290
      47 -> 50         0.26169

 Excited State   7:      Singlet-A      7.4161 eV  167.18 nm  f=0.0078  <S**2>=0.000
      48 -> 51         0.68248
      48 -> 53        -0.11775

 Excited State   8:      Singlet-A      7.6928 eV  161.17 nm  f=0.0147  <S**2>=0.000
      48 -> 52         0.68151

 Excited State   9:      Singlet-A      7.8213 eV  158.52 nm  f=0.0223  <S**2>=0.000
      47 -> 51         0.67158

 Excited State  10:      Singlet-A      7.9410 eV  156.13 nm  f=0.0094  <S**2>=0.000
      46 -> 51         0.58644
      46 -> 52         0.12900
      47 -> 52        -0.13467
      47 -> 53         0.10817
      48 -> 51        -0.10681
      48 -> 53        -0.27312

 The electronic state is 1-A.
 Alpha  occ. eigenvalues --  -14.33741 -14.33696 -14.27857 -10.26424 -10.21165
 Alpha  occ. eigenvalues --  -10.20866 -10.20858 -10.20809 -10.19421 -10.16070
 Alpha  occ. eigenvalues --  -10.15854 -10.15374  -0.96890  -0.89945  -0.86533
 Alpha  occ. eigenvalues --   -0.77042  -0.71590  -0.70449  -0.68210  -0.67182
 Alpha  occ. eigenvalues --   -0.66539  -0.63323  -0.56682  -0.52425  -0.50148
 Alpha  occ. eigenvalues --   -0.47227  -0.46454  -0.45260  -0.44299  -0.43261
 Alpha  occ. eigenvalues --   -0.42363  -0.41919  -0.40387  -0.39513  -0.38972
 Alpha  occ. eigenvalues --   -0.38245  -0.37733  -0.37449  -0.37225  -0.36392
 Alpha  occ. eigenvalues --   -0.35385  -0.34810  -0.32836  -0.31471  -0.29727
 Alpha  occ. eigenvalues --   -0.22027  -0.21460  -0.20161
 Alpha virt. eigenvalues --    0.04028   0.07085   0.10339   0.11256   0.12770
 Alpha virt. eigenvalues --    0.13209   0.13952   0.14387   0.15222   0.15691
 Alpha virt. eigenvalues --    0.16177   0.16814   0.17109   0.17445   0.18034

 Mulliken charges:
               1
     1  N   -0.398679
     2  C    0.525246
     3  N   -0.425500
     4  C    0.189138
     5  C   -0.426072
     6  C   -0.432071
     7  C   -0.441550
     8  N   -0.405467
     9  C   -0.293787
    10  C   -0.296461
    11  C   -0.300350
    12  C   -0.307246
    13  H    0.146018
    14  H    0.136499
    15  H    0.125524
    16  H    0.147217
    17  H    0.129687
    18  H    0.144895
    19  H    0.160010
    20  H    0.156993
    21  H    0.145306
    22  H    0.152081
    23  H    0.113154
    24  H    0.135117
    25  H    0.159772
    26  H    0.140115
    27  H    0.122884
    28  H    0.180832
    29  H    0.134886
    30  H    0.139279
    31  H    0.174933
    32  H    0.129730
    33  H    0.137866
 Sum of Mulliken charges =  -0.00000

 Dipole moment (field-independent basis, Debye):
    X=              0.0435    Y=              1.1408    Z=             -0.3619  Tot=              1.1976
 Quadrupole moment (field-independent basis, Debye-Ang):
   XX=            -74.9267   YY=            -74.9273   ZZ=            -77.9272
   XY=             -0.2937   XZ=             -0.3608   YZ=              0.3632

 Summary of Natural Population Analysis:

                                       Natural Population
                Natural  -----------------------------------------------
    Atom  No    Charge         Core      Valence    Rydberg      Total
 -----------------------------------------------------------------------
      N    1   -0.45654      1.99935     5.44461    0.01258     7.45654
      C    2    0.37822      1.99913     3.58837    0.03428     5.62178
      N    3   -0.33336      1.99898     5.31523    0.01915     7.33336
      C    4    0.09787      1.99908     3.88404    0.01901     5.90213
      C    5   -0.67640      1.99935     4.66658    0.01047     6.67640
      C    6   -0.66529      1.99935     4.65562    0.01032     6.66529
      C    7   -0.66112      1.99931     4.65234    0.00947     6.66112
      N    8   -0.49704      1.99939     5.48378    0.01387     7.49704
      C    9   -0.46049      1.99946     4.44881    0.01223     6.46049
      C   10   -0.46743      1.99949     4.45529    0.01266     6.46743
      C   11   -0.46965      1.99946     4.45744    0.01275     6.46965
      C   12   -0.46580      1.99946     4.45404    0.01230     6.46580
      H   13    0.23745      0.00000     0.76112    0.00143     0.76255
      H   14    0.22196      0.00000     0.77712    0.00092     0.77804
      H   15    0.22114      0.00000     0.77709    0.00177     0.77886
      H   16    0.23511      0.00000     0.76368    0.00121     0.76489
      H   17    0.22188      0.00000     0.77654    0.00158     0.77812
      H   18    0.23363      0.00000     0.76517    0.00120     0.76637
      H   19    0.23574      0.00000     0.76319    0.00107     0.76426
      H   20    0.24187      0.00000     0.75708    0.00105     0.75813
      H   21    0.23711      0.00000     0.76152    0.00137     0.76289
      H   22    0.22285      0.00000     0.77626    0.00090     0.77715
      H   23    0.18699      0.00000     0.80649    0.00651     0.81301
      H   24    0.21401      0.00000     0.78373    0.00226     0.78599
      H   25    0.23465      0.00000     0.76447    0.00088     0.76535
      H   26    0.22153      0.00000     0.77750    0.00097     0.77847
      H   27    0.19240      0.00000     0.80291    0.00469     0.80760
      H   28    0.25078      0.00000     0.74820    0.00102     0.74922
      H   29    0.20938      0.00000     0.78807    0.00255     0.79062
      H   30    0.21062      0.00000     0.78736    0.00203     0.78938
      H   31    0.23567      0.00000     0.76343    0.00090     0.76433
      H   32    0.20604      0.00000     0.79018    0.00378     0.79396
      H   33    0.20623      0.00000     0.79192    0.00186     0.79377
 =======================================================================
   * Total *   -0.00000     23.99182    71.78917    0.21901    96.00000

 Normal termination of Gaussian 16 at Mon Aug 24 14:00:04 2020.
