 Gaussian 16, Revision A.03,

 ---------------------------------
 # opt=CalcAll B3LYP/6-31G* scf=qc
 ---------------------------------

 -------------------
 Title Card Required
 -------------------
 Symbolic Z-matrix:
 Charge =  0 Multiplicity = 1

 SCF Done:  E(RB3LYP) =  -519.750411444     a.u. after    9 cycles
 SCF Done:  E(RB3LYP) =  -519.764905651     a.u. after   13 cycles
 SCF Done:  E(RB3LYP) =  -519.799692709     a.u. after   13 cycles
 SCF Done:  E(RB3LYP) =  -519.819445211     a.u. after   17 cycles
 SCF Done:  E(RB3LYP) =  -519.826511769     a.u. after   13 cycles
 SCF Done:  E(RB3LYP) =  -519.828811706     a.u. after   11 cycles
 SCF Done:  E(RB3LYP) =  -519.829434012     a.u. after   11 cycles
 SCF Done:  E(RB3LYP) =  -519.829452280     a.u. after    5 cycles
 SCF Done:  E(RB3LYP) =  -519.829452357     a.u. after    2 cycles
 Optimization completed.
    -- Stationary point found.
 Normal termination of Gaussian 16 at Mon Aug 24 14:17:08 2020.

 ----------------------------------------------------------------------
 # freq B3LYP/6-31G* scf=qc volume NMR pop=NPA density=current Geom=All
 Check Guess=Read
 ----------------------------------------------------------------------

 Structure from the checkpoint file:  "base_3_conf182.chk"
 -------------------
 Title Card Required
 -------------------
 Charge =  0 Multiplicity = 1

 SCF Done:  E(RB3LYP) =  -519.829452357     a.u. after    1 cycles

      1  N    Isotropic =   210.2908   Anisotropy =    59.8268

      2  C    Isotropic =    44.7799   Anisotropy =    69.4534

      3  N    Isotropic =    19.7281   Anisotropy =   285.3680

      4  C    Isotropic =   135.3673   Anisotropy =    31.4246

      5  C    Isotropic =   159.1528   Anisotropy =    39.1471

      6  C    Isotropic =   152.7029   Anisotropy =    46.8972

      7  C    Isotropic =   163.0969   Anisotropy =    32.4304

      8  N    Isotropic =   182.1520   Anisotropy =    82.9119

      9  C    Isotropic =   150.8936   Anisotropy =    45.6713

     10  C    Isotropic =   152.1226   Anisotropy =    52.2850

     11  C    Isotropic =   151.6464   Anisotropy =    54.8038

     12  C    Isotropic =   148.0083   Anisotropy =    53.5556

     13  H    Isotropic =    30.7495   Anisotropy =     6.9872

     14  H    Isotropic =    30.9930   Anisotropy =     5.7582

     15  H    Isotropic =    31.0562   Anisotropy =     8.2229

     16  H    Isotropic =    30.5395   Anisotropy =     6.6860

     17  H    Isotropic =    31.1936   Anisotropy =     8.2928

     18  H    Isotropic =    31.0198   Anisotropy =     6.5447

     19  H    Isotropic =    30.5616   Anisotropy =     6.0575

     20  H    Isotropic =    31.0885   Anisotropy =     5.7448

     21  H    Isotropic =    31.0452   Anisotropy =     7.8891

     22  H    Isotropic =    29.3336   Anisotropy =     7.1014

     23  H    Isotropic =    30.2737   Anisotropy =     9.0307

     24  H    Isotropic =    29.7961   Anisotropy =     8.3958

     25  H    Isotropic =    29.5586   Anisotropy =     4.5845

     26  H    Isotropic =    29.9835   Anisotropy =     9.2578

     27  H    Isotropic =    29.8831   Anisotropy =     9.0934

     28  H    Isotropic =    29.2316   Anisotropy =     6.8430

     29  H    Isotropic =    29.7708   Anisotropy =     9.6435

     30  H    Isotropic =    29.8844   Anisotropy =     8.3723

     31  H    Isotropic =    29.2970   Anisotropy =     6.0184

     32  H    Isotropic =    29.8058   Anisotropy =     9.4486

     33  H    Isotropic =    29.5095   Anisotropy =     7.9138

  Exact polarizability: 143.948   1.402 121.707   0.482   0.836  96.882
 Approx polarizability: 189.266   5.917 166.670   4.470   1.899 139.887

                      1                      2                      3
                      A                      A                      A
 Frequencies --     31.8310                67.1485                88.9603
 Red. masses --      2.5933                 2.7505                 2.5807
 Frc consts  --      0.0015                 0.0073                 0.0120
 IR Inten    --      0.2107                 0.4459                 2.1978

                      4                      5                      6
                      A                      A                      A
 Frequencies --    129.2039               133.8138               148.2158
 Red. masses --      1.7542                 2.1620                 2.0192
 Frc consts  --      0.0173                 0.0228                 0.0261
 IR Inten    --      2.0496                 1.3548                 0.6980

                      7                      8                      9
                      A                      A                      A
 Frequencies --    184.8268               201.7706               215.2016
 Red. masses --      1.7124                 1.2809                 1.1415
 Frc consts  --      0.0345                 0.0307                 0.0311
 IR Inten    --      0.2916                 0.5191                 0.1777

                     10                     11                     12
                      A                      A                      A
 Frequencies --    218.4872               226.3969               248.9527
 Red. masses --      1.1531                 1.5804                 1.3231
 Frc consts  --      0.0324                 0.0477                 0.0483
 IR Inten    --      0.9376                 1.0779                 2.4241

                     13                     14                     15
                      A                      A                      A
 Frequencies --    266.0734               271.3742               292.0571
 Red. masses --      1.1290                 1.9202                 1.3854
 Frc consts  --      0.0471                 0.0833                 0.0696
 IR Inten    --      1.3150                 0.8381                 3.1150

                     16                     17                     18
                      A                      A                      A
 Frequencies --    304.3173               329.8037               351.0338
 Red. masses --      2.2059                 2.7735                 2.4066
 Frc consts  --      0.1204                 0.1777                 0.1747
 IR Inten    --      4.3767                 2.8835                 1.3148

                     19                     20                     21
                      A                      A                      A
 Frequencies --    372.0273               379.4568               408.7477
 Red. masses --      2.6623                 2.4118                 2.4176
 Frc consts  --      0.2171                 0.2046                 0.2380
 IR Inten    --      5.5073                 1.4015                 1.9094

                     22                     23                     24
                      A                      A                      A
 Frequencies --    454.6240               503.9363               532.4513
 Red. masses --      2.4208                 3.5029                 3.2035
 Frc consts  --      0.2948                 0.5241                 0.5351
 IR Inten    --      0.7066                 8.1057                 0.1380

                     25                     26                     27
                      A                      A                      A
 Frequencies --    589.2019               694.2732               761.2838
 Red. masses --      3.4187                 5.2931                 7.6804
 Frc consts  --      0.6993                 1.5032                 2.6226
 IR Inten    --      9.8908                 2.2527                 9.2651

                     28                     29                     30
                      A                      A                      A
 Frequencies --    783.5516               909.8053               919.7591
 Red. masses --      3.6160                 2.3089                 2.3671
 Frc consts  --      1.3080                 1.1260                 1.1798
 IR Inten    --      1.1021                 8.5102                 5.8078

                     31                     32                     33
                      A                      A                      A
 Frequencies --    927.0418               953.3956               967.3211
 Red. masses --      1.7093                 3.0535                 1.2051
 Frc consts  --      0.8655                 1.6353                 0.6644
 IR Inten    --      0.4795                 5.8362                 0.2338

                     34                     35                     36
                      A                      A                      A
 Frequencies --   1045.2685              1056.1395              1065.6212
 Red. masses --      1.7839                 1.3961                 1.5135
 Frc consts  --      1.1484                 0.9175                 1.0126
 IR Inten    --     59.4200                 3.1477                18.5693

                     37                     38                     39
                      A                      A                      A
 Frequencies --   1081.0501              1096.9109              1131.7333
 Red. masses --      1.4306                 1.3800                 1.5477
 Frc consts  --      0.9850                 0.9783                 1.1679
 IR Inten    --     11.5172                 3.4040                83.0475

                     40                     41                     42
                      A                      A                      A
 Frequencies --   1135.6644              1149.6639              1182.2011
 Red. masses --      1.4511                 1.3526                 1.3500
 Frc consts  --      1.1027                 1.0533                 1.1116
 IR Inten    --     72.5864                32.7459                 3.4660

                     43                     44                     45
                      A                      A                      A
 Frequencies --   1184.2539              1246.4722              1248.4655
 Red. masses --      1.4161                 2.5044                 2.7357
 Frc consts  --      1.1701                 2.2926                 2.5123
 IR Inten    --     20.8507                79.1216                12.1273

                     46                     47                     48
                      A                      A                      A
 Frequencies --   1256.1495              1268.9030              1284.0501
 Red. masses --      2.8665                 4.4922                 4.9223
 Frc consts  --      2.6649                 4.2616                 4.7817
 IR Inten    --     14.1546                41.0596                18.1330

                     49                     50                     51
                      A                      A                      A
 Frequencies --   1361.3121              1396.7697              1416.9306
 Red. masses --      2.9647                 3.0562                 1.2428
 Frc consts  --      3.2370                 3.5130                 1.4701
 IR Inten    --     14.5643               206.1765                 3.5020

                     52                     53                     54
                      A                      A                      A
 Frequencies --   1419.9572              1448.5273              1460.9711
 Red. masses --      1.2393                 1.2243                 1.1540
 Frc consts  --      1.4722                 1.5135                 1.4512
 IR Inten    --      6.5717                 4.6960                 0.6064

                     55                     56                     57
                      A                      A                      A
 Frequencies --   1466.6274              1483.2306              1494.6351
 Red. masses --      1.1374                 1.1680                 1.1628
 Frc consts  --      1.4414                 1.5140                 1.5305
 IR Inten    --      2.7390                15.0275                13.8229

                     58                     59                     60
                      A                      A                      A
 Frequencies --   1503.5559              1505.1984              1509.5934
 Red. masses --      1.0581                 1.0730                 1.0572
 Frc consts  --      1.4093                 1.4323                 1.4194
 IR Inten    --      3.0698                 5.2893                 4.6203

                     61                     62                     63
                      A                      A                      A
 Frequencies --   1511.9133              1514.8568              1516.3334
 Red. masses --      1.0471                 1.0523                 1.0466
 Frc consts  --      1.4102                 1.4228                 1.4178
 IR Inten    --      0.7644                 7.8876                 0.7354

                     64                     65                     66
                      A                      A                      A
 Frequencies --   1518.9817              1529.4215              1530.7207
 Red. masses --      1.0656                 1.0537                 1.0553
 Frc consts  --      1.4486                 1.4522                 1.4568
 IR Inten    --      8.2244                11.1243                 7.1457

                     67                     68                     69
                      A                      A                      A
 Frequencies --   1532.5345              1542.1437              1545.6557
 Red. masses --      1.0560                 1.0552                 1.0546
 Frc consts  --      1.4612                 1.4785                 1.4845
 IR Inten    --      2.0771                10.0094                11.0841

                     70                     71                     72
                      A                      A                      A
 Frequencies --   1550.5364              1566.2852              1702.2270
 Red. masses --      1.0767                 1.1167                 9.2285
 Frc consts  --      1.5251                 1.6141                15.7549
 IR Inten    --      6.8300                30.5479               472.2024

                     73                     74                     75
                      A                      A                      A
 Frequencies --   2977.6094              2984.0267              2988.7579
 Red. masses --      1.0497                 1.0557                 1.0574
 Frc consts  --      5.4836                 5.5387                 5.5653
 IR Inten    --     39.9141               129.6753               103.7950

                     76                     77                     78
                      A                      A                      A
 Frequencies --   3015.9098              3025.4585              3033.8903
 Red. masses --      1.0490                 1.0905                 1.0906
 Frc consts  --      5.6216                 5.8810                 5.9142
 IR Inten    --     79.7118                63.2757                35.9726

                     79                     80                     81
                      A                      A                      A
 Frequencies --   3041.6426              3047.7779              3055.0940
 Red. masses --      1.0357                 1.0376                 1.0387
 Frc consts  --      5.6457                 5.6786                 5.7119
 IR Inten    --     23.1732                29.1386                36.2090

                     82                     83                     84
                      A                      A                      A
 Frequencies --   3078.3242              3081.7737              3104.8671
 Red. masses --      1.0852                 1.0916                 1.1015
 Frc consts  --      6.0587                 6.1083                 6.2563
 IR Inten    --     27.1038                64.9527                 1.5108

                     85                     86                     87
                      A                      A                      A
 Frequencies --   3110.6888              3116.9822              3126.3847
 Red. masses --      1.1010                 1.1007                 1.1027
 Frc consts  --      6.2769                 6.3006                 6.3502
 IR Inten    --     29.0665                82.1183                15.0779

                     88                     89                     90
                      A                      A                      A
 Frequencies --   3130.3702              3154.6939              3163.3274
 Red. masses --      1.1019                 1.0964                 1.0940
 Frc consts  --      6.3618                 6.4291                 6.4498
 IR Inten    --     49.6194                29.9655                 9.0056

                     91                     92                     93
                      A                      A                      A
 Frequencies --   3167.7269              3168.4222              3170.2610
 Red. masses --      1.0968                 1.0947                 1.0924
 Frc consts  --      6.4843                 6.4748                 6.4687
 IR Inten    --     13.4702                20.0669                 8.4820

 - Thermochemistry -
 -------------------
 Temperature   298.150 Kelvin.  Pressure   1.00000 Atm.
 Atom     1 has atomic number  7 and mass  14.00307

 Molecular mass:   171.17355 amu.
 Principal axes and moments of inertia in atomic units:
                           1         2         3
     Eigenvalues --  1507.515582533.446873285.57226
           X            1.00000   0.00073  -0.00244
           Y           -0.00074   0.99999  -0.00428
           Z            0.00244   0.00428   0.99999
 This molecule is an asymmetric top.
 Rotational symmetry number  1.
 Warning -- assumption of classical behavior for rotation
           may cause significant error
 Rotational temperatures (Kelvin)      0.05745     0.03419     0.02636
 Rotational constants (GHZ):           1.19716     0.71237     0.54929
 Zero-point vibrational energy     789964.8 (Joules/Mol)
                                  188.80612 (Kcal/Mol)
 Warning -- explicit consideration of  25 degrees of freedom as
           vibrations may cause significant error
 Vibrational temperatures:     45.80    96.61   127.99   185.90   192.53
          (Kelvin)            213.25   265.92   290.30   309.63   314.35
                              325.73   358.19   382.82   390.45   420.20
                              437.84   474.51   505.06   535.26   545.95
                              588.10   654.10   725.05   766.08   847.73
                              998.90  1095.32  1127.36  1309.01  1323.33
                             1333.81  1371.72  1391.76  1503.91  1519.55
                             1533.19  1555.39  1578.21  1628.31  1633.97
                             1654.11  1700.92  1703.88  1793.40  1796.26
                             1807.32  1825.67  1847.46  1958.62  2009.64
                             2038.65  2043.00  2084.11  2102.01  2110.15
                             2134.04  2150.45  2163.28  2165.64  2171.97
                             2175.31  2179.54  2181.67  2185.48  2200.50
                             2202.37  2204.98  2218.80  2223.85  2230.88
                             2253.54  2449.13  4284.12  4293.35  4300.16
                             4339.22  4352.96  4365.09  4376.25  4385.07
                             4395.60  4429.02  4433.99  4467.21  4475.59
                             4484.64  4498.17  4503.90  4538.90  4551.32
                             4557.65  4558.65  4561.30

 Zero-point correction=                           0.300882 (Hartree/Particle)
 Thermal correction to Energy=                    0.316644
 Thermal correction to Enthalpy=                  0.317588
 Thermal correction to Gibbs Free Energy=         0.259212
 Sum of electronic and zero-point Energies=           -519.528571
 Sum of electronic and thermal Energies=              -519.512808
 Sum of electronic and thermal Enthalpies=            -519.511864
 Sum of electronic and thermal Free Energies=         -519.570240

                     E (Thermal)             CV                S
                      KCal/Mol        Cal/Mol-Kelvin    Cal/Mol-Kelvin
 Total                  198.697             57.740            122.863
 Electronic               0.000              0.000              0.000
 Translational            0.889              2.981             41.320
 Rotational               0.889              2.981             30.907
 Vibrational            196.920             51.778             50.636
 Vibration     1          0.594              1.983              5.712
 Vibration     2          0.598              1.970              4.235
 Vibration     3          0.602              1.957              3.683
 Vibration     4          0.612              1.924              2.958
 Vibration     5          0.613              1.920              2.890
 Vibration     6          0.618              1.905              2.695
 Vibration     7          0.631              1.861              2.279
 Vibration     8          0.639              1.837              2.117
 Vibration     9          0.645              1.818              1.999
 Vibration    10          0.646              1.813              1.972
 Vibration    11          0.650              1.801              1.907
 Vibration    12          0.662              1.765              1.738
 Vibration    13          0.672              1.735              1.622
 Vibration    14          0.675              1.726              1.587
 Vibration    15          0.687              1.689              1.462
 Vibration    16          0.695              1.666              1.393
 Vibration    17          0.713              1.616              1.261
 Vibration    18          0.728              1.573              1.162
 Vibration    19          0.744              1.530              1.071
 Vibration    20          0.749              1.514              1.041
 Vibration    21          0.773              1.451              0.931
 Vibration    22          0.813              1.351              0.782
 Vibration    23          0.859              1.241              0.648
 Vibration    24          0.887              1.178              0.582
 Vibration    25          0.946              1.055              0.469

 Optimization completed.
    -- Stationary point found.
 Normal termination of Gaussian 16 at Mon Aug 24 14:23:21 2020.
 Gaussian 16:  ES64L-G16RevA.03 25-Dec-2016

 ----------------------------------------------------------------------
 # TD(NStates=10, Root=1) B3LYP/6-31G* scf=qc volume pop=NPA density=cu
 rrent Geom=AllCheck Guess=Read
 ----------------------------------------------------------------------

 Structure from the checkpoint file:  "base_3_conf183.chk"
 -------------------
 Title Card Required
 -------------------
 Charge =  0 Multiplicity = 1

                         Standard orientation:
 ---------------------------------------------------------------------
 Center     Atomic      Atomic             Coordinates (Angstroms)
 Number     Number       Type             X           Y           Z
 ---------------------------------------------------------------------
      1          7           0        0.845133    1.214579    0.137663
      2          6           0        0.568739   -0.158479   -0.029925
      3          7           0       -0.561614   -0.724359   -0.241527
      4          6           0       -1.910612   -0.200707    0.003588
      5          6           0       -2.558759    0.206490   -1.336872
      6          6           0       -2.696502   -1.411142    0.562316
      7          6           0       -2.024071    0.948961    1.028315
      8          7           0        1.707755   -0.975542    0.093680
      9          6           0        1.483835   -2.407782    0.226577
     10          6           0        2.888999   -0.652460   -0.699790
     11          6           0        1.762621    1.690105    1.155376
     12          6           0        0.486092    2.182325   -0.877804
     13          1           0       -2.449579   -0.601206   -2.068267
     14          1           0       -2.101724    1.109190   -1.754792
     15          1           0       -3.628351    0.408068   -1.202300
     16          1           0       -2.632789   -2.254401   -0.132521
     17          1           0       -3.752907   -1.160972    0.719644
     18          1           0       -2.272514   -1.731986    1.520765
     19          1           0       -1.611252    1.891382    0.663260
     20          1           0       -1.508492    0.689197    1.959781
     21          1           0       -3.080619    1.121452    1.267504
     22          1           0        0.676022   -2.587645    0.936470
     23          1           0        2.406183   -2.873698    0.593324
     24          1           0        1.202647   -2.880068   -0.726964
     25          1           0        2.987362    0.427114   -0.817427
     26          1           0        2.840072   -1.104216   -1.705122
     27          1           0        3.790238   -1.030265   -0.202661
     28          1           0        1.991919    0.880093    1.849021
     29          1           0        1.304763    2.517341    1.717722
     30          1           0        2.711433    2.063836    0.733741
     31          1           0       -0.080314    1.693810   -1.671063
     32          1           0        1.388361    2.630998   -1.327554
     33          1           0       -0.121429    3.005377   -0.471954
 ---------------------------------------------------------------------

 SCF Done:  E(RB3LYP) =  -519.829452357     a.u. after    1 cycles

 Excitation energies and oscillator strengths:

 Excited State   1:      Singlet-A      5.4516 eV  227.43 nm  f=0.0042  <S**2>=0.000
      46 -> 49         0.30896
      47 -> 49         0.51871
      48 -> 49         0.36046
 This state for optimization and/or second-order correction.
 Total Energy, E(TD-HF/TD-DFT) =  -519.629110668
 Copying the excited state density for this state as the 1-particle RhoCI density.

 Excited State   2:      Singlet-A      5.9977 eV  206.72 nm  f=0.1131  <S**2>=0.000
      46 -> 49         0.57306
      48 -> 49        -0.39148

 Excited State   3:      Singlet-A      6.2847 eV  197.28 nm  f=0.2789  <S**2>=0.000
      46 -> 49        -0.25425
      47 -> 49         0.45921
      48 -> 49        -0.44138

 Excited State   4:      Singlet-A      6.4984 eV  190.79 nm  f=0.0068  <S**2>=0.000
      47 -> 50         0.10238
      48 -> 50         0.68372

 Excited State   5:      Singlet-A      6.9200 eV  179.17 nm  f=0.0290  <S**2>=0.000
      46 -> 50        -0.24422
      47 -> 50         0.64067
      48 -> 50        -0.12538

 Excited State   6:      Singlet-A      7.0578 eV  175.67 nm  f=0.0037  <S**2>=0.000
      46 -> 50         0.64303
      47 -> 50         0.26137

 Excited State   7:      Singlet-A      7.4161 eV  167.18 nm  f=0.0078  <S**2>=0.000
      48 -> 51         0.68247
      48 -> 53        -0.11768

 Excited State   8:      Singlet-A      7.6922 eV  161.18 nm  f=0.0148  <S**2>=0.000
      48 -> 52         0.68150

 Excited State   9:      Singlet-A      7.8211 eV  158.53 nm  f=0.0223  <S**2>=0.000
      47 -> 51         0.67154

 Excited State  10:      Singlet-A      7.9410 eV  156.13 nm  f=0.0095  <S**2>=0.000
      46 -> 51         0.58557
      46 -> 52         0.13001
      47 -> 52        -0.13667
      47 -> 53         0.10841
      48 -> 51         0.10685
      48 -> 53         0.27313

 The electronic state is 1-A.
 Alpha  occ. eigenvalues --  -14.33742 -14.33696 -14.27855 -10.26424 -10.21164
 Alpha  occ. eigenvalues --  -10.20867 -10.20858 -10.20809 -10.19422 -10.16070
 Alpha  occ. eigenvalues --  -10.15853 -10.15374  -0.96890  -0.89944  -0.86533
 Alpha  occ. eigenvalues --   -0.77042  -0.71591  -0.70449  -0.68210  -0.67181
 Alpha  occ. eigenvalues --   -0.66538  -0.63323  -0.56682  -0.52425  -0.50149
 Alpha  occ. eigenvalues --   -0.47227  -0.46454  -0.45260  -0.44299  -0.43262
 Alpha  occ. eigenvalues --   -0.42363  -0.41918  -0.40387  -0.39514  -0.38972
 Alpha  occ. eigenvalues --   -0.38246  -0.37734  -0.37449  -0.37225  -0.36392
 Alpha  occ. eigenvalues --   -0.35384  -0.34810  -0.32836  -0.31471  -0.29727
 Alpha  occ. eigenvalues --   -0.22026  -0.21458  -0.20160
 Alpha virt. eigenvalues --    0.04029   0.07085   0.10340   0.11255   0.12771
 Alpha virt. eigenvalues --    0.13209   0.13952   0.14387   0.15222   0.15691
 Alpha virt. eigenvalues --    0.16177   0.16815   0.17107   0.17445   0.18034

 Mulliken charges:
               1
     1  N   -0.398675
     2  C    0.525268
     3  N   -0.425534
     4  C    0.189158
     5  C   -0.426080
     6  C   -0.432077
     7  C   -0.441560
     8  N   -0.405462
     9  C   -0.296460
    10  C   -0.293792
    11  C   -0.300358
    12  C   -0.307244
    13  H    0.146017
    14  H    0.136491
    15  H    0.125525
    16  H    0.147218
    17  H    0.129689
    18  H    0.144893
    19  H    0.160005
    20  H    0.156982
    21  H    0.145304
    22  H    0.159784
    23  H    0.140108
    24  H    0.122879
    25  H    0.152092
    26  H    0.113164
    27  H    0.135123
    28  H    0.180828
    29  H    0.134881
    30  H    0.139288
    31  H    0.174941
    32  H    0.129738
    33  H    0.137867
 Sum of Mulliken charges =  -0.00000

 Dipole moment (field-independent basis, Debye):
    X=             -0.0428    Y=              1.1412    Z=              0.3625  Tot=              1.1981
 Quadrupole moment (field-independent basis, Debye-Ang):
   XX=            -74.9262   YY=            -74.9279   ZZ=            -77.9266
   XY=              0.2946   XZ=             -0.3598   YZ=             -0.3641

 Summary of Natural Population Analysis:

                                       Natural Population
                Natural  -----------------------------------------------
    Atom  No    Charge         Core      Valence    Rydberg      Total
 -----------------------------------------------------------------------
      N    1   -0.45652      1.99935     5.44458    0.01258     7.45652
      C    2    0.37822      1.99913     3.58838    0.03428     5.62178
      N    3   -0.33341      1.99898     5.31528    0.01914     7.33341
      C    4    0.09788      1.99908     3.88404    0.01901     5.90212
      C    5   -0.67641      1.99935     4.66659    0.01047     6.67641
      C    6   -0.66529      1.99935     4.65562    0.01032     6.66529
      C    7   -0.66112      1.99931     4.65235    0.00947     6.66112
      N    8   -0.49703      1.99939     5.48377    0.01386     7.49703
      C    9   -0.46742      1.99949     4.45528    0.01265     6.46742
      C   10   -0.46049      1.99946     4.44880    0.01223     6.46049
      C   11   -0.46965      1.99946     4.45744    0.01275     6.46965
      C   12   -0.46580      1.99946     4.45404    0.01230     6.46580
      H   13    0.23745      0.00000     0.76112    0.00143     0.76255
      H   14    0.22196      0.00000     0.77712    0.00092     0.77804
      H   15    0.22115      0.00000     0.77709    0.00177     0.77885
      H   16    0.23511      0.00000     0.76368    0.00121     0.76489
      H   17    0.22188      0.00000     0.77654    0.00158     0.77812
      H   18    0.23363      0.00000     0.76517    0.00120     0.76637
      H   19    0.23573      0.00000     0.76319    0.00107     0.76427
      H   20    0.24186      0.00000     0.75709    0.00105     0.75814
      H   21    0.23710      0.00000     0.76152    0.00137     0.76290
      H   22    0.23466      0.00000     0.76446    0.00088     0.76534
      H   23    0.22152      0.00000     0.77751    0.00097     0.77848
      H   24    0.19239      0.00000     0.80292    0.00469     0.80761
      H   25    0.22286      0.00000     0.77625    0.00090     0.77714
      H   26    0.18700      0.00000     0.80648    0.00651     0.81300
      H   27    0.21401      0.00000     0.78373    0.00226     0.78599
      H   28    0.25078      0.00000     0.74820    0.00102     0.74922
      H   29    0.20937      0.00000     0.78808    0.00255     0.79063
      H   30    0.21063      0.00000     0.78734    0.00203     0.78937
      H   31    0.23568      0.00000     0.76342    0.00090     0.76432
      H   32    0.20605      0.00000     0.79017    0.00378     0.79395
      H   33    0.20622      0.00000     0.79192    0.00186     0.79378
 =======================================================================
   * Total *   -0.00000     23.99182    71.78919    0.21899    96.00000

 Normal termination of Gaussian 16 at Mon Aug 24 14:30:27 2020.
