 Gaussian 16, Revision A.03,

 ---------------------------------
 # opt=CalcAll B3LYP/6-31G* scf=qc
 ---------------------------------

 -------------------
 Title Card Required
 -------------------
 Symbolic Z-matrix:
 Charge =  0 Multiplicity = 1

 SCF Done:  E(RB3LYP) =  -292.405890366     a.u. after    7 cycles
 SCF Done:  E(RB3LYP) =  -292.413386740     a.u. after    9 cycles
 SCF Done:  E(RB3LYP) =  -292.414786125     a.u. after   11 cycles
 SCF Done:  E(RB3LYP) =  -292.415010230     a.u. after    9 cycles
 SCF Done:  E(RB3LYP) =  -292.415024127     a.u. after    5 cycles
 SCF Done:  E(RB3LYP) =  -292.415024200     a.u. after    3 cycles
 SCF Done:  E(RB3LYP) =  -292.415024223     a.u. after    2 cycles
 Optimization completed.
    -- Stationary point found.
 Normal termination of Gaussian 16 at Mon Aug 24 16:46:29 2020.

 ----------------------------------------------------------------------
 # freq B3LYP/6-31G* scf=qc volume NMR pop=NPA density=current Geom=All
 Check Guess=Read
 ----------------------------------------------------------------------

 Structure from the checkpoint file:  "base_4_conf162.chk"
 -------------------
 Title Card Required
 -------------------
 Charge =  0 Multiplicity = 1

 SCF Done:  E(RB3LYP) =  -292.415024223     a.u. after    1 cycles

      1  C    Isotropic =   175.1360   Anisotropy =    21.4821

      2  C    Isotropic =   148.8023   Anisotropy =    38.4531

      3  N    Isotropic =   209.4958   Anisotropy =    51.2981

      4  C    Isotropic =   140.3239   Anisotropy =    50.1024

      5  C    Isotropic =   174.2600   Anisotropy =    22.6578

      6  C    Isotropic =   142.7781   Anisotropy =    45.7162

      7  C    Isotropic =   183.5651   Anisotropy =     9.3530

      8  H    Isotropic =    31.2846   Anisotropy =     9.6547

      9  H    Isotropic =    30.9047   Anisotropy =     6.7897

     10  H    Isotropic =    31.2102   Anisotropy =     8.4080

     11  H    Isotropic =    29.5671   Anisotropy =     6.1818

     12  H    Isotropic =    29.7200   Anisotropy =     5.7258

     13  H    Isotropic =    29.7381   Anisotropy =     6.4254

     14  H    Isotropic =    29.4679   Anisotropy =     6.1111

     15  H    Isotropic =    31.1521   Anisotropy =     8.1397

     16  H    Isotropic =    31.3731   Anisotropy =     9.7881

     17  H    Isotropic =    31.0257   Anisotropy =     6.5898

     18  H    Isotropic =    29.5520   Anisotropy =     7.4599

     19  H    Isotropic =    29.0015   Anisotropy =     6.3251

     20  H    Isotropic =    31.2850   Anisotropy =     7.4134

     21  H    Isotropic =    31.8906   Anisotropy =     9.8891

     22  H    Isotropic =    30.9216   Anisotropy =     6.9673

  Exact polarizability:  78.759  -0.509  74.538   0.992   1.426  63.603
 Approx polarizability:  97.554  -0.965  96.056   1.570   2.953  92.751

                      1                      2                      3
                      A                      A                      A
 Frequencies --     49.0878                83.9362               116.2493
 Red. masses --      2.1818                 1.7930                 1.9795
 Frc consts  --      0.0031                 0.0074                 0.0158
 IR Inten    --      0.0683                 0.2008                 0.2124

                      4                      5                      6
                      A                      A                      A
 Frequencies --    187.2461               222.5740               236.1236
 Red. masses --      1.5328                 1.1241                 1.1526
 Frc consts  --      0.0317                 0.0328                 0.0379
 IR Inten    --      1.3864                 0.0432                 0.0170

                      7                      8                      9
                      A                      A                      A
 Frequencies --    283.7716               305.1219               340.5614
 Red. masses --      2.0334                 1.6582                 2.4757
 Frc consts  --      0.0965                 0.0910                 0.1692
 IR Inten    --      0.1961                 1.1282                 0.6807

                     10                     11                     12
                      A                      A                      A
 Frequencies --    420.0219               477.4360               531.2791
 Red. masses --      2.1484                 2.4630                 2.5681
 Frc consts  --      0.2233                 0.3308                 0.4271
 IR Inten    --      1.9933                 2.2791                 6.3045

                     13                     14                     15
                      A                      A                      A
 Frequencies --    742.3723               789.6068               808.7159
 Red. masses --      2.5634                 1.1458                 1.1512
 Frc consts  --      0.8324                 0.4209                 0.4436
 IR Inten    --      8.3239                 4.0505                 2.4142

                     16                     17                     18
                      A                      A                      A
 Frequencies --    820.5589               915.2299               934.4909
 Red. masses --      1.1452                 2.0605                 1.9385
 Frc consts  --      0.4543                 1.0169                 0.9974
 IR Inten    --      1.7281                 1.4864                 1.1569

                     19                     20                     21
                      A                      A                      A
 Frequencies --   1012.9073              1070.8683              1093.9006
 Red. masses --      2.5855                 2.3142                 2.5744
 Frc consts  --      1.5629                 1.5636                 1.8150
 IR Inten    --      8.3704                 7.2717                32.4316

                     22                     23                     24
                      A                      A                      A
 Frequencies --   1097.9157              1116.9671              1127.6931
 Red. masses --      1.6640                 1.7092                 1.7624
 Frc consts  --      1.1818                 1.2564                 1.3205
 IR Inten    --      1.7435                 7.0041                28.5057

                     25                     26                     27
                      A                      A                      A
 Frequencies --   1168.8002              1246.0705              1254.8056
 Red. masses --      1.7038                 2.0723                 2.3189
 Frc consts  --      1.3713                 1.8958                 2.1512
 IR Inten    --      9.6270                15.4165                24.6880

                     28                     29                     30
                      A                      A                      A
 Frequencies --   1329.9654              1340.1663              1385.1621
 Red. masses --      1.1067                 1.1973                 1.2758
 Frc consts  --      1.1534                 1.2670                 1.4422
 IR Inten    --      1.1219                26.2333                12.4424

                     31                     32                     33
                      A                      A                      A
 Frequencies --   1400.1353              1415.3914              1427.9510
 Red. masses --      1.2718                 1.3083                 1.2325
 Frc consts  --      1.4690                 1.5442                 1.4807
 IR Inten    --     18.7406                11.3537                 0.1101

                     34                     35                     36
                      A                      A                      A
 Frequencies --   1430.8000              1442.0454              1445.6513
 Red. masses --      1.2590                 1.3137                 1.3722
 Frc consts  --      1.5186                 1.6095                 1.6897
 IR Inten    --     14.6289                19.2674                15.7458

                     37                     38                     39
                      A                      A                      A
 Frequencies --   1509.2885              1517.5463              1519.8744
 Red. masses --      1.0618                 1.0508                 1.0524
 Frc consts  --      1.4251                 1.4258                 1.4323
 IR Inten    --      2.7205                 3.8802                 0.9496

                     40                     41                     42
                      A                      A                      A
 Frequencies --   1524.5533              1527.5719              1531.3006
 Red. masses --      1.0511                 1.0434                 1.0471
 Frc consts  --      1.4394                 1.4346                 1.4466
 IR Inten    --      1.4929                 3.0338                 0.8129

                     43                     44                     45
                      A                      A                      A
 Frequencies --   1538.1661              1541.3266              1553.5449
 Red. masses --      1.0545                 1.0810                 1.0858
 Frc consts  --      1.4699                 1.5131                 1.5440
 IR Inten    --      2.2607                 8.2865                 0.8342

                     46                     47                     48
                      A                      A                      A
 Frequencies --   2930.1007              2938.1488              3044.9913
 Red. masses --      1.0743                 1.0734                 1.0626
 Frc consts  --      5.4344                 5.4594                 5.8050
 IR Inten    --     24.1237               123.4322                27.2239

                     49                     50                     51
                      A                      A                      A
 Frequencies --   3049.1715              3051.3270              3053.5664
 Red. masses --      1.0357                 1.0363                 1.0391
 Frc consts  --      5.6736                 5.6850                 5.7086
 IR Inten    --     24.5233                19.7880                21.5208

                     52                     53                     54
                      A                      A                      A
 Frequencies --   3066.7184              3082.9630              3085.0754
 Red. masses --      1.0865                 1.0933                 1.0920
 Frc consts  --      6.0204                 6.1225                 6.1236
 IR Inten    --     22.4033                25.2791                13.1421

                     55                     56                     57
                      A                      A                      A
 Frequencies --   3112.9837              3115.0201              3118.8790
 Red. masses --      1.1011                 1.1010                 1.1002
 Frc consts  --      6.2870                 6.2943                 6.3056
 IR Inten    --     33.1766                22.6440                77.3796

                     58                     59                     60
                      A                      A                      A
 Frequencies --   3122.1645              3128.5635              3129.9288
 Red. masses --      1.1027                 1.1032                 1.1030
 Frc consts  --      6.3331                 6.3619                 6.3663
 IR Inten    --     39.2973                47.0025                36.2253

 - Thermochemistry -
 -------------------
 Temperature   298.150 Kelvin.  Pressure   1.00000 Atm.
 Atom     1 has atomic number  6 and mass  12.00000

 Molecular mass:   101.12045 amu.
 Principal axes and moments of inertia in atomic units:
                           1         2         3
     Eigenvalues --   665.87052 879.929761349.83173
           X            0.99999   0.00362   0.00020
           Y           -0.00362   0.99998  -0.00429
           Z           -0.00021   0.00428   0.99999
 This molecule is an asymmetric top.
 Rotational symmetry number  1.
 Warning -- assumption of classical behavior for rotation
           may cause significant error
 Rotational temperatures (Kelvin)      0.13008     0.09843     0.06417
 Rotational constants (GHZ):           2.71035     2.05101     1.33701
 Zero-point vibrational energy     543489.5 (Joules/Mol)
                                  129.89712 (Kcal/Mol)
 Warning -- explicit consideration of  12 degrees of freedom as
           vibrations may cause significant error
 Vibrational temperatures:     70.63   120.77   167.26   269.41   320.23
          (Kelvin)            339.73   408.28   439.00   489.99   604.32
                              686.92   764.39  1068.11  1136.07  1163.56
                             1180.60  1316.81  1344.52  1457.35  1540.74
                             1573.88  1579.66  1607.07  1622.50  1681.64
                             1792.82  1805.39  1913.52  1928.20  1992.94
                             2014.48  2036.43  2054.50  2058.60  2074.78
                             2079.97  2171.53  2183.41  2186.76  2193.49
                             2197.84  2203.20  2213.08  2217.63  2235.20
                             4215.76  4227.34  4381.06  4387.08  4390.18
                             4393.40  4412.32  4435.70  4438.74  4478.89
                             4481.82  4487.37  4492.10  4501.31  4503.27

 Zero-point correction=                           0.207004 (Hartree/Particle)
 Thermal correction to Energy=                    0.216454
 Thermal correction to Enthalpy=                  0.217399
 Thermal correction to Gibbs Free Energy=         0.172764
 Sum of electronic and zero-point Energies=           -292.208020
 Sum of electronic and thermal Energies=              -292.198570
 Sum of electronic and thermal Enthalpies=            -292.197626
 Sum of electronic and thermal Free Energies=         -292.242260

                     E (Thermal)             CV                S
                      KCal/Mol        Cal/Mol-Kelvin    Cal/Mol-Kelvin
 Total                  135.827             33.661             93.942
 Electronic               0.000              0.000              0.000
 Translational            0.889              2.981             39.751
 Rotational               0.889              2.981             28.160
 Vibrational            134.050             27.699             26.030
 Vibration     1          0.595              1.978              4.854
 Vibration     2          0.601              1.960              3.797
 Vibration     3          0.608              1.936              3.162
 Vibration     4          0.632              1.857              2.255
 Vibration     5          0.648              1.807              1.938
 Vibration     6          0.655              1.785              1.832
 Vibration     7          0.682              1.704              1.511
 Vibration     8          0.696              1.664              1.389
 Vibration     9          0.720              1.594              1.210
 Vibration    10          0.783              1.427              0.892
 Vibration    11          0.834              1.300              0.717
 Vibration    12          0.886              1.181              0.584

 Optimization completed.
    -- Stationary point found.
 Normal termination of Gaussian 16 at Mon Aug 24 16:49:30 2020.
 Gaussian 16:  ES64L-G16RevA.03 25-Dec-2016

 ----------------------------------------------------------------------
 # TD(NStates=10, Root=1) B3LYP/6-31G* scf=qc volume pop=NPA density=cu
 rrent Geom=AllCheck Guess=Read
 ----------------------------------------------------------------------

 Structure from the checkpoint file:  "base_4_conf163.chk"
 -------------------
 Title Card Required
 -------------------
 Charge =  0 Multiplicity = 1

                         Standard orientation:
 ---------------------------------------------------------------------
 Center     Atomic      Atomic             Coordinates (Angstroms)
 Number     Number       Type             X           Y           Z
 ---------------------------------------------------------------------
      1          6           0       -1.221483    2.099138   -0.143904
      2          6           0       -0.255892    1.122866    0.531713
      3          7           0        0.147265    0.007984   -0.328666
      4          6           0        1.327537   -0.698350    0.179804
      5          6           0        2.634562    0.054237   -0.087543
      6          6           0       -0.944678   -0.893265   -0.711347
      7          6           0       -1.621887   -1.697979    0.413576
      8          1           0       -1.377838    2.974897    0.496257
      9          1           0       -2.204428    1.653743   -0.331183
     10          1           0       -0.812895    2.437574   -1.102065
     11          1           0       -0.689343    0.777231    1.490809
     12          1           0        0.653273    1.672897    0.796179
     13          1           0        1.377236   -1.666752   -0.332523
     14          1           0        1.247411   -0.925505    1.260446
     15          1           0        2.748492    0.248230   -1.159053
     16          1           0        3.490880   -0.539078    0.254619
     17          1           0        2.674425    1.016122    0.435072
     18          1           0       -0.538416   -1.591076   -1.454709
     19          1           0       -1.703768   -0.303466   -1.237496
     20          1           0       -0.905284   -2.337682    0.941174
     21          1           0       -2.400882   -2.346119   -0.005281
     22          1           0       -2.098668   -1.046788    1.154618
 ---------------------------------------------------------------------

 SCF Done:  E(RB3LYP) =  -292.415024223     a.u. after    1 cycles

 Excitation energies and oscillator strengths:

 Excited State   1:      Singlet-A      6.6338 eV  186.90 nm  f=0.0158  <S**2>=0.000
      29 -> 30         0.70442
 This state for optimization and/or second-order correction.
 Total Energy, E(TD-HF/TD-DFT) =  -292.171236998
 Copying the excited state density for this state as the 1-particle RhoCI density.

 Excited State   2:      Singlet-A      7.2806 eV  170.29 nm  f=0.0146  <S**2>=0.000
      29 -> 31         0.69936

 Excited State   3:      Singlet-A      7.6210 eV  162.69 nm  f=0.0026  <S**2>=0.000
      29 -> 32         0.68341
      29 -> 33        -0.15836

 Excited State   4:      Singlet-A      7.8990 eV  156.96 nm  f=0.0230  <S**2>=0.000
      29 -> 32         0.16299
      29 -> 33         0.68284

 Excited State   5:      Singlet-A      8.4655 eV  146.46 nm  f=0.0098  <S**2>=0.000
      29 -> 34         0.68239
      29 -> 36         0.14548

 Excited State   6:      Singlet-A      8.5417 eV  145.15 nm  f=0.0302  <S**2>=0.000
      29 -> 35         0.59810
      29 -> 36        -0.35464

 Excited State   7:      Singlet-A      8.6082 eV  144.03 nm  f=0.0276  <S**2>=0.000
      29 -> 34        -0.14520
      29 -> 35         0.35766
      29 -> 36         0.57197

 Excited State   8:      Singlet-A      8.9283 eV  138.87 nm  f=0.0007  <S**2>=0.000
      29 -> 36         0.10615
      29 -> 37         0.66831
      29 -> 38        -0.15523

 Excited State   9:      Singlet-A      9.0621 eV  136.82 nm  f=0.0456  <S**2>=0.000
      29 -> 37         0.14530
      29 -> 38         0.68238

 Excited State  10:      Singlet-A      9.3864 eV  132.09 nm  f=0.0250  <S**2>=0.000
      29 -> 39         0.65512
      29 -> 40        -0.23122

 The electronic state is 1-A.
 Alpha  occ. eigenvalues --  -14.31156 -10.20078 -10.20004 -10.19986 -10.17003
 Alpha  occ. eigenvalues --  -10.16970 -10.16844  -0.90778  -0.75315  -0.74949
 Alpha  occ. eigenvalues --   -0.69921  -0.62911  -0.61327  -0.54657  -0.48009
 Alpha  occ. eigenvalues --   -0.46738  -0.44426  -0.43130  -0.40893  -0.39265
 Alpha  occ. eigenvalues --   -0.38731  -0.36998  -0.36430  -0.35690  -0.34626
 Alpha  occ. eigenvalues --   -0.33711  -0.32752  -0.31909  -0.19847
 Alpha virt. eigenvalues --    0.08284   0.10653   0.11980   0.12923   0.15086
 Alpha virt. eigenvalues --    0.15518   0.15747   0.16379   0.16847   0.18091
 Alpha virt. eigenvalues --    0.18534   0.19455   0.20529   0.21225   0.21830

 Mulliken charges:
               1
     1  C   -0.423028
     2  C   -0.073927
     3  N   -0.194341
     4  C   -0.091166
     5  C   -0.448890
     6  C   -0.096173
     7  C   -0.352598
     8  H    0.124363
     9  H    0.103338
    10  H    0.130551
    11  H    0.124426
    12  H    0.073232
    13  H    0.098451
    14  H    0.143417
    15  H    0.150606
    16  H    0.139795
    17  H    0.144065
    18  H    0.071732
    19  H    0.119638
    20  H    0.089524
    21  H    0.094683
    22  H    0.072300
 Sum of Mulliken charges =  -0.00000

 Dipole moment (field-independent basis, Debye):
    X=              1.4332    Y=              0.4078    Z=             -0.2301  Tot=              1.5077
 Quadrupole moment (field-independent basis, Debye-Ang):
   XX=            -51.6242   YY=            -52.9863   ZZ=            -49.5791
   XY=             -1.0339   XZ=              0.7670   YZ=             -0.2598

 Summary of Natural Population Analysis:

                                       Natural Population
                Natural  -----------------------------------------------
    Atom  No    Charge         Core      Valence    Rydberg      Total
 -----------------------------------------------------------------------
      C    1   -0.70338      1.99945     4.69215    0.01178     6.70338
      C    2   -0.31793      1.99929     4.30077    0.01787     6.31793
      N    3   -0.03195      1.99932     5.02341    0.00923     7.03195
      C    4   -0.31585      1.99931     4.29945    0.01709     6.31585
      C    5   -0.69628      1.99944     4.68572    0.01112     6.69628
      C    6   -0.31560      1.99933     4.29681    0.01947     6.31560
      C    7   -0.68868      1.99940     4.67775    0.01153     6.68868
      H    8    0.21925      0.00000     0.76966    0.01109     0.78075
      H    9    0.19049      0.00000     0.78326    0.02625     0.80951
      H   10    0.22035      0.00000     0.77207    0.00758     0.77965
      H   11    0.21946      0.00000     0.74397    0.03657     0.78054
      H   12    0.17462      0.00000     0.79128    0.03410     0.82538
      H   13    0.19671      0.00000     0.76876    0.03453     0.80329
      H   14    0.23159      0.00000     0.74215    0.02626     0.76841
      H   15    0.23019      0.00000     0.76501    0.00479     0.76981
      H   16    0.22615      0.00000     0.76531    0.00854     0.77385
      H   17    0.21851      0.00000     0.77062    0.01087     0.78149
      H   18    0.17464      0.00000     0.78777    0.03758     0.82536
      H   19    0.21056      0.00000     0.76437    0.02506     0.78944
      H   20    0.18685      0.00000     0.78804    0.02511     0.81315
      H   21    0.19708      0.00000     0.78084    0.02208     0.80292
      H   22    0.17322      0.00000     0.79115    0.03563     0.82678
 =======================================================================
   * Total *   -0.00000     13.99553    43.56034    0.44413    58.00000

 Normal termination of Gaussian 16 at Mon Aug 24 16:54:15 2020.
