 Gaussian 16, Revision A.03,

 ---------------------------------
 # opt=CalcAll B3LYP/6-31G* scf=qc
 ---------------------------------

 -------------------
 Title Card Required
 -------------------
 Symbolic Z-matrix:
 Charge =  0 Multiplicity = 1

 SCF Done:  E(RB3LYP) =  -212.578560583     a.u. after    7 cycles
 SCF Done:  E(RB3LYP) =  -212.581976201     a.u. after    6 cycles
 SCF Done:  E(RB3LYP) =  -212.582017521     a.u. after    4 cycles
 SCF Done:  E(RB3LYP) =  -212.582017867     a.u. after    4 cycles
 Optimization completed.
    -- Stationary point found.

 1\1\GINC-DELLA-R4C3N1\Freq\RB3LYP\6-31G(d)\C4H9N1\BJS4\24-Aug-2020\0\\
 # opt=CalcAll B3LYP/6-31G* scf=qc\\Title Card Required\\0,1\C,-0.77141
 88921,-0.9516177812,-0.1859029683\N,-1.1680632037,0.4057104757,0.22108
 24662\H,-1.243359036,0.4224948468,1.2391098437\C,-0.0153857292,1.23443
 66438,-0.1660280287\C,1.2636754867,0.38894279,0.086888449\C,0.75525059
 97,-1.0811346778,0.0735557919\H,-0.9811436288,-1.0585945074,-1.2584433
 417\H,-1.3709484011,-1.7010431911,0.3402122905\H,-0.026816307,2.185445
 1967,0.3755651513\H,-0.1082084623,1.4655385317,-1.2354890455\H,1.70523

 Normal termination of Gaussian 16 at Mon Aug 24 16:41:58 2020.

 ----------------------------------------------------------------------
 # freq B3LYP/6-31G* scf=qc volume NMR pop=NPA density=current Geom=All
 Check Guess=Read
 ----------------------------------------------------------------------

 Structure from the checkpoint file:  "base_5_conf12.chk"
 -------------------
 Title Card Required
 -------------------
 Charge =  0 Multiplicity = 1

 SCF Done:  E(RB3LYP) =  -212.582017867     a.u. after    1 cycles

      1  C    Isotropic =   140.2613   Anisotropy =    49.3684

      2  N    Isotropic =   201.8964   Anisotropy =    30.0215

      3  H    Isotropic =    31.7672   Anisotropy =    14.0359

      4  C    Isotropic =   140.2614   Anisotropy =    49.3692

      5  C    Isotropic =   162.2027   Anisotropy =    25.0162

      6  C    Isotropic =   162.2023   Anisotropy =    25.0165

      7  H    Isotropic =    29.6207   Anisotropy =     9.8579

      8  H    Isotropic =    29.2725   Anisotropy =     8.5414

      9  H    Isotropic =    29.2725   Anisotropy =     8.5414

     10  H    Isotropic =    29.6206   Anisotropy =     9.8578

     11  H    Isotropic =    30.7627   Anisotropy =     9.7553

     12  H    Isotropic =    30.5210   Anisotropy =     9.6211

     13  H    Isotropic =    30.7628   Anisotropy =     9.7554

     14  H    Isotropic =    30.5210   Anisotropy =     9.6211

  Exact polarizability:  50.043   0.000  45.487  -0.000   1.159  44.625
 Approx polarizability:  64.224   0.000  60.362  -0.000   2.507  64.558

                      1                      2                      3
                      A                      A                      A
 Frequencies --     41.4941               286.7377               624.3442
 Red. masses --      1.5608                 1.7270                 1.8908
 Frc consts  --      0.0016                 0.0837                 0.4342
 IR Inten    --      0.0663                 7.5597                 0.7436

                      4                      5                      6
                      A                      A                      A
 Frequencies --    642.0933               803.2032               855.5634
 Red. masses --      2.4005                 1.3580                 1.6340
 Frc consts  --      0.5831                 0.5162                 0.7047
 IR Inten    --      1.3038                 1.4726                 1.1169

                      7                      8                      9
                      A                      A                      A
 Frequencies --    855.9140               892.1539               921.1203
 Red. masses --      1.7617                 3.2482                 2.4778
 Frc consts  --      0.7604                 1.5233                 1.2387
 IR Inten    --    115.5269                10.5285                 0.1117

                     10                     11                     12
                      A                      A                      A
 Frequencies --    941.9551               993.7522              1051.0311
 Red. masses --      2.6641                 1.5574                 1.6469
 Frc consts  --      1.3927                 0.9061                 1.0719
 IR Inten    --     12.7413                19.6327                 0.3767

                     13                     14                     15
                      A                      A                      A
 Frequencies --   1065.7463              1109.7563              1227.6766
 Red. masses --      1.3382                 5.4152                 1.3264
 Frc consts  --      0.8955                 3.9294                 1.1778
 IR Inten    --      0.9728                22.9839                 6.2851

                     16                     17                     18
                      A                      A                      A
 Frequencies --   1227.6842              1267.4975              1295.4743
 Red. masses --      1.3272                 1.1349                 1.4434
 Frc consts  --      1.1786                 1.0743                 1.4272
 IR Inten    --      0.1358                 2.4985                 0.3466

                     19                     20                     21
                      A                      A                      A
 Frequencies --   1324.3772              1351.8810              1356.4307
 Red. masses --      1.3513                 1.2195                 1.2813
 Frc consts  --      1.3964                 1.3131                 1.3890
 IR Inten    --      0.2653                 1.2040                 0.3552

                     22                     23                     24
                      A                      A                      A
 Frequencies --   1390.7118              1483.4502              1516.8011
 Red. masses --      1.3424                 1.1461                 1.0816
 Frc consts  --      1.5297                 1.4860                 1.4661
 IR Inten    --      6.3815                 5.8289                 0.0677

                     25                     26                     27
                      A                      A                      A
 Frequencies --   1525.6253              1528.6364              1546.6807
 Red. masses --      1.0826                 1.0913                 1.1017
 Frc consts  --      1.4847                 1.5024                 1.5529
 IR Inten    --      0.5933                 2.1491                 0.5247

                     28                     29                     30
                      A                      A                      A
 Frequencies --   3040.8590              3045.4256              3054.8715
 Red. masses --      1.0682                 1.0692                 1.0620
 Frc consts  --      5.8197                 5.8424                 5.8395
 IR Inten    --     38.8873                56.0098                22.6872

                     31                     32                     33
                      A                      A                      A
 Frequencies --   3067.3671              3089.7256              3104.9307
 Red. masses --      1.0636                 1.1009                 1.0974
 Frc consts  --      5.8959                 6.1922                 6.2336
 IR Inten    --     42.4993                21.4861                 3.0004

                     34                     35                     36
                      A                      A                      A
 Frequencies --   3111.4230              3118.3406              3454.9988
 Red. masses --      1.1014                 1.1054                 1.0742
 Frc consts  --      6.2822                 6.3331                 7.5547
 IR Inten    --     31.6062                90.0993                 3.6432

 - Thermochemistry -
 -------------------
 Temperature   298.150 Kelvin.  Pressure   1.00000 Atm.
 Atom     1 has atomic number  6 and mass  12.00000

 Molecular mass:    71.07350 amu.
 Principal axes and moments of inertia in atomic units:
                           1         2         3
     Eigenvalues --   264.35269 271.89811 467.26553
           X           -0.00002   1.00000   0.00000
           Y            1.00000   0.00002   0.00233
           Z           -0.00233  -0.00000   1.00000
 This molecule is an asymmetric top.
 Rotational symmetry number  1.
 Rotational temperatures (Kelvin)      0.32765     0.31855     0.18536
 Rotational constants (GHZ):           6.82702     6.63756     3.86235
 Zero-point vibrational energy     342226.1 (Joules/Mol)
                                   81.79400 (Kcal/Mol)
 Warning -- explicit consideration of   2 degrees of freedom as
           vibrations may cause significant error
 Vibrational temperatures:     59.70   412.55   898.29   923.83  1155.63
          (Kelvin)           1230.96  1231.47  1283.61  1325.29  1355.26
                             1429.79  1512.20  1533.37  1596.69  1766.35
                             1766.36  1823.65  1863.90  1905.48  1945.06
                             1951.60  2000.92  2134.35  2182.34  2195.03
                             2199.37  2225.33  4375.12  4381.69  4395.28
                             4413.26  4445.43  4467.30  4476.64  4486.60
                             4970.97

 Zero-point correction=                           0.130347 (Hartree/Particle)
 Thermal correction to Energy=                    0.135344
 Thermal correction to Enthalpy=                  0.136289
 Thermal correction to Gibbs Free Energy=         0.101747
 Sum of electronic and zero-point Energies=           -212.451671
 Sum of electronic and thermal Energies=              -212.446674
 Sum of electronic and thermal Enthalpies=            -212.445729
 Sum of electronic and thermal Free Energies=         -212.480271

                     E (Thermal)             CV                S
                      KCal/Mol        Cal/Mol-Kelvin    Cal/Mol-Kelvin
 Total                   84.930             17.590             72.699
 Electronic               0.000              0.000              0.000
 Translational            0.889              2.981             38.700
 Rotational               0.889              2.981             25.022
 Vibrational             83.152             11.628              8.978
 Vibration     1          0.594              1.981              5.186
 Vibration     2          0.684              1.698              1.493

 Optimization completed.
    -- Stationary point found.

 1\1\GINC-DELLA-R4C3N1\Freq\RB3LYP\6-31G(d)\C4H9N1\BJS4\24-Aug-2020\0\\
 # freq B3LYP/6-31G* scf=qc volume NMR pop=NPA density=current Geom=All
 Check Guess=Read\\Title Card Required\\0,1\C,-0.7714188921,-0.95161778
 12,-0.1859029683\N,-1.1680632037,0.4057104757,0.2210824662\H,-1.243359
 036,0.4224948468,1.2391098437\C,-0.0153857292,1.2344366438,-0.16602802
 87\C,1.2636754867,0.38894279,0.086888449\C,0.7552505997,-1.0811346778,
 0.0735557919\H,-0.9811436288,-1.0585945074,-1.2584433417\H,-1.37094840
 11,-1.7010431911,0.3402122905\H,-0.026816307,2.1854451967,0.3755651513

 Normal termination of Gaussian 16 at Mon Aug 24 16:43:21 2020.
 Gaussian 16:  ES64L-G16RevA.03 25-Dec-2016

 ----------------------------------------------------------------------
 # TD(NStates=10, Root=1) B3LYP/6-31G* scf=qc volume pop=NPA density=cu
 rrent Geom=AllCheck Guess=Read
 ----------------------------------------------------------------------

 Structure from the checkpoint file:  "base_5_conf13.chk"
 -------------------
 Title Card Required
 -------------------
 Charge =  0 Multiplicity = 1

                         Standard orientation:
 ---------------------------------------------------------------------
 Center     Atomic      Atomic             Coordinates (Angstroms)
 Number     Number       Type             X           Y           Z
 ---------------------------------------------------------------------
      1          6           0       -1.156584   -0.453425    0.193059
      2          7           0        0.000011   -1.273822   -0.200056
      3          1           0        0.000004   -1.355383   -1.217739
      4          6           0        1.156599   -0.453403    0.193042
      5          6           0        0.777773    1.030498   -0.070304
      6          6           0       -0.777798    1.030476   -0.070325
      7          1           0       -1.335434   -0.611494    1.264879
      8          1           0       -2.056251   -0.777660   -0.339240
      9          1           0        2.056258   -0.777608   -0.339288
     10          1           0        1.335482   -0.611488    1.264854
     11          1           0        1.165300    1.361894   -1.040391
     12          1           0        1.197209    1.700898    0.687488
     13          1           0       -1.165305    1.361824   -1.040438
     14          1           0       -1.197278    1.700891    0.687429
 ---------------------------------------------------------------------

 SCF Done:  E(RB3LYP) =  -212.582017867     a.u. after    1 cycles

 Excitation energies and oscillator strengths:

 Excited State   1:      Singlet-A      6.8529 eV  180.92 nm  f=0.0073  <S**2>=0.000
      20 -> 21         0.69985
 This state for optimization and/or second-order correction.
 Total Energy, E(TD-HF/TD-DFT) =  -212.330179890
 Copying the excited state density for this state as the 1-particle RhoCI density.

 Excited State   2:      Singlet-A      7.8296 eV  158.35 nm  f=0.0316  <S**2>=0.000
      20 -> 22         0.70011

 Excited State   3:      Singlet-A      8.6103 eV  144.00 nm  f=0.0172  <S**2>=0.000
      20 -> 23         0.68213
      20 -> 25        -0.15031

 Excited State   4:      Singlet-A      8.9159 eV  139.06 nm  f=0.0090  <S**2>=0.000
      20 -> 24         0.70275

 Excited State   5:      Singlet-A      9.2531 eV  133.99 nm  f=0.0356  <S**2>=0.000
      20 -> 23         0.14298
      20 -> 25         0.68273

 Excited State   6:      Singlet-A      9.4877 eV  130.68 nm  f=0.0002  <S**2>=0.000
      19 -> 21         0.12328
      20 -> 26         0.66698
      20 -> 27        -0.14839
      20 -> 29        -0.10746

 Excited State   7:      Singlet-A      9.5727 eV  129.52 nm  f=0.0021  <S**2>=0.000
      19 -> 21         0.68519
      20 -> 26        -0.14080

 Excited State   8:      Singlet-A      9.7447 eV  127.23 nm  f=0.0185  <S**2>=0.000
      20 -> 28         0.69118

 Excited State   9:      Singlet-A      9.7694 eV  126.91 nm  f=0.0258  <S**2>=0.000
      20 -> 26         0.14753
      20 -> 27         0.67069

 Excited State  10:      Singlet-A     10.0093 eV  123.87 nm  f=0.0560  <S**2>=0.000
      18 -> 21         0.69643

 The electronic state is 1-A.
 Alpha  occ. eigenvalues --  -14.31031 -10.19908 -10.19907 -10.17730 -10.17712
 Alpha  occ. eigenvalues --   -0.90709  -0.74766  -0.71139  -0.59481  -0.57031
 Alpha  occ. eigenvalues --   -0.49751  -0.45974  -0.42295  -0.42139  -0.36481
 Alpha  occ. eigenvalues --   -0.34683  -0.33599  -0.33531  -0.31712  -0.22167
 Alpha virt. eigenvalues --    0.07397   0.10406   0.13703   0.14468   0.15641
 Alpha virt. eigenvalues --    0.17072   0.18033   0.18109   0.19598   0.20921
 Alpha virt. eigenvalues --    0.24553   0.25232   0.30310   0.32511   0.52231

 Mulliken charges:
               1
     1  C   -0.146961
     2  N   -0.171146
     3  H    0.038563
     4  C   -0.146962
     5  C   -0.235641
     6  C   -0.235638
     7  H    0.160613
     8  H    0.068799
     9  H    0.068796
    10  H    0.160614
    11  H    0.078492
    12  H    0.140991
    13  H    0.078489
    14  H    0.140991
 Sum of Mulliken charges =  -0.00000

 Dipole moment (field-independent basis, Debye):
    X=             -0.0000    Y=             -0.1681    Z=              2.0628  Tot=              2.0697
 Quadrupole moment (field-independent basis, Debye-Ang):
   XX=            -35.3083   YY=            -34.1436   ZZ=            -36.0458
   XY=             -0.0001   XZ=              0.0000   YZ=             -0.5659

 Summary of Natural Population Analysis:

                                       Natural Population
                Natural  -----------------------------------------------
    Atom  No    Charge         Core      Valence    Rydberg      Total
 -----------------------------------------------------------------------
      C    1   -0.33348      1.99936     4.31547    0.01866     6.33348
      N    2   -0.19514      1.99927     5.17765    0.01822     7.19514
      H    3    0.15889      0.00000     0.73297    0.10814     0.84111
      C    4   -0.33348      1.99936     4.31547    0.01866     6.33348
      C    5   -0.45940      1.99932     4.44784    0.01224     6.45940
      C    6   -0.45940      1.99932     4.44784    0.01224     6.45940
      H    7    0.24514      0.00000     0.74680    0.00806     0.75486
      H    8    0.16125      0.00000     0.79933    0.03942     0.83875
      H    9    0.16124      0.00000     0.79933    0.03942     0.83876
      H   10    0.24515      0.00000     0.74680    0.00805     0.75485
      H   11    0.16800      0.00000     0.79425    0.03774     0.83200
      H   12    0.23657      0.00000     0.75724    0.00618     0.76343
      H   13    0.16800      0.00000     0.79425    0.03774     0.83200
      H   14    0.23657      0.00000     0.75724    0.00618     0.76343
 =======================================================================
   * Total *   -0.00008      9.99663    29.63249    0.37095    40.00008

 Normal termination of Gaussian 16 at Mon Aug 24 16:45:38 2020.
