 Gaussian 16, Revision A.03,

 ---------------------------------
 # opt=CalcAll B3LYP/6-31G* scf=qc
 ---------------------------------

 -------------------
 Title Card Required
 -------------------
 Symbolic Z-matrix:
 Charge =  0 Multiplicity = 1

 SCF Done:  E(RB3LYP) =  -292.382360083     a.u. after    7 cycles
 SCF Done:  E(RB3LYP) =  -292.391781562     a.u. after   13 cycles
 SCF Done:  E(RB3LYP) =  -292.409546898     a.u. after   13 cycles
 SCF Done:  E(RB3LYP) =  -292.409856167     a.u. after   13 cycles
 SCF Done:  E(RB3LYP) =  -292.412320777     a.u. after   11 cycles
 SCF Done:  E(RB3LYP) =  -292.412640680     a.u. after   11 cycles
 SCF Done:  E(RB3LYP) =  -292.412690339     a.u. after    5 cycles
 SCF Done:  E(RB3LYP) =  -292.412692981     a.u. after    3 cycles
 SCF Done:  E(RB3LYP) =  -292.412693504     a.u. after    3 cycles
 SCF Done:  E(RB3LYP) =  -292.412693544     a.u. after    2 cycles
 Optimization completed.
    -- Stationary point found.
 Normal termination of Gaussian 16 at Mon Aug 24 16:50:10 2020.

 ----------------------------------------------------------------------
 # freq B3LYP/6-31G* scf=qc volume NMR pop=NPA density=current Geom=All
 Check Guess=Read
 ----------------------------------------------------------------------

 Structure from the checkpoint file:  "base_4_conf132.chk"
 -------------------
 Title Card Required
 -------------------
 Charge =  0 Multiplicity = 1

 SCF Done:  E(RB3LYP) =  -292.412693544     a.u. after    1 cycles

      1  C    Isotropic =   176.5201   Anisotropy =    16.4613

      2  C    Isotropic =   144.3142   Anisotropy =    45.0067

      3  N    Isotropic =   217.8230   Anisotropy =    45.7573

      4  C    Isotropic =   147.4482   Anisotropy =    40.2633

      5  C    Isotropic =   175.2008   Anisotropy =    21.0208

      6  C    Isotropic =   135.4603   Anisotropy =    56.9232

      7  C    Isotropic =   174.7654   Anisotropy =    17.5869

      8  H    Isotropic =    31.5971   Anisotropy =     9.7747

      9  H    Isotropic =    30.6138   Anisotropy =     5.7439

     10  H    Isotropic =    31.2917   Anisotropy =     7.1115

     11  H    Isotropic =    28.9042   Anisotropy =     6.8747

     12  H    Isotropic =    29.5454   Anisotropy =     6.8006

     13  H    Isotropic =    29.8852   Anisotropy =     6.4864

     14  H    Isotropic =    28.8511   Anisotropy =     5.6085

     15  H    Isotropic =    31.2197   Anisotropy =     8.5540

     16  H    Isotropic =    31.2888   Anisotropy =     9.5834

     17  H    Isotropic =    30.8871   Anisotropy =     6.4126

     18  H    Isotropic =    29.1846   Anisotropy =     7.5715

     19  H    Isotropic =    29.2601   Anisotropy =     7.0673

     20  H    Isotropic =    30.7733   Anisotropy =     5.6979

     21  H    Isotropic =    31.6014   Anisotropy =     9.7598

     22  H    Isotropic =    31.1776   Anisotropy =     6.3284

  Exact polarizability:  78.227  -1.329  74.020   1.665   1.443  63.773
 Approx polarizability:  97.068  -1.718  97.929   3.113   2.474  91.075

                      1                      2                      3
                      A                      A                      A
 Frequencies --     58.7776                88.5685               117.7062
 Red. masses --      1.9106                 2.1037                 1.8668
 Frc consts  --      0.0039                 0.0097                 0.0152
 IR Inten    --      0.0274                 0.1780                 0.2633

                      4                      5                      6
                      A                      A                      A
 Frequencies --    175.1923               222.0244               244.4507
 Red. masses --      2.0614                 1.1210                 1.1730
 Frc consts  --      0.0373                 0.0326                 0.0413
 IR Inten    --      2.4990                 0.1954                 0.2092

                      7                      8                      9
                      A                      A                      A
 Frequencies --    281.2140               290.7591               346.8171
 Red. masses --      1.3573                 2.0967                 2.5192
 Frc consts  --      0.0632                 0.1044                 0.1785
 IR Inten    --      0.5305                 0.3682                 0.4751

                     10                     11                     12
                      A                      A                      A
 Frequencies --    433.2022               466.6973               536.4383
 Red. masses --      2.0184                 2.3759                 2.5963
 Frc consts  --      0.2232                 0.3049                 0.4402
 IR Inten    --      1.0767                 2.9931                10.6243

                     13                     14                     15
                      A                      A                      A
 Frequencies --    728.3135               782.0166               795.7588
 Red. masses --      2.6126                 1.1299                 1.1676
 Frc consts  --      0.8165                 0.4071                 0.4356
 IR Inten    --      2.5123                 1.6187                 6.2435

                     16                     17                     18
                      A                      A                      A
 Frequencies --    817.9485               905.1872               923.8852
 Red. masses --      1.1384                 2.1315                 1.9854
 Frc consts  --      0.4487                 1.0290                 0.9985
 IR Inten    --      2.4782                 0.4324                 1.9580

                     19                     20                     21
                      A                      A                      A
 Frequencies --   1003.5574              1065.4353              1084.5298
 Red. masses --      2.6852                 2.2604                 2.1921
 Frc consts  --      1.5933                 1.5118                 1.5192
 IR Inten    --     10.3348                 4.7101                14.8437

                     22                     23                     24
                      A                      A                      A
 Frequencies --   1102.4113              1121.9037              1129.9756
 Red. masses --      1.6782                 1.7371                 1.8004
 Frc consts  --      1.2017                 1.2882                 1.3545
 IR Inten    --      2.0852                26.6095                36.1042

                     25                     26                     27
                      A                      A                      A
 Frequencies --   1159.0667              1256.7284              1261.3292
 Red. masses --      1.6937                 2.0075                 2.2454
 Frc consts  --      1.3406                 1.8680                 2.1047
 IR Inten    --     11.6594                22.3146                27.6892

                     28                     29                     30
                      A                      A                      A
 Frequencies --   1325.7717              1375.0138              1401.6917
 Red. masses --      1.1082                 1.3041                 1.2775
 Frc consts  --      1.1476                 1.4527                 1.4788
 IR Inten    --      1.9824                24.0085                12.2506

                     31                     32                     33
                      A                      A                      A
 Frequencies --   1403.4568              1411.8738              1428.9903
 Red. masses --      1.2462                 1.3107                 1.2403
 Frc consts  --      1.4463                 1.5393                 1.4922
 IR Inten    --     16.3983                18.3765                16.6324

                     34                     35                     36
                      A                      A                      A
 Frequencies --   1429.4064              1436.3925              1445.8848
 Red. masses --      1.2484                 1.2440                 1.3894
 Frc consts  --      1.5029                 1.5123                 1.7114
 IR Inten    --      3.9261                15.8161                18.3650

                     37                     38                     39
                      A                      A                      A
 Frequencies --   1500.7099              1511.6668              1514.8266
 Red. masses --      1.0677                 1.0659                 1.0461
 Frc consts  --      1.4168                 1.4352                 1.4144
 IR Inten    --      1.6026                 5.3959                 1.4014

                     40                     41                     42
                      A                      A                      A
 Frequencies --   1525.1564              1526.2256              1531.2674
 Red. masses --      1.0475                 1.0528                 1.0495
 Frc consts  --      1.4356                 1.4449                 1.4499
 IR Inten    --      3.8554                 3.5250                 1.6699

                     43                     44                     45
                      A                      A                      A
 Frequencies --   1534.9204              1537.9083              1552.7913
 Red. masses --      1.0499                 1.0626                 1.0893
 Frc consts  --      1.4574                 1.4807                 1.5475
 IR Inten    --      3.3816                 3.4060                 1.1907

                     46                     47                     48
                      A                      A                      A
 Frequencies --   2938.3133              3018.3632              3033.2546
 Red. masses --      1.0737                 1.0630                 1.0629
 Frc consts  --      5.4615                 5.7060                 5.7618
 IR Inten    --     70.9795                45.6303                42.5904

                     49                     50                     51
                      A                      A                      A
 Frequencies --   3046.8181              3050.4391              3052.1768
 Red. masses --      1.0365                 1.0382                 1.0624
 Frc consts  --      5.6691                 5.6917                 5.8310
 IR Inten    --     20.9926                27.4283                26.8013

                     52                     53                     54
                      A                      A                      A
 Frequencies --   3053.5205              3060.8372              3071.8140
 Red. masses --      1.0597                 1.1002                 1.1005
 Frc consts  --      5.8217                 6.0727                 6.1185
 IR Inten    --     15.2891                22.5696                32.3488

                     55                     56                     57
                      A                      A                      A
 Frequencies --   3108.5138              3110.8223              3117.4791
 Red. masses --      1.1007                 1.0999                 1.1014
 Frc consts  --      6.2664                 6.2711                 6.3070
 IR Inten    --     42.9563                64.6903                31.1362

                     58                     59                     60
                      A                      A                      A
 Frequencies --   3124.6452              3126.6819              3137.1133
 Red. masses --      1.1030                 1.1034                 1.1005
 Frc consts  --      6.3449                 6.3555                 6.3812
 IR Inten    --     42.4151                39.5247                42.4231

 - Thermochemistry -
 -------------------
 Temperature   298.150 Kelvin.  Pressure   1.00000 Atm.
 Atom     1 has atomic number  6 and mass  12.00000

 Molecular mass:   101.12045 amu.
 Principal axes and moments of inertia in atomic units:
                           1         2         3
     Eigenvalues --   625.75249 903.415751232.97091
           X            0.99999  -0.00141  -0.00301
           Y            0.00141   1.00000   0.00151
           Z            0.00301  -0.00152   0.99999
 This molecule is an asymmetric top.
 Rotational symmetry number  1.
 Warning -- assumption of classical behavior for rotation
           may cause significant error
 Rotational temperatures (Kelvin)      0.13842     0.09587     0.07025
 Rotational constants (GHZ):           2.88411     1.99769     1.46373
 Zero-point vibrational energy     543371.6 (Joules/Mol)
                                  129.86894 (Kcal/Mol)
 Warning -- explicit consideration of  12 degrees of freedom as
           vibrations may cause significant error
 Vibrational temperatures:     84.57   127.43   169.35   252.06   319.44
          (Kelvin)            351.71   404.60   418.34   498.99   623.28
                              671.47   771.82  1047.88  1125.15  1144.92
                             1176.85  1302.36  1329.26  1443.90  1532.92
                             1560.40  1586.12  1614.17  1625.78  1667.64
                             1808.15  1814.77  1907.49  1978.34  2016.72
                             2019.26  2031.37  2056.00  2056.60  2066.65
                             2080.31  2159.19  2174.95  2179.50  2194.36
                             2195.90  2203.15  2208.41  2212.71  2234.12
                             4227.58  4342.75  4364.18  4383.69  4388.90
                             4391.40  4393.33  4403.86  4419.66  4472.46
                             4475.78  4485.36  4495.67  4498.60  4513.61

 Zero-point correction=                           0.206959 (Hartree/Particle)
 Thermal correction to Energy=                    0.216410
 Thermal correction to Enthalpy=                  0.217354
 Thermal correction to Gibbs Free Energy=         0.172936
 Sum of electronic and zero-point Energies=           -292.205734
 Sum of electronic and thermal Energies=              -292.196284
 Sum of electronic and thermal Enthalpies=            -292.195339
 Sum of electronic and thermal Free Energies=         -292.239758

                     E (Thermal)             CV                S
                      KCal/Mol        Cal/Mol-Kelvin    Cal/Mol-Kelvin
 Total                  135.799             33.750             93.486
 Electronic               0.000              0.000              0.000
 Translational            0.889              2.981             39.751
 Rotational               0.889              2.981             28.035
 Vibrational            134.022             27.789             25.700
 Vibration     1          0.596              1.974              4.498
 Vibration     2          0.601              1.957              3.691
 Vibration     3          0.608              1.935              3.138
 Vibration     4          0.627              1.873              2.379
 Vibration     5          0.648              1.808              1.943
 Vibration     6          0.660              1.772              1.770
 Vibration     7          0.681              1.708              1.526
 Vibration     8          0.687              1.691              1.470
 Vibration     9          0.725              1.582              1.181
 Vibration    10          0.794              1.398              0.848
 Vibration    11          0.824              1.324              0.747
 Vibration    12          0.891              1.169              0.573

 Optimization completed.
    -- Stationary point found.
 Normal termination of Gaussian 16 at Mon Aug 24 16:52:50 2020.
 Gaussian 16:  ES64L-G16RevA.03 25-Dec-2016

 ----------------------------------------------------------------------
 # TD(NStates=10, Root=1) B3LYP/6-31G* scf=qc volume pop=NPA density=cu
 rrent Geom=AllCheck Guess=Read
 ----------------------------------------------------------------------

 Structure from the checkpoint file:  "base_4_conf133.chk"
 -------------------
 Title Card Required
 -------------------
 Charge =  0 Multiplicity = 1

                         Standard orientation:
 ---------------------------------------------------------------------
 Center     Atomic      Atomic             Coordinates (Angstroms)
 Number     Number       Type             X           Y           Z
 ---------------------------------------------------------------------
      1          6           0       -0.057613    2.074756   -0.510278
      2          6           0       -0.234786    1.169337    0.724836
      3          7           0       -0.042161   -0.270150    0.564122
      4          6           0       -0.878029   -0.933270   -0.430673
      5          6           0       -2.376399   -0.810766   -0.138000
      6          6           0        1.327153   -0.768870    0.642556
      7          6           0        2.249176   -0.589655   -0.580134
      8          1           0       -0.284650    3.114093   -0.242451
      9          1           0       -0.737478    1.790041   -1.321446
     10          1           0        0.962787    2.046166   -0.904408
     11          1           0       -1.245222    1.333947    1.122414
     12          1           0        0.453187    1.498265    1.513644
     13          1           0       -0.606061   -1.996714   -0.414801
     14          1           0       -0.686020   -0.587058   -1.464101
     15          1           0       -2.597631   -1.153064    0.878669
     16          1           0       -2.948360   -1.423071   -0.844499
     17          1           0       -2.734378    0.220003   -0.235405
     18          1           0        1.265419   -1.843482    0.867528
     19          1           0        1.797950   -0.300317    1.516783
     20          1           0        1.806041   -1.021714   -1.484623
     21          1           0        3.204931   -1.099104   -0.404257
     22          1           0        2.467599    0.463872   -0.781742
 ---------------------------------------------------------------------

 SCF Done:  E(RB3LYP) =  -292.412693544     a.u. after    1 cycles

 Excitation energies and oscillator strengths:

 Excited State   1:      Singlet-A      6.3206 eV  196.16 nm  f=0.0122  <S**2>=0.000
      29 -> 30         0.70416
 This state for optimization and/or second-order correction.
 Total Energy, E(TD-HF/TD-DFT) =  -292.180415155
 Copying the excited state density for this state as the 1-particle RhoCI density.

 Excited State   2:      Singlet-A      7.2062 eV  172.05 nm  f=0.0057  <S**2>=0.000
      29 -> 31         0.65337
      29 -> 32         0.21832
      29 -> 33         0.13677

 Excited State   3:      Singlet-A      7.4266 eV  166.95 nm  f=0.0051  <S**2>=0.000
      29 -> 31        -0.21612
      29 -> 32         0.66614

 Excited State   4:      Singlet-A      7.4996 eV  165.32 nm  f=0.0182  <S**2>=0.000
      29 -> 31        -0.14376
      29 -> 33         0.68827

 Excited State   5:      Singlet-A      8.0749 eV  153.54 nm  f=0.0206  <S**2>=0.000
      29 -> 34         0.67543
      29 -> 36         0.16751

 Excited State   6:      Singlet-A      8.2531 eV  150.23 nm  f=0.0055  <S**2>=0.000
      29 -> 35         0.65518
      29 -> 36        -0.22193

 Excited State   7:      Singlet-A      8.4777 eV  146.25 nm  f=0.0121  <S**2>=0.000
      29 -> 34        -0.18172
      29 -> 35         0.21147
      29 -> 36         0.62613
      29 -> 39         0.10115

 Excited State   8:      Singlet-A      8.6422 eV  143.46 nm  f=0.0103  <S**2>=0.000
      29 -> 37         0.69453

 Excited State   9:      Singlet-A      8.8985 eV  139.33 nm  f=0.0685  <S**2>=0.000
      29 -> 38         0.69196

 Excited State  10:      Singlet-A      9.0186 eV  137.48 nm  f=0.0317  <S**2>=0.000
      29 -> 36        -0.10374
      29 -> 39         0.69414

 The electronic state is 1-A.
 Alpha  occ. eigenvalues --  -14.30963 -10.20151 -10.20089 -10.20083 -10.16956
 Alpha  occ. eigenvalues --  -10.16870 -10.16838  -0.90612  -0.75241  -0.74827
 Alpha  occ. eigenvalues --   -0.70150  -0.62986  -0.61590  -0.54627  -0.48097
 Alpha  occ. eigenvalues --   -0.46876  -0.44318  -0.41159  -0.41053  -0.40382
 Alpha  occ. eigenvalues --   -0.38530  -0.37753  -0.36706  -0.35835  -0.34552
 Alpha  occ. eigenvalues --   -0.33423  -0.32890  -0.32044  -0.19109
 Alpha virt. eigenvalues --    0.07830   0.11160   0.12018   0.12274   0.14450
 Alpha virt. eigenvalues --    0.15227   0.15774   0.16226   0.17042   0.17569
 Alpha virt. eigenvalues --    0.19070   0.20343   0.20633   0.21488   0.22328

 Mulliken charges:
               1
     1  C   -0.375392
     2  C   -0.093700
     3  N   -0.201731
     4  C   -0.056908
     5  C   -0.412268
     6  C   -0.114706
     7  C   -0.405040
     8  H    0.112741
     9  H    0.081425
    10  H    0.101413
    11  H    0.124120
    12  H    0.094066
    13  H    0.062622
    14  H    0.104810
    15  H    0.120759
    16  H    0.115976
    17  H    0.103724
    18  H    0.111204
    19  H    0.138848
    20  H    0.129895
    21  H    0.130442
    22  H    0.127702
 Sum of Mulliken charges =  -0.00000

 Dipole moment (field-independent basis, Debye):
    X=              0.7490    Y=             -0.5366    Z=              1.1380  Tot=              1.4642
 Quadrupole moment (field-independent basis, Debye-Ang):
   XX=            -51.3788   YY=            -52.2456   ZZ=            -49.6606
   XY=             -0.8783   XZ=              0.0427   YZ=              0.5693

 Summary of Natural Population Analysis:

                                       Natural Population
                Natural  -----------------------------------------------
    Atom  No    Charge         Core      Valence    Rydberg      Total
 -----------------------------------------------------------------------
      C    1   -0.69278      1.99940     4.68133    0.01206     6.69278
      C    2   -0.31288      1.99932     4.29496    0.01860     6.31288
      N    3   -0.03814      1.99937     5.02939    0.00939     7.03814
      C    4   -0.31672      1.99930     4.30002    0.01740     6.31672
      C    5   -0.69954      1.99944     4.68878    0.01132     6.69954
      C    6   -0.30884      1.99933     4.29113    0.01838     6.30884
      C    7   -0.68505      1.99940     4.67557    0.01009     6.68505
      H    8    0.21254      0.00000     0.77254    0.01492     0.78746
      H    9    0.17757      0.00000     0.78964    0.03280     0.82243
      H   10    0.18786      0.00000     0.78821    0.02393     0.81214
      H   11    0.21869      0.00000     0.75659    0.02472     0.78131
      H   12    0.19559      0.00000     0.77664    0.02776     0.80441
      H   13    0.17218      0.00000     0.78832    0.03950     0.82782
      H   14    0.20065      0.00000     0.75859    0.04076     0.79935
      H   15    0.21392      0.00000     0.77530    0.01078     0.78608
      H   16    0.21299      0.00000     0.77311    0.01390     0.78701
      H   17    0.19175      0.00000     0.78276    0.02549     0.80825
      H   18    0.20429      0.00000     0.76692    0.02879     0.79571
      H   19    0.22755      0.00000     0.75665    0.01580     0.77245
      H   20    0.21266      0.00000     0.77163    0.01571     0.78734
      H   21    0.22132      0.00000     0.76744    0.01123     0.77868
      H   22    0.20440      0.00000     0.77457    0.02103     0.79560
 =======================================================================
   * Total *   -0.00000     13.99557    43.56007    0.44436    58.00000

 Normal termination of Gaussian 16 at Mon Aug 24 16:56:30 2020.
