 Gaussian 16, Revision A.03,

 ---------------------------------
 # opt=CalcAll B3LYP/6-31G* scf=qc
 ---------------------------------

 -------------------
 Title Card Required
 -------------------
 Symbolic Z-matrix:
 Charge =  0 Multiplicity = 1

 SCF Done:  E(RB3LYP) =  -292.361168124     a.u. after    7 cycles
 SCF Done:  E(RB3LYP) =  -292.384625518     a.u. after   13 cycles
 SCF Done:  E(RB3LYP) =  -292.394019368     a.u. after   13 cycles
 SCF Done:  E(RB3LYP) =  -292.407666040     a.u. after   13 cycles
 SCF Done:  E(RB3LYP) =  -292.411474673     a.u. after   11 cycles
 SCF Done:  E(RB3LYP) =  -292.413090998     a.u. after   11 cycles
 SCF Done:  E(RB3LYP) =  -292.413433740     a.u. after    9 cycles
 SCF Done:  E(RB3LYP) =  -292.413550942     a.u. after    7 cycles
 SCF Done:  E(RB3LYP) =  -292.413627750     a.u. after    7 cycles
 SCF Done:  E(RB3LYP) =  -292.413728483     a.u. after    9 cycles
 SCF Done:  E(RB3LYP) =  -292.414258604     a.u. after   13 cycles
 SCF Done:  E(RB3LYP) =  -292.414822925     a.u. after    9 cycles
 SCF Done:  E(RB3LYP) =  -292.414951121     a.u. after   11 cycles
 SCF Done:  E(RB3LYP) =  -292.415021911     a.u. after    5 cycles
 SCF Done:  E(RB3LYP) =  -292.415023958     a.u. after    4 cycles
 SCF Done:  E(RB3LYP) =  -292.415024274     a.u. after    3 cycles
 SCF Done:  E(RB3LYP) =  -292.415024234     a.u. after    2 cycles
 Optimization completed.
    -- Stationary point found.
 Normal termination of Gaussian 16 at Mon Aug 24 17:42:34 2020.

 ----------------------------------------------------------------------
 # freq B3LYP/6-31G* scf=qc volume NMR pop=NPA density=current Geom=All
 Check Guess=Read
 ----------------------------------------------------------------------

 Structure from the checkpoint file:  "base_4_conf62.chk"
 -------------------
 Title Card Required
 -------------------
 Charge =  0 Multiplicity = 1

 SCF Done:  E(RB3LYP) =  -292.415024234     a.u. after    1 cycles

      1  C    Isotropic =   183.5646   Anisotropy =     9.3509

      2  C    Isotropic =   142.7769   Anisotropy =    45.7180

      3  N    Isotropic =   209.4943   Anisotropy =    51.3031

      4  C    Isotropic =   148.8002   Anisotropy =    38.4552

      5  C    Isotropic =   175.1364   Anisotropy =    21.4803

      6  C    Isotropic =   140.3217   Anisotropy =    50.1065

      7  C    Isotropic =   174.2605   Anisotropy =    22.6570

      8  H    Isotropic =    31.8906   Anisotropy =     9.8891

      9  H    Isotropic =    30.9217   Anisotropy =     6.9670

     10  H    Isotropic =    31.2850   Anisotropy =     7.4132

     11  H    Isotropic =    29.0015   Anisotropy =     6.3250

     12  H    Isotropic =    29.5520   Anisotropy =     7.4597

     13  H    Isotropic =    29.7199   Anisotropy =     5.7262

     14  H    Isotropic =    29.5673   Anisotropy =     6.1815

     15  H    Isotropic =    31.2101   Anisotropy =     8.4081

     16  H    Isotropic =    31.2845   Anisotropy =     9.6546

     17  H    Isotropic =    30.9048   Anisotropy =     6.7897

     18  H    Isotropic =    29.7380   Anisotropy =     6.4251

     19  H    Isotropic =    29.4680   Anisotropy =     6.1106

     20  H    Isotropic =    31.1521   Anisotropy =     8.1398

     21  H    Isotropic =    31.3732   Anisotropy =     9.7881

     22  H    Isotropic =    31.0257   Anisotropy =     6.5900

  Exact polarizability:  78.760  -0.508  74.537  -0.992  -1.426  63.603
 Approx polarizability:  97.553  -0.965  96.055  -1.570  -2.953  92.751

                      1                      2                      3
                      A                      A                      A
 Frequencies --     49.1445                83.9347               116.2522
 Red. masses --      2.1818                 1.7932                 1.9794
 Frc consts  --      0.0031                 0.0074                 0.0158
 IR Inten    --      0.0683                 0.2008                 0.2124

                      4                      5                      6
                      A                      A                      A
 Frequencies --    187.2480               222.5717               236.1258
 Red. masses --      1.5328                 1.1242                 1.1526
 Frc consts  --      0.0317                 0.0328                 0.0379
 IR Inten    --      1.3863                 0.0432                 0.0170

                      7                      8                      9
                      A                      A                      A
 Frequencies --    283.7439               305.1361               340.5608
 Red. masses --      2.0332                 1.6582                 2.4757
 Frc consts  --      0.0964                 0.0910                 0.1692
 IR Inten    --      0.1963                 1.1279                 0.6810

                     10                     11                     12
                      A                      A                      A
 Frequencies --    420.0317               477.4437               531.2854
 Red. masses --      2.1484                 2.4630                 2.5680
 Frc consts  --      0.2233                 0.3308                 0.4271
 IR Inten    --      1.9930                 2.2791                 6.3037

                     13                     14                     15
                      A                      A                      A
 Frequencies --    742.3740               789.6073               808.7143
 Red. masses --      2.5634                 1.1458                 1.1512
 Frc consts  --      0.8324                 0.4209                 0.4436
 IR Inten    --      8.3240                 4.0514                 2.4136

                     16                     17                     18
                      A                      A                      A
 Frequencies --    820.5697               915.2316               934.4900
 Red. masses --      1.1452                 2.0605                 1.9386
 Frc consts  --      0.4543                 1.0169                 0.9974
 IR Inten    --      1.7271                 1.4863                 1.1570

                     19                     20                     21
                      A                      A                      A
 Frequencies --   1012.9128              1070.8693              1093.9021
 Red. masses --      2.5855                 2.3142                 2.5744
 Frc consts  --      1.5629                 1.5636                 1.8150
 IR Inten    --      8.3714                 7.2685                32.4322

                     22                     23                     24
                      A                      A                      A
 Frequencies --   1097.9135              1116.9660              1127.6977
 Red. masses --      1.6640                 1.7092                 1.7624
 Frc consts  --      1.1818                 1.2564                 1.3205
 IR Inten    --      1.7424                 7.0040                28.4999

                     25                     26                     27
                      A                      A                      A
 Frequencies --   1168.8097              1246.0618              1254.8087
 Red. masses --      1.7038                 2.0724                 2.3189
 Frc consts  --      1.3714                 1.8958                 2.1512
 IR Inten    --      9.6289                15.4155                24.6886

                     28                     29                     30
                      A                      A                      A
 Frequencies --   1329.9676              1340.1637              1385.1576
 Red. masses --      1.1067                 1.1973                 1.2758
 Frc consts  --      1.1534                 1.2669                 1.4422
 IR Inten    --      1.1239                26.2318                12.4363

                     31                     32                     33
                      A                      A                      A
 Frequencies --   1400.1325              1415.3944              1427.9514
 Red. masses --      1.2718                 1.3083                 1.2325
 Frc consts  --      1.4689                 1.5442                 1.4807
 IR Inten    --     18.7483                11.3486                 0.1104

                     34                     35                     36
                      A                      A                      A
 Frequencies --   1430.7996              1442.0461              1445.6533
 Red. masses --      1.2590                 1.3137                 1.3723
 Frc consts  --      1.5186                 1.6095                 1.6897
 IR Inten    --     14.6295                19.2644                15.7457

                     37                     38                     39
                      A                      A                      A
 Frequencies --   1509.2910              1517.5480              1519.8757
 Red. masses --      1.0618                 1.0508                 1.0524
 Frc consts  --      1.4251                 1.4258                 1.4323
 IR Inten    --      2.7225                 3.8781                 0.9529

                     40                     41                     42
                      A                      A                      A
 Frequencies --   1524.5521              1527.5731              1531.3022
 Red. masses --      1.0511                 1.0434                 1.0471
 Frc consts  --      1.4394                 1.4346                 1.4466
 IR Inten    --      1.4941                 3.0342                 0.8148

                     43                     44                     45
                      A                      A                      A
 Frequencies --   1538.1667              1541.3249              1553.5487
 Red. masses --      1.0545                 1.0810                 1.0858
 Frc consts  --      1.4699                 1.5131                 1.5440
 IR Inten    --      2.2596                 8.2829                 0.8334

                     46                     47                     48
                      A                      A                      A
 Frequencies --   2930.0873              2938.1502              3044.9974
 Red. masses --      1.0743                 1.0734                 1.0626
 Frc consts  --      5.4344                 5.4594                 5.8050
 IR Inten    --     24.2148               123.3372                27.2226

                     49                     50                     51
                      A                      A                      A
 Frequencies --   3049.1723              3051.3278              3053.5694
 Red. masses --      1.0357                 1.0363                 1.0391
 Frc consts  --      5.6736                 5.6850                 5.7086
 IR Inten    --     24.5188                19.7864                21.5212

                     52                     53                     54
                      A                      A                      A
 Frequencies --   3066.7210              3082.9631              3085.0757
 Red. masses --      1.0865                 1.0933                 1.0921
 Frc consts  --      6.0204                 6.1222                 6.1239
 IR Inten    --     22.4079                25.2671                13.1554

                     55                     56                     57
                      A                      A                      A
 Frequencies --   3112.9845              3115.0218              3118.8819
 Red. masses --      1.1011                 1.1010                 1.1002
 Frc consts  --      6.2870                 6.2943                 6.3057
 IR Inten    --     33.1812                22.6497                77.3788

                     58                     59                     60
                      A                      A                      A
 Frequencies --   3122.1665              3128.5639              3129.9294
 Red. masses --      1.1027                 1.1032                 1.1030
 Frc consts  --      6.3331                 6.3619                 6.3663
 IR Inten    --     39.2890                46.9985                36.2241

 - Thermochemistry -
 -------------------
 Temperature   298.150 Kelvin.  Pressure   1.00000 Atm.
 Atom     1 has atomic number  6 and mass  12.00000

 Molecular mass:   101.12045 amu.
 Principal axes and moments of inertia in atomic units:
                           1         2         3
     Eigenvalues --   665.82407 879.968301349.82430
           X            0.99999   0.00362  -0.00020
           Y           -0.00362   0.99998   0.00428
           Z            0.00021  -0.00428   0.99999
 This molecule is an asymmetric top.
 Rotational symmetry number  1.
 Warning -- assumption of classical behavior for rotation
           may cause significant error
 Rotational temperatures (Kelvin)      0.13009     0.09843     0.06417
 Rotational constants (GHZ):           2.71054     2.05092     1.33702
 Zero-point vibrational energy     543490.2 (Joules/Mol)
                                  129.89728 (Kcal/Mol)
 Warning -- explicit consideration of  12 degrees of freedom as
           vibrations may cause significant error
 Vibrational temperatures:     70.71   120.76   167.26   269.41   320.23
          (Kelvin)            339.73   408.24   439.02   489.99   604.33
                              686.93   764.40  1068.11  1136.07  1163.56
                             1180.62  1316.81  1344.52  1457.36  1540.74
                             1573.88  1579.65  1607.06  1622.51  1681.66
                             1792.80  1805.39  1913.53  1928.20  1992.93
                             2014.48  2036.44  2054.50  2058.60  2074.78
                             2079.97  2171.53  2183.41  2186.76  2193.49
                             2197.84  2203.20  2213.08  2217.62  2235.21
                             4215.74  4227.34  4381.07  4387.08  4390.18
                             4393.41  4412.33  4435.70  4438.74  4478.89
                             4481.82  4487.38  4492.10  4501.31  4503.27

 Zero-point correction=                           0.207004 (Hartree/Particle)
 Thermal correction to Energy=                    0.216455
 Thermal correction to Enthalpy=                  0.217399
 Thermal correction to Gibbs Free Energy=         0.172765
 Sum of electronic and zero-point Energies=           -292.208020
 Sum of electronic and thermal Energies=              -292.198570
 Sum of electronic and thermal Enthalpies=            -292.197625
 Sum of electronic and thermal Free Energies=         -292.242259

                     E (Thermal)             CV                S
                      KCal/Mol        Cal/Mol-Kelvin    Cal/Mol-Kelvin
 Total                  135.827             33.661             93.939
 Electronic               0.000              0.000              0.000
 Translational            0.889              2.981             39.751
 Rotational               0.889              2.981             28.160
 Vibrational            134.050             27.699             26.028
 Vibration     1          0.595              1.978              4.852
 Vibration     2          0.601              1.960              3.797
 Vibration     3          0.608              1.936              3.162
 Vibration     4          0.632              1.857              2.255
 Vibration     5          0.648              1.807              1.938
 Vibration     6          0.655              1.785              1.832
 Vibration     7          0.682              1.704              1.511
 Vibration     8          0.696              1.664              1.389
 Vibration     9          0.720              1.594              1.210
 Vibration    10          0.783              1.427              0.892
 Vibration    11          0.834              1.300              0.717
 Vibration    12          0.886              1.181              0.584

 Optimization completed.
    -- Stationary point found.
 Normal termination of Gaussian 16 at Mon Aug 24 17:45:34 2020.
 Gaussian 16:  ES64L-G16RevA.03 25-Dec-2016

 ----------------------------------------------------------------------
 # TD(NStates=10, Root=1) B3LYP/6-31G* scf=qc volume pop=NPA density=cu
 rrent Geom=AllCheck Guess=Read
 ----------------------------------------------------------------------

 Structure from the checkpoint file:  "base_4_conf63.chk"
 -------------------
 Title Card Required
 -------------------
 Charge =  0 Multiplicity = 1

                         Standard orientation:
 ---------------------------------------------------------------------
 Center     Atomic      Atomic             Coordinates (Angstroms)
 Number     Number       Type             X           Y           Z
 ---------------------------------------------------------------------
      1          6           0        1.621723    1.698048    0.413605
      2          6           0        0.944519    0.893384   -0.711356
      3          7           0       -0.147314   -0.008013   -0.328705
      4          6           0        0.255966   -1.122877    0.531640
      5          6           0        1.221897   -2.098874   -0.143884
      6          6           0       -1.327635    0.698176    0.179860
      7          6           0       -2.634603   -0.054488   -0.087546
      8          1           0        2.400604    2.346331   -0.005245
      9          1           0        2.098647    1.046833    1.154533
     10          1           0        0.905087    2.337605    0.941335
     11          1           0        1.703631    0.303722   -1.237625
     12          1           0        0.538131    1.591232   -1.454613
     13          1           0       -0.653121   -1.673142    0.795887
     14          1           0        0.689163   -0.777233    1.490849
     15          1           0        0.813601   -2.437244   -1.102192
     16          1           0        1.378241   -2.974696    0.496192
     17          1           0        2.204815   -1.653291   -0.330853
     18          1           0       -1.377421    1.666632   -0.332356
     19          1           0       -1.247502    0.925215    1.260526
     20          1           0       -2.748544   -0.248356   -1.159077
     21          1           0       -3.490964    0.538711    0.254711
     22          1           0       -2.674370   -1.016442    0.434947
 ---------------------------------------------------------------------

 SCF Done:  E(RB3LYP) =  -292.415024234     a.u. after    1 cycles

 Excitation energies and oscillator strengths:

 Excited State   1:      Singlet-A      6.6338 eV  186.90 nm  f=0.0158  <S**2>=0.000
      29 -> 30         0.70442
 This state for optimization and/or second-order correction.
 Total Energy, E(TD-HF/TD-DFT) =  -292.171234886
 Copying the excited state density for this state as the 1-particle RhoCI density.

 Excited State   2:      Singlet-A      7.2807 eV  170.29 nm  f=0.0146  <S**2>=0.000
      29 -> 31         0.69936

 Excited State   3:      Singlet-A      7.6210 eV  162.69 nm  f=0.0026  <S**2>=0.000
      29 -> 32         0.68341
      29 -> 33        -0.15836

 Excited State   4:      Singlet-A      7.8991 eV  156.96 nm  f=0.0230  <S**2>=0.000
      29 -> 32         0.16299
      29 -> 33         0.68284

 Excited State   5:      Singlet-A      8.4656 eV  146.46 nm  f=0.0098  <S**2>=0.000
      29 -> 34         0.68243
      29 -> 36         0.14521

 Excited State   6:      Singlet-A      8.5419 eV  145.15 nm  f=0.0301  <S**2>=0.000
      29 -> 35         0.59763
      29 -> 36        -0.35544

 Excited State   7:      Singlet-A      8.6083 eV  144.03 nm  f=0.0275  <S**2>=0.000
      29 -> 34        -0.14506
      29 -> 35         0.35840
      29 -> 36         0.57154

 Excited State   8:      Singlet-A      8.9284 eV  138.86 nm  f=0.0007  <S**2>=0.000
      29 -> 36         0.10619
      29 -> 37         0.66827
      29 -> 38        -0.15534

 Excited State   9:      Singlet-A      9.0622 eV  136.81 nm  f=0.0456  <S**2>=0.000
      29 -> 37         0.14544
      29 -> 38         0.68236

 Excited State  10:      Singlet-A      9.3865 eV  132.09 nm  f=0.0249  <S**2>=0.000
      29 -> 39         0.65361
      29 -> 40        -0.23519

 The electronic state is 1-A.
 Alpha  occ. eigenvalues --  -14.31156 -10.20078 -10.20004 -10.19986 -10.17003
 Alpha  occ. eigenvalues --  -10.16970 -10.16844  -0.90778  -0.75315  -0.74949
 Alpha  occ. eigenvalues --   -0.69921  -0.62911  -0.61327  -0.54657  -0.48008
 Alpha  occ. eigenvalues --   -0.46738  -0.44426  -0.43130  -0.40893  -0.39265
 Alpha  occ. eigenvalues --   -0.38731  -0.36998  -0.36430  -0.35690  -0.34626
 Alpha  occ. eigenvalues --   -0.33710  -0.32752  -0.31909  -0.19848
 Alpha virt. eigenvalues --    0.08283   0.10653   0.11980   0.12923   0.15086
 Alpha virt. eigenvalues --    0.15518   0.15748   0.16379   0.16847   0.18091
 Alpha virt. eigenvalues --    0.18533   0.19454   0.20529   0.21224   0.21830

 Mulliken charges:
               1
     1  C   -0.352587
     2  C   -0.096176
     3  N   -0.194347
     4  C   -0.073917
     5  C   -0.423017
     6  C   -0.091176
     7  C   -0.448895
     8  H    0.094677
     9  H    0.072294
    10  H    0.089514
    11  H    0.119655
    12  H    0.071735
    13  H    0.073229
    14  H    0.124426
    15  H    0.130546
    16  H    0.124346
    17  H    0.103324
    18  H    0.098470
    19  H    0.143416
    20  H    0.150611
    21  H    0.139802
    22  H    0.144073
 Sum of Mulliken charges =  -0.00000

 Dipole moment (field-independent basis, Debye):
    X=             -1.4337    Y=             -0.4076    Z=             -0.2304  Tot=              1.5082
 Quadrupole moment (field-independent basis, Debye-Ang):
   XX=            -51.6239   YY=            -52.9872   ZZ=            -49.5787
   XY=             -1.0336   XZ=             -0.7675   YZ=              0.2594

 Summary of Natural Population Analysis:

                                       Natural Population
                Natural  -----------------------------------------------
    Atom  No    Charge         Core      Valence    Rydberg      Total
 -----------------------------------------------------------------------
      C    1   -0.68869      1.99940     4.67775    0.01153     6.68869
      C    2   -0.31560      1.99933     4.29681    0.01946     6.31560
      N    3   -0.03195      1.99932     5.02340    0.00923     7.03195
      C    4   -0.31793      1.99929     4.30077    0.01787     6.31793
      C    5   -0.70338      1.99945     4.69215    0.01178     6.70338
      C    6   -0.31585      1.99931     4.29945    0.01709     6.31585
      C    7   -0.69628      1.99944     4.68572    0.01112     6.69628
      H    8    0.19708      0.00000     0.78084    0.02208     0.80292
      H    9    0.17321      0.00000     0.79115    0.03564     0.82679
      H   10    0.18684      0.00000     0.78805    0.02511     0.81316
      H   11    0.21058      0.00000     0.76436    0.02506     0.78942
      H   12    0.17464      0.00000     0.78777    0.03758     0.82536
      H   13    0.17462      0.00000     0.79128    0.03410     0.82538
      H   14    0.21946      0.00000     0.74397    0.03657     0.78054
      H   15    0.22035      0.00000     0.77207    0.00758     0.77965
      H   16    0.21924      0.00000     0.76967    0.01110     0.78076
      H   17    0.19048      0.00000     0.78326    0.02626     0.80952
      H   18    0.19673      0.00000     0.76875    0.03452     0.80327
      H   19    0.23159      0.00000     0.74215    0.02626     0.76841
      H   20    0.23020      0.00000     0.76501    0.00479     0.76980
      H   21    0.22616      0.00000     0.76531    0.00854     0.77384
      H   22    0.21851      0.00000     0.77062    0.01087     0.78149
 =======================================================================
   * Total *   -0.00000     13.99553    43.56034    0.44413    58.00000

 Normal termination of Gaussian 16 at Mon Aug 24 17:50:23 2020.
