 Gaussian 16, Revision A.03,

 ---------------------------------
 # opt=CalcAll B3LYP/6-31G* scf=qc
 ---------------------------------

 -------------------
 Title Card Required
 -------------------
 Symbolic Z-matrix:
 Charge =  0 Multiplicity = 1

 SCF Done:  E(RB3LYP) =  -519.794814912     a.u. after    9 cycles
 SCF Done:  E(RB3LYP) =  -519.805313012     a.u. after   15 cycles
 SCF Done:  E(RB3LYP) =  -519.818203151     a.u. after   15 cycles
 SCF Done:  E(RB3LYP) =  -519.825704853     a.u. after   13 cycles
 SCF Done:  E(RB3LYP) =  -519.828340842     a.u. after   11 cycles
 SCF Done:  E(RB3LYP) =  -519.829390024     a.u. after   11 cycles
 SCF Done:  E(RB3LYP) =  -519.829448114     a.u. after    9 cycles
 SCF Done:  E(RB3LYP) =  -519.829451985     a.u. after    3 cycles
 SCF Done:  E(RB3LYP) =  -519.829452346     a.u. after    2 cycles
 Optimization completed.
    -- Stationary point found.
 Normal termination of Gaussian 16 at Mon Aug 24 16:06:21 2020.

 ----------------------------------------------------------------------
 # freq B3LYP/6-31G* scf=qc volume NMR pop=NPA density=current Geom=All
 Check Guess=Read
 ----------------------------------------------------------------------

 Structure from the checkpoint file:  "base_3_conf272.chk"
 -------------------
 Title Card Required
 -------------------
 Charge =  0 Multiplicity = 1

 SCF Done:  E(RB3LYP) =  -519.829452346     a.u. after    1 cycles

      1  N    Isotropic =   210.2892   Anisotropy =    59.8074

      2  C    Isotropic =    44.7811   Anisotropy =    69.4587

      3  N    Isotropic =    19.7130   Anisotropy =   285.3877

      4  C    Isotropic =   135.3672   Anisotropy =    31.4291

      5  C    Isotropic =   159.1470   Anisotropy =    39.1470

      6  C    Isotropic =   152.7026   Anisotropy =    46.9000

      7  C    Isotropic =   163.0980   Anisotropy =    32.4180

      8  N    Isotropic =   182.1451   Anisotropy =    82.9265

      9  C    Isotropic =   150.8906   Anisotropy =    45.6716

     10  C    Isotropic =   152.1237   Anisotropy =    52.2766

     11  C    Isotropic =   148.0042   Anisotropy =    53.5705

     12  C    Isotropic =   151.6438   Anisotropy =    54.8017

     13  H    Isotropic =    30.7490   Anisotropy =     6.9874

     14  H    Isotropic =    30.9938   Anisotropy =     5.7602

     15  H    Isotropic =    31.0559   Anisotropy =     8.2224

     16  H    Isotropic =    30.5399   Anisotropy =     6.6855

     17  H    Isotropic =    31.1933   Anisotropy =     8.2926

     18  H    Isotropic =    31.0198   Anisotropy =     6.5445

     19  H    Isotropic =    30.5621   Anisotropy =     6.0551

     20  H    Isotropic =    31.0873   Anisotropy =     5.7432

     21  H    Isotropic =    31.0454   Anisotropy =     7.8886

     22  H    Isotropic =    29.3342   Anisotropy =     7.1032

     23  H    Isotropic =    30.2741   Anisotropy =     9.0298

     24  H    Isotropic =    29.7956   Anisotropy =     8.3944

     25  H    Isotropic =    29.5593   Anisotropy =     4.5837

     26  H    Isotropic =    29.9836   Anisotropy =     9.2562

     27  H    Isotropic =    29.8833   Anisotropy =     9.0934

     28  H    Isotropic =    29.2973   Anisotropy =     6.0188

     29  H    Isotropic =    29.8061   Anisotropy =     9.4471

     30  H    Isotropic =    29.5095   Anisotropy =     7.9175

     31  H    Isotropic =    29.2316   Anisotropy =     6.8445

     32  H    Isotropic =    29.7709   Anisotropy =     9.6442

     33  H    Isotropic =    29.8845   Anisotropy =     8.3683

  Exact polarizability: 143.949  -1.404 121.704  -0.480   0.836  96.881
 Approx polarizability: 189.269  -5.920 166.664  -4.469   1.899 139.888

                      1                      2                      3
                      A                      A                      A
 Frequencies --     31.8676                67.1328                88.9067
 Red. masses --      2.5945                 2.7512                 2.5808
 Frc consts  --      0.0016                 0.0073                 0.0120
 IR Inten    --      0.2108                 0.4466                 2.1998

                      4                      5                      6
                      A                      A                      A
 Frequencies --    129.3442               133.8089               148.1969
 Red. masses --      1.7539                 2.1645                 2.0181
 Frc consts  --      0.0173                 0.0228                 0.0261
 IR Inten    --      2.0360                 1.3539                 0.7039

                      7                      8                      9
                      A                      A                      A
 Frequencies --    184.8802               201.8232               215.2700
 Red. masses --      1.7106                 1.2823                 1.1406
 Frc consts  --      0.0344                 0.0308                 0.0311
 IR Inten    --      0.2901                 0.5189                 0.1786

                     10                     11                     12
                      A                      A                      A
 Frequencies --    218.5712               226.3733               249.0240
 Red. masses --      1.1529                 1.5793                 1.3242
 Frc consts  --      0.0324                 0.0477                 0.0484
 IR Inten    --      0.9253                 1.0934                 2.4167

                     13                     14                     15
                      A                      A                      A
 Frequencies --    266.1295               271.4201               292.0945
 Red. masses --      1.1282                 1.9197                 1.3871
 Frc consts  --      0.0471                 0.0833                 0.0697
 IR Inten    --      1.3072                 0.8380                 3.1259

                     16                     17                     18
                      A                      A                      A
 Frequencies --    304.2877               329.7964               351.0570
 Red. masses --      2.2026                 2.7755                 2.4071
 Frc consts  --      0.1202                 0.1779                 0.1748
 IR Inten    --      4.3697                 2.8832                 1.3197

                     19                     20                     21
                      A                      A                      A
 Frequencies --    372.0222               379.4494               408.7871
 Red. masses --      2.6612                 2.4126                 2.4177
 Frc consts  --      0.2170                 0.2047                 0.2380
 IR Inten    --      5.5002                 1.4111                 1.9092

                     22                     23                     24
                      A                      A                      A
 Frequencies --    454.6343               503.9583               532.4767
 Red. masses --      2.4209                 3.5031                 3.2035
 Frc consts  --      0.2948                 0.5242                 0.5352
 IR Inten    --      0.7072                 8.1051                 0.1390

                     25                     26                     27
                      A                      A                      A
 Frequencies --    589.2419               694.2972               761.3038
 Red. masses --      3.4189                 5.2931                 7.6803
 Frc consts  --      0.6994                 1.5033                 2.6227
 IR Inten    --      9.8930                 2.2518                 9.2610

                     28                     29                     30
                      A                      A                      A
 Frequencies --    783.5875               909.8033               919.7806
 Red. masses --      3.6159                 2.3086                 2.3677
 Frc consts  --      1.3081                 1.1259                 1.1802
 IR Inten    --      1.1030                 8.5029                 5.8089

                     31                     32                     33
                      A                      A                      A
 Frequencies --    927.0897               953.4235               967.3310
 Red. masses --      1.7091                 3.0539                 1.2050
 Frc consts  --      0.8655                 1.6356                 0.6644
 IR Inten    --      0.4792                 5.8318                 0.2316

                     34                     35                     36
                      A                      A                      A
 Frequencies --   1045.2850              1056.1557              1065.6308
 Red. masses --      1.7839                 1.3960                 1.5136
 Frc consts  --      1.1484                 0.9175                 1.0127
 IR Inten    --     59.4179                 3.1429                18.5804

                     37                     38                     39
                      A                      A                      A
 Frequencies --   1081.0527              1096.9178              1131.7345
 Red. masses --      1.4307                 1.3800                 1.5455
 Frc consts  --      0.9851                 0.9783                 1.1663
 IR Inten    --     11.5156                 3.4058                82.5582

                     40                     41                     42
                      A                      A                      A
 Frequencies --   1135.6721              1149.6846              1182.2165
 Red. masses --      1.4521                 1.3533                 1.3500
 Frc consts  --      1.1035                 1.0539                 1.1117
 IR Inten    --     72.8496                32.8676                 3.4865

                     43                     44                     45
                      A                      A                      A
 Frequencies --   1184.2640              1246.4808              1248.4712
 Red. masses --      1.4162                 2.5043                 2.7360
 Frc consts  --      1.1702                 2.2925                 2.5126
 IR Inten    --     20.8231                79.2454                11.9730

                     46                     47                     48
                      A                      A                      A
 Frequencies --   1256.1819              1268.9028              1284.0512
 Red. masses --      2.8670                 4.4906                 4.9204
 Frc consts  --      2.6655                 4.2601                 4.7798
 IR Inten    --     14.1683                41.0313                18.1304

                     49                     50                     51
                      A                      A                      A
 Frequencies --   1361.2870              1396.7768              1416.9411
 Red. masses --      2.9644                 3.0565                 1.2428
 Frc consts  --      3.2366                 3.5134                 1.4701
 IR Inten    --     14.5864               206.0705                 3.4934

                     52                     53                     54
                      A                      A                      A
 Frequencies --   1419.9728              1448.5389              1460.9867
 Red. masses --      1.2393                 1.2243                 1.1540
 Frc consts  --      1.4722                 1.5135                 1.4513
 IR Inten    --      6.5897                 4.6918                 0.6050

                     55                     56                     57
                      A                      A                      A
 Frequencies --   1466.6398              1483.2523              1494.6495
 Red. masses --      1.1374                 1.1680                 1.1628
 Frc consts  --      1.4414                 1.5140                 1.5305
 IR Inten    --      2.7401                15.0329                13.8246

                     58                     59                     60
                      A                      A                      A
 Frequencies --   1503.5623              1505.1986              1509.5757
 Red. masses --      1.0580                 1.0730                 1.0572
 Frc consts  --      1.4093                 1.4324                 1.4194
 IR Inten    --      3.0678                 5.2898                 4.6135

                     61                     62                     63
                      A                      A                      A
 Frequencies --   1511.9036              1514.8460              1516.3320
 Red. masses --      1.0471                 1.0524                 1.0466
 Frc consts  --      1.4102                 1.4229                 1.4178
 IR Inten    --      0.7612                 7.8652                 0.7443

                     64                     65                     66
                      A                      A                      A
 Frequencies --   1518.9793              1529.4224              1530.7260
 Red. masses --      1.0656                 1.0537                 1.0553
 Frc consts  --      1.4486                 1.4522                 1.4568
 IR Inten    --      8.2489                11.1570                 7.1047

                     67                     68                     69
                      A                      A                      A
 Frequencies --   1532.5115              1542.1574              1545.6466
 Red. masses --      1.0560                 1.0552                 1.0546
 Frc consts  --      1.4612                 1.4786                 1.4845
 IR Inten    --      2.0831                10.0185                11.0567

                     70                     71                     72
                      A                      A                      A
 Frequencies --   1550.5337              1566.2934              1702.2499
 Red. masses --      1.0766                 1.1167                 9.2299
 Frc consts  --      1.5250                 1.6141                15.7577
 IR Inten    --      6.8221                30.5485               472.1150

                     73                     74                     75
                      A                      A                      A
 Frequencies --   2977.5005              2983.9129              2988.7463
 Red. masses --      1.0498                 1.0558                 1.0575
 Frc consts  --      5.4835                 5.5386                 5.5653
 IR Inten    --     39.9194               130.2360               103.2339

                     76                     77                     78
                      A                      A                      A
 Frequencies --   3015.9072              3025.4999              3033.9512
 Red. masses --      1.0490                 1.0904                 1.0905
 Frc consts  --      5.6217                 5.8808                 5.9140
 IR Inten    --     79.6488                63.1460                36.1094

                     79                     80                     81
                      A                      A                      A
 Frequencies --   3041.6408              3047.7557              3055.0793
 Red. masses --      1.0357                 1.0376                 1.0387
 Frc consts  --      5.6457                 5.6785                 5.7119
 IR Inten    --     23.1776                29.1241                36.2140

                     82                     83                     84
                      A                      A                      A
 Frequencies --   3078.3627              3081.8013              3104.8550
 Red. masses --      1.0852                 1.0916                 1.1015
 Frc consts  --      6.0588                 6.1083                 6.2562
 IR Inten    --     26.9816                65.0553                 1.5174

                     85                     86                     87
                      A                      A                      A
 Frequencies --   3110.6738              3116.9637              3126.3704
 Red. masses --      1.1010                 1.1007                 1.1027
 Frc consts  --      6.2769                 6.3005                 6.3502
 IR Inten    --     29.0154                82.2342                15.0473

                     88                     89                     90
                      A                      A                      A
 Frequencies --   3130.3695              3154.7144              3163.3357
 Red. masses --      1.1019                 1.0964                 1.0940
 Frc consts  --      6.3618                 6.4292                 6.4498
 IR Inten    --     49.6217                29.9580                 9.0064

                     91                     92                     93
                      A                      A                      A
 Frequencies --   3167.7211              3168.4238              3170.2635
 Red. masses --      1.0968                 1.0947                 1.0924
 Frc consts  --      6.4843                 6.4749                 6.4687
 IR Inten    --     13.4832                20.0792                 8.4903

 - Thermochemistry -
 -------------------
 Temperature   298.150 Kelvin.  Pressure   1.00000 Atm.
 Atom     1 has atomic number  7 and mass  14.00307

 Molecular mass:   171.17355 amu.
 Principal axes and moments of inertia in atomic units:
                           1         2         3
     Eigenvalues --  1507.457382533.488713285.56109
           X            1.00000  -0.00074   0.00245
           Y            0.00075   0.99999  -0.00428
           Z           -0.00244   0.00428   0.99999
 This molecule is an asymmetric top.
 Rotational symmetry number  1.
 Warning -- assumption of classical behavior for rotation
           may cause significant error
 Rotational temperatures (Kelvin)      0.05746     0.03419     0.02636
 Rotational constants (GHZ):           1.19721     0.71235     0.54929
 Zero-point vibrational energy     789970.2 (Joules/Mol)
                                  188.80741 (Kcal/Mol)
 Warning -- explicit consideration of  25 degrees of freedom as
           vibrations may cause significant error
 Vibrational temperatures:     45.85    96.59   127.92   186.10   192.52
          (Kelvin)            213.22   266.00   290.38   309.73   314.48
                              325.70   358.29   382.90   390.51   420.26
                              437.80   474.50   505.09   535.26   545.94
                              588.15   654.12   725.08   766.12   847.79
                              998.94  1095.35  1127.41  1309.00  1323.36
                             1333.88  1371.76  1391.77  1503.93  1519.57
                             1533.21  1555.39  1578.22  1628.31  1633.98
                             1654.14  1700.95  1703.89  1793.41  1796.27
                             1807.37  1825.67  1847.46  1958.59  2009.65
                             2038.66  2043.02  2084.12  2102.03  2110.17
                             2134.07  2150.47  2163.29  2165.65  2171.94
                             2175.29  2179.53  2181.66  2185.47  2200.50
                             2202.37  2204.94  2218.82  2223.84  2230.87
                             2253.55  2449.16  4283.96  4293.19  4300.14
                             4339.22  4353.02  4365.18  4376.24  4385.04
                             4395.58  4429.08  4434.02  4467.19  4475.57
                             4484.62  4498.15  4503.90  4538.93  4551.33
                             4557.64  4558.66  4561.30

 Zero-point correction=                           0.300884 (Hartree/Particle)
 Thermal correction to Energy=                    0.316645
 Thermal correction to Enthalpy=                  0.317589
 Thermal correction to Gibbs Free Energy=         0.259216
 Sum of electronic and zero-point Energies=           -519.528569
 Sum of electronic and thermal Energies=              -519.512807
 Sum of electronic and thermal Enthalpies=            -519.511863
 Sum of electronic and thermal Free Energies=         -519.570236

                     E (Thermal)             CV                S
                      KCal/Mol        Cal/Mol-Kelvin    Cal/Mol-Kelvin
 Total                  198.698             57.738            122.856
 Electronic               0.000              0.000              0.000
 Translational            0.889              2.981             41.320
 Rotational               0.889              2.981             30.907
 Vibrational            196.920             51.777             50.629
 Vibration     1          0.594              1.983              5.710
 Vibration     2          0.598              1.970              4.236
 Vibration     3          0.602              1.957              3.684
 Vibration     4          0.612              1.924              2.956
 Vibration     5          0.613              1.920              2.891
 Vibration     6          0.618              1.905              2.695
 Vibration     7          0.631              1.860              2.279
 Vibration     8          0.639              1.837              2.116
 Vibration     9          0.645              1.818              1.999
 Vibration    10          0.646              1.813              1.971
 Vibration    11          0.650              1.801              1.908
 Vibration    12          0.662              1.764              1.737
 Vibration    13          0.672              1.735              1.621
 Vibration    14          0.675              1.726              1.587
 Vibration    15          0.687              1.688              1.462
 Vibration    16          0.695              1.666              1.393
 Vibration    17          0.713              1.616              1.261
 Vibration    18          0.728              1.573              1.161
 Vibration    19          0.744              1.530              1.071
 Vibration    20          0.749              1.514              1.041
 Vibration    21          0.773              1.451              0.931
 Vibration    22          0.813              1.351              0.782
 Vibration    23          0.859              1.241              0.648
 Vibration    24          0.887              1.178              0.582
 Vibration    25          0.947              1.055              0.469

 Optimization completed.
    -- Stationary point found.
 Normal termination of Gaussian 16 at Mon Aug 24 16:12:39 2020.
 Gaussian 16:  ES64L-G16RevA.03 25-Dec-2016

 ----------------------------------------------------------------------
 # TD(NStates=10, Root=1) B3LYP/6-31G* scf=qc volume pop=NPA density=cu
 rrent Geom=AllCheck Guess=Read
 ----------------------------------------------------------------------

 Structure from the checkpoint file:  "base_3_conf273.chk"
 -------------------
 Title Card Required
 -------------------
 Charge =  0 Multiplicity = 1

                         Standard orientation:
 ---------------------------------------------------------------------
 Center     Atomic      Atomic             Coordinates (Angstroms)
 Number     Number       Type             X           Y           Z
 ---------------------------------------------------------------------
      1          7           0        0.845091   -1.214533   -0.137952
      2          6           0        0.568664    0.158493    0.029788
      3          7           0       -0.561743    0.724227    0.241477
      4          6           0       -1.910691    0.200433   -0.003569
      5          6           0       -2.558929   -0.205883    1.337054
      6          6           0       -2.696508    1.410569   -0.563066
      7          6           0       -2.024185   -0.949845   -1.027598
      8          7           0        1.707570    0.975705   -0.093855
      9          6           0        1.483366    2.407925   -0.226512
     10          6           0        2.888770    0.652768    0.699748
     11          6           0        0.486919   -2.182133    0.877958
     12          6           0        1.763079   -1.689822   -1.155312
     13          1           0       -2.450416    0.602585    2.067695
     14          1           0       -2.101443   -1.107905    1.755954
     15          1           0       -3.628356   -0.408260    1.202353
     16          1           0       -2.632729    2.254266    0.131230
     17          1           0       -3.752929    1.160368   -0.720229
     18          1           0       -2.272507    1.730765   -1.521727
     19          1           0       -1.611851   -1.892200   -0.661841
     20          1           0       -1.508213   -0.690843   -1.959062
     21          1           0       -3.080722   -1.122077   -1.267030
     22          1           0        0.675735    2.587764   -0.936618
     23          1           0        2.405728    2.874097   -0.592890
     24          1           0        1.201777    2.879965    0.727033
     25          1           0        2.987516   -0.426809    0.817051
     26          1           0        2.839504    1.104167    1.705224
     27          1           0        3.789961    1.031050    0.202903
     28          1           0       -0.079942   -1.693760    1.670978
     29          1           0        1.389553   -2.629847    1.327959
     30          1           0       -0.119872   -3.005874    0.472426
     31          1           0        1.991827   -0.879960   -1.849313
     32          1           0        1.305889   -2.517669   -1.717288
     33          1           0        2.712159   -2.062644   -0.733440
 ---------------------------------------------------------------------

 SCF Done:  E(RB3LYP) =  -519.829452346     a.u. after    1 cycles

 Excitation energies and oscillator strengths:

 Excited State   1:      Singlet-A      5.4517 eV  227.42 nm  f=0.0042  <S**2>=0.000
      46 -> 49         0.30881
      47 -> 49         0.51918
      48 -> 49         0.35991
 This state for optimization and/or second-order correction.
 Total Energy, E(TD-HF/TD-DFT) =  -519.629105226
 Copying the excited state density for this state as the 1-particle RhoCI density.

 Excited State   2:      Singlet-A      5.9973 eV  206.73 nm  f=0.1132  <S**2>=0.000
      46 -> 49         0.57265
      48 -> 49        -0.39218

 Excited State   3:      Singlet-A      6.2847 eV  197.28 nm  f=0.2787  <S**2>=0.000
      46 -> 49        -0.25534
      47 -> 49         0.45878
      48 -> 49        -0.44120

 Excited State   4:      Singlet-A      6.4985 eV  190.79 nm  f=0.0069  <S**2>=0.000
      47 -> 50         0.10222
      48 -> 50         0.68373

 Excited State   5:      Singlet-A      6.9204 eV  179.16 nm  f=0.0290  <S**2>=0.000
      46 -> 50        -0.24484
      47 -> 50         0.64045
      48 -> 50        -0.12528

 Excited State   6:      Singlet-A      7.0577 eV  175.67 nm  f=0.0037  <S**2>=0.000
      46 -> 50         0.64280
      47 -> 50         0.26196

 Excited State   7:      Singlet-A      7.4159 eV  167.19 nm  f=0.0078  <S**2>=0.000
      48 -> 51         0.68250
      48 -> 53        -0.11768

 Excited State   8:      Singlet-A      7.6926 eV  161.17 nm  f=0.0147  <S**2>=0.000
      48 -> 52         0.68150

 Excited State   9:      Singlet-A      7.8211 eV  158.53 nm  f=0.0223  <S**2>=0.000
      47 -> 51         0.67158

 Excited State  10:      Singlet-A      7.9409 eV  156.13 nm  f=0.0094  <S**2>=0.000
      46 -> 51         0.58653
      46 -> 52         0.12890
      47 -> 52        -0.13431
      47 -> 53         0.10817
      48 -> 51         0.10678
      48 -> 53         0.27316

 The electronic state is 1-A.
 Alpha  occ. eigenvalues --  -14.33742 -14.33696 -14.27856 -10.26424 -10.21164
 Alpha  occ. eigenvalues --  -10.20866 -10.20857 -10.20810 -10.19422 -10.16069
 Alpha  occ. eigenvalues --  -10.15853 -10.15374  -0.96890  -0.89945  -0.86533
 Alpha  occ. eigenvalues --   -0.77043  -0.71590  -0.70449  -0.68211  -0.67181
 Alpha  occ. eigenvalues --   -0.66538  -0.63323  -0.56682  -0.52425  -0.50149
 Alpha  occ. eigenvalues --   -0.47227  -0.46455  -0.45261  -0.44300  -0.43262
 Alpha  occ. eigenvalues --   -0.42363  -0.41918  -0.40387  -0.39514  -0.38972
 Alpha  occ. eigenvalues --   -0.38245  -0.37734  -0.37449  -0.37225  -0.36392
 Alpha  occ. eigenvalues --   -0.35384  -0.34810  -0.32836  -0.31470  -0.29726
 Alpha  occ. eigenvalues --   -0.22027  -0.21460  -0.20160
 Alpha virt. eigenvalues --    0.04028   0.07084   0.10339   0.11255   0.12769
 Alpha virt. eigenvalues --    0.13208   0.13952   0.14387   0.15222   0.15691
 Alpha virt. eigenvalues --    0.16177   0.16814   0.17108   0.17445   0.18033

 Mulliken charges:
               1
     1  N   -0.398691
     2  C    0.525267
     3  N   -0.425492
     4  C    0.189119
     5  C   -0.426046
     6  C   -0.432063
     7  C   -0.441526
     8  N   -0.405463
     9  C   -0.296470
    10  C   -0.293786
    11  C   -0.307235
    12  C   -0.300346
    13  H    0.146010
    14  H    0.136511
    15  H    0.125514
    16  H    0.147212
    17  H    0.129683
    18  H    0.144892
    19  H    0.160018
    20  H    0.157001
    21  H    0.145306
    22  H    0.159782
    23  H    0.140118
    24  H    0.122883
    25  H    0.152089
    26  H    0.113154
    27  H    0.135124
    28  H    0.174919
    29  H    0.129696
    30  H    0.137855
    31  H    0.180810
    32  H    0.134902
    33  H    0.139250
 Sum of Mulliken charges =  -0.00000

 Dipole moment (field-independent basis, Debye):
    X=             -0.0431    Y=             -1.1398    Z=             -0.3622  Tot=              1.1967
 Quadrupole moment (field-independent basis, Debye-Ang):
   XX=            -74.9259   YY=            -74.9285   ZZ=            -77.9277
   XY=             -0.2924   XZ=              0.3604   YZ=             -0.3627

 Summary of Natural Population Analysis:

                                       Natural Population
                Natural  -----------------------------------------------
    Atom  No    Charge         Core      Valence    Rydberg      Total
 -----------------------------------------------------------------------
      N    1   -0.45661      1.99935     5.44468    0.01258     7.45661
      C    2    0.37823      1.99913     3.58836    0.03428     5.62177
      N    3   -0.33329      1.99898     5.31516    0.01915     7.33329
      C    4    0.09787      1.99908     3.88405    0.01901     5.90213
      C    5   -0.67639      1.99935     4.66657    0.01047     6.67639
      C    6   -0.66530      1.99935     4.65563    0.01032     6.66530
      C    7   -0.66111      1.99931     4.65233    0.00947     6.66111
      N    8   -0.49702      1.99939     5.48377    0.01386     7.49702
      C    9   -0.46743      1.99949     4.45529    0.01265     6.46743
      C   10   -0.46049      1.99946     4.44880    0.01223     6.46049
      C   11   -0.46580      1.99946     4.45405    0.01230     6.46580
      C   12   -0.46964      1.99946     4.45743    0.01275     6.46964
      H   13    0.23744      0.00000     0.76113    0.00143     0.76256
      H   14    0.22197      0.00000     0.77711    0.00092     0.77803
      H   15    0.22114      0.00000     0.77709    0.00177     0.77886
      H   16    0.23511      0.00000     0.76368    0.00121     0.76489
      H   17    0.22188      0.00000     0.77655    0.00158     0.77812
      H   18    0.23363      0.00000     0.76517    0.00120     0.76637
      H   19    0.23575      0.00000     0.76317    0.00107     0.76425
      H   20    0.24187      0.00000     0.75707    0.00105     0.75813
      H   21    0.23711      0.00000     0.76152    0.00137     0.76289
      H   22    0.23466      0.00000     0.76446    0.00088     0.76534
      H   23    0.22153      0.00000     0.77750    0.00097     0.77847
      H   24    0.19239      0.00000     0.80292    0.00469     0.80761
      H   25    0.22285      0.00000     0.77626    0.00090     0.77715
      H   26    0.18699      0.00000     0.80649    0.00652     0.81301
      H   27    0.21401      0.00000     0.78373    0.00226     0.78599
      H   28    0.23566      0.00000     0.76344    0.00090     0.76434
      H   29    0.20601      0.00000     0.79021    0.00378     0.79399
      H   30    0.20624      0.00000     0.79191    0.00186     0.79376
      H   31    0.25077      0.00000     0.74821    0.00102     0.74923
      H   32    0.20940      0.00000     0.78805    0.00254     0.79060
      H   33    0.21058      0.00000     0.78739    0.00203     0.78942
 =======================================================================
   * Total *   -0.00000     23.99182    71.78917    0.21901    96.00000

 Normal termination of Gaussian 16 at Mon Aug 24 16:20:15 2020.
