 Gaussian 16, Revision A.03,

 ---------------------------------
 # opt=CalcAll B3LYP/6-31G* scf=qc
 ---------------------------------

 -------------------
 Title Card Required
 -------------------
 Symbolic Z-matrix:
 Charge =  0 Multiplicity = 1

 SCF Done:  E(RB3LYP) =  -292.408681835     a.u. after    7 cycles
 SCF Done:  E(RB3LYP) =  -292.414252854     a.u. after   13 cycles
 SCF Done:  E(RB3LYP) =  -292.414971721     a.u. after    9 cycles
 SCF Done:  E(RB3LYP) =  -292.415023696     a.u. after    5 cycles
 SCF Done:  E(RB3LYP) =  -292.415024209     a.u. after    2 cycles
 Optimization completed.
    -- Stationary point found.
 Normal termination of Gaussian 16 at Mon Aug 24 16:23:44 2020.

 ----------------------------------------------------------------------
 # freq B3LYP/6-31G* scf=qc volume NMR pop=NPA density=current Geom=All
 Check Guess=Read
 ----------------------------------------------------------------------

 Structure from the checkpoint file:  "base_4_conf102.chk"
 -------------------
 Title Card Required
 -------------------
 Charge =  0 Multiplicity = 1

 SCF Done:  E(RB3LYP) =  -292.415024209     a.u. after    1 cycles

      1  C    Isotropic =   175.1355   Anisotropy =    21.4841

      2  C    Isotropic =   148.8035   Anisotropy =    38.4516

      3  N    Isotropic =   209.4972   Anisotropy =    51.2923

      4  C    Isotropic =   142.7793   Anisotropy =    45.7145

      5  C    Isotropic =   183.5649   Anisotropy =     9.3553

      6  C    Isotropic =   140.3255   Anisotropy =    50.0992

      7  C    Isotropic =   174.2601   Anisotropy =    22.6578

      8  H    Isotropic =    31.2847   Anisotropy =     9.6547

      9  H    Isotropic =    31.2103   Anisotropy =     8.4078

     10  H    Isotropic =    30.9047   Anisotropy =     6.7899

     11  H    Isotropic =    29.7201   Anisotropy =     5.7252

     12  H    Isotropic =    29.5670   Anisotropy =     6.1822

     13  H    Isotropic =    29.0015   Anisotropy =     6.3251

     14  H    Isotropic =    29.5519   Anisotropy =     7.4602

     15  H    Isotropic =    30.9216   Anisotropy =     6.9678

     16  H    Isotropic =    31.8906   Anisotropy =     9.8890

     17  H    Isotropic =    31.2851   Anisotropy =     7.4133

     18  H    Isotropic =    29.4679   Anisotropy =     6.1116

     19  H    Isotropic =    29.7382   Anisotropy =     6.4255

     20  H    Isotropic =    31.0257   Anisotropy =     6.5892

     21  H    Isotropic =    31.3731   Anisotropy =     9.7883

     22  H    Isotropic =    31.1521   Anisotropy =     8.1398

  Exact polarizability:  78.759  -0.509  74.539  -0.992  -1.426  63.603
 Approx polarizability:  97.554  -0.965  96.056  -1.570  -2.954  92.750

                      1                      2                      3
                      A                      A                      A
 Frequencies --     49.0505                83.9432               116.2494
 Red. masses --      2.1818                 1.7928                 1.9794
 Frc consts  --      0.0031                 0.0074                 0.0158
 IR Inten    --      0.0683                 0.2007                 0.2123

                      4                      5                      6
                      A                      A                      A
 Frequencies --    187.2372               222.5624               236.1129
 Red. masses --      1.5329                 1.1241                 1.1527
 Frc consts  --      0.0317                 0.0328                 0.0379
 IR Inten    --      1.3865                 0.0432                 0.0170

                      7                      8                      9
                      A                      A                      A
 Frequencies --    283.7903               305.0983               340.5631
 Red. masses --      2.0336                 1.6581                 2.4758
 Frc consts  --      0.0965                 0.0909                 0.1692
 IR Inten    --      0.1961                 1.1282                 0.6804

                     10                     11                     12
                      A                      A                      A
 Frequencies --    420.0084               477.4301               531.2714
 Red. masses --      2.1483                 2.4629                 2.5681
 Frc consts  --      0.2233                 0.3308                 0.4271
 IR Inten    --      1.9936                 2.2793                 6.3049

                     13                     14                     15
                      A                      A                      A
 Frequencies --    742.3687               789.6032               808.7132
 Red. masses --      2.5635                 1.1458                 1.1512
 Frc consts  --      0.8324                 0.4209                 0.4436
 IR Inten    --      8.3237                 4.0498                 2.4146

                     16                     17                     18
                      A                      A                      A
 Frequencies --    820.5478               915.2248               934.4838
 Red. masses --      1.1452                 2.0606                 1.9385
 Frc consts  --      0.4543                 1.0169                 0.9974
 IR Inten    --      1.7292                 1.4868                 1.1560

                     19                     20                     21
                      A                      A                      A
 Frequencies --   1012.8965              1070.8652              1093.8924
 Red. masses --      2.5856                 2.3141                 2.5744
 Frc consts  --      1.5629                 1.5635                 1.8150
 IR Inten    --      8.3689                 7.2760                32.4294

                     22                     23                     24
                      A                      A                      A
 Frequencies --   1097.9148              1116.9654              1127.6869
 Red. masses --      1.6641                 1.7092                 1.7624
 Frc consts  --      1.1818                 1.2564                 1.3205
 IR Inten    --      1.7453                 7.0039                28.5127

                     25                     26                     27
                      A                      A                      A
 Frequencies --   1168.7906              1246.0754              1254.8023
 Red. masses --      1.7038                 2.0723                 2.3188
 Frc consts  --      1.3713                 1.8958                 2.1511
 IR Inten    --      9.6258                15.4177                24.6876

                     28                     29                     30
                      A                      A                      A
 Frequencies --   1329.9633              1340.1678              1385.1661
 Red. masses --      1.1067                 1.1973                 1.2758
 Frc consts  --      1.1533                 1.2670                 1.4422
 IR Inten    --      1.1182                26.2400                12.4450

                     31                     32                     33
                      A                      A                      A
 Frequencies --   1400.1361              1415.3870              1427.9508
 Red. masses --      1.2718                 1.3083                 1.2325
 Frc consts  --      1.4690                 1.5443                 1.4807
 IR Inten    --     18.7391                11.3554                 0.1098

                     34                     35                     36
                      A                      A                      A
 Frequencies --   1430.7990              1442.0424              1445.6513
 Red. masses --      1.2590                 1.3136                 1.3722
 Frc consts  --      1.5186                 1.6095                 1.6897
 IR Inten    --     14.6255                19.2653                15.7493

                     37                     38                     39
                      A                      A                      A
 Frequencies --   1509.2852              1517.5447              1519.8747
 Red. masses --      1.0618                 1.0508                 1.0524
 Frc consts  --      1.4251                 1.4258                 1.4323
 IR Inten    --      2.7189                 3.8831                 0.9458

                     40                     41                     42
                      A                      A                      A
 Frequencies --   1524.5542              1527.5694              1531.2994
 Red. masses --      1.0511                 1.0434                 1.0471
 Frc consts  --      1.4394                 1.4346                 1.4466
 IR Inten    --      1.4921                 3.0333                 0.8110

                     43                     44                     45
                      A                      A                      A
 Frequencies --   1538.1625              1541.3275              1553.5406
 Red. masses --      1.0545                 1.0810                 1.0858
 Frc consts  --      1.4699                 1.5131                 1.5440
 IR Inten    --      2.2616                 8.2898                 0.8347

                     46                     47                     48
                      A                      A                      A
 Frequencies --   2930.1103              2938.1563              3044.9870
 Red. masses --      1.0743                 1.0734                 1.0626
 Frc consts  --      5.4344                 5.4594                 5.8050
 IR Inten    --     24.1146               123.4447                27.2291

                     49                     50                     51
                      A                      A                      A
 Frequencies --   3049.1741              3051.3306              3053.5650
 Red. masses --      1.0357                 1.0363                 1.0391
 Frc consts  --      5.6736                 5.6850                 5.7086
 IR Inten    --     24.5258                19.7895                21.5190

                     52                     53                     54
                      A                      A                      A
 Frequencies --   3066.7263              3082.9620              3085.0755
 Red. masses --      1.0865                 1.0933                 1.0920
 Frc consts  --      6.0205                 6.1223                 6.1238
 IR Inten    --     22.3991                25.2751                13.1466

                     55                     56                     57
                      A                      A                      A
 Frequencies --   3112.9844              3115.0259              3118.8779
 Red. masses --      1.1011                 1.1010                 1.1002
 Frc consts  --      6.2870                 6.2943                 6.3056
 IR Inten    --     33.1729                22.6262                77.3559

                     58                     59                     60
                      A                      A                      A
 Frequencies --   3122.1674              3128.5643              3129.9282
 Red. masses --      1.1027                 1.1032                 1.1030
 Frc consts  --      6.3331                 6.3619                 6.3662
 IR Inten    --     39.3240                47.0202                36.2271

 - Thermochemistry -
 -------------------
 Temperature   298.150 Kelvin.  Pressure   1.00000 Atm.
 Atom     1 has atomic number  6 and mass  12.00000

 Molecular mass:   101.12045 amu.
 Principal axes and moments of inertia in atomic units:
                           1         2         3
     Eigenvalues --   665.92682 879.885931349.84468
           X            0.99999   0.00362  -0.00019
           Y           -0.00362   0.99998   0.00429
           Z            0.00021  -0.00428   0.99999
 This molecule is an asymmetric top.
 Rotational symmetry number  1.
 Warning -- assumption of classical behavior for rotation
           may cause significant error
 Rotational temperatures (Kelvin)      0.13007     0.09844     0.06417
 Rotational constants (GHZ):           2.71012     2.05111     1.33700
 Zero-point vibrational energy     543488.6 (Joules/Mol)
                                  129.89690 (Kcal/Mol)
 Warning -- explicit consideration of  12 degrees of freedom as
           vibrations may cause significant error
 Vibrational temperatures:     70.57   120.78   167.26   269.39   320.22
          (Kelvin)            339.71   408.31   438.97   489.99   604.30
                              686.92   764.38  1068.10  1136.06  1163.56
                             1180.59  1316.80  1344.51  1457.33  1540.74
                             1573.87  1579.65  1607.06  1622.49  1681.63
                             1792.82  1805.38  1913.52  1928.20  1992.95
                             2014.48  2036.43  2054.50  2058.60  2074.78
                             2079.97  2171.52  2183.41  2186.76  2193.49
                             2197.83  2203.20  2213.07  2217.63  2235.20
                             4215.78  4227.35  4381.06  4387.08  4390.18
                             4393.40  4412.34  4435.69  4438.74  4478.89
                             4481.83  4487.37  4492.10  4501.31  4503.27

 Zero-point correction=                           0.207004 (Hartree/Particle)
 Thermal correction to Energy=                    0.216454
 Thermal correction to Enthalpy=                  0.217398
 Thermal correction to Gibbs Free Energy=         0.172763
 Sum of electronic and zero-point Energies=           -292.208020
 Sum of electronic and thermal Energies=              -292.198570
 Sum of electronic and thermal Enthalpies=            -292.197626
 Sum of electronic and thermal Free Energies=         -292.242261

                     E (Thermal)             CV                S
                      KCal/Mol        Cal/Mol-Kelvin    Cal/Mol-Kelvin
 Total                  135.827             33.661             93.943
 Electronic               0.000              0.000              0.000
 Translational            0.889              2.981             39.751
 Rotational               0.889              2.981             28.161
 Vibrational            134.050             27.700             26.032
 Vibration     1          0.595              1.978              4.855
 Vibration     2          0.601              1.960              3.796
 Vibration     3          0.608              1.936              3.162
 Vibration     4          0.632              1.857              2.255
 Vibration     5          0.648              1.807              1.938
 Vibration     6          0.655              1.785              1.832
 Vibration     7          0.682              1.704              1.511
 Vibration     8          0.696              1.664              1.389
 Vibration     9          0.720              1.594              1.210
 Vibration    10          0.783              1.427              0.892
 Vibration    11          0.834              1.300              0.717
 Vibration    12          0.886              1.181              0.584

 Optimization completed.
    -- Stationary point found.
 Normal termination of Gaussian 16 at Mon Aug 24 16:26:37 2020.
 Gaussian 16:  ES64L-G16RevA.03 25-Dec-2016

 ----------------------------------------------------------------------
 # TD(NStates=10, Root=1) B3LYP/6-31G* scf=qc volume pop=NPA density=cu
 rrent Geom=AllCheck Guess=Read
 ----------------------------------------------------------------------

 Structure from the checkpoint file:  "base_4_conf103.chk"
 -------------------
 Title Card Required
 -------------------
 Charge =  0 Multiplicity = 1

                         Standard orientation:
 ---------------------------------------------------------------------
 Center     Atomic      Atomic             Coordinates (Angstroms)
 Number     Number       Type             X           Y           Z
 ---------------------------------------------------------------------
      1          6           0       -1.221035    2.099434    0.143915
      2          6           0       -0.255784    1.122875   -0.531776
      3          7           0        0.147209    0.007953    0.328627
      4          6           0       -0.944852   -0.893139    0.711337
      5          6           0       -1.622075   -1.697910   -0.413539
      6          6           0        1.327415   -0.698538   -0.179774
      7          6           0        2.634515    0.053939    0.087556
      8          1           0       -1.377328    2.975156   -0.496312
      9          1           0       -0.812188    2.437887    1.101959
     10          1           0       -2.204037    1.654269    0.331439
     11          1           0        0.653483    1.672659   -0.796407
     12          1           0       -0.689453    0.777285   -1.490788
     13          1           0       -1.703911   -0.303197    1.237370
     14          1           0       -0.538711   -1.590912    1.454801
     15          1           0       -2.098753   -1.046762   -1.154685
     16          1           0       -2.401158   -2.345931    0.005341
     17          1           0       -0.905500   -2.337739   -0.941020
     18          1           0        1.247294   -0.925745   -1.260404
     19          1           0        1.376989   -1.666918    0.332605
     20          1           0        2.674436    1.015818   -0.435061
     21          1           0        3.490787   -0.539440   -0.254609
     22          1           0        2.748481    0.247930    1.159063
 ---------------------------------------------------------------------

 SCF Done:  E(RB3LYP) =  -292.415024209     a.u. after    1 cycles

 Excitation energies and oscillator strengths:

 Excited State   1:      Singlet-A      6.6337 eV  186.90 nm  f=0.0158  <S**2>=0.000
      29 -> 30         0.70442
 This state for optimization and/or second-order correction.
 Total Energy, E(TD-HF/TD-DFT) =  -292.171239211
 Copying the excited state density for this state as the 1-particle RhoCI density.

 Excited State   2:      Singlet-A      7.2807 eV  170.29 nm  f=0.0146  <S**2>=0.000
      29 -> 31         0.69937

 Excited State   3:      Singlet-A      7.6209 eV  162.69 nm  f=0.0026  <S**2>=0.000
      29 -> 32         0.68342
      29 -> 33        -0.15834

 Excited State   4:      Singlet-A      7.8989 eV  156.96 nm  f=0.0230  <S**2>=0.000
      29 -> 32         0.16296
      29 -> 33         0.68285

 Excited State   5:      Singlet-A      8.4655 eV  146.46 nm  f=0.0098  <S**2>=0.000
      29 -> 34         0.68235
      29 -> 36         0.14568

 Excited State   6:      Singlet-A      8.5415 eV  145.15 nm  f=0.0302  <S**2>=0.000
      29 -> 35         0.59831
      29 -> 36        -0.35428

 Excited State   7:      Singlet-A      8.6081 eV  144.03 nm  f=0.0276  <S**2>=0.000
      29 -> 34        -0.14534
      29 -> 35         0.35732
      29 -> 36         0.57215

 Excited State   8:      Singlet-A      8.9282 eV  138.87 nm  f=0.0007  <S**2>=0.000
      29 -> 36         0.10607
      29 -> 37         0.66835
      29 -> 38        -0.15508

 Excited State   9:      Singlet-A      9.0620 eV  136.82 nm  f=0.0456  <S**2>=0.000
      29 -> 37         0.14513
      29 -> 38         0.68241

 Excited State  10:      Singlet-A      9.3862 eV  132.09 nm  f=0.0251  <S**2>=0.000
      29 -> 39         0.65593
      29 -> 40        -0.22903

 The electronic state is 1-A.
 Alpha  occ. eigenvalues --  -14.31155 -10.20078 -10.20004 -10.19986 -10.17003
 Alpha  occ. eigenvalues --  -10.16970 -10.16844  -0.90778  -0.75315  -0.74949
 Alpha  occ. eigenvalues --   -0.69921  -0.62911  -0.61327  -0.54657  -0.48009
 Alpha  occ. eigenvalues --   -0.46738  -0.44426  -0.43130  -0.40893  -0.39265
 Alpha  occ. eigenvalues --   -0.38731  -0.36998  -0.36430  -0.35690  -0.34626
 Alpha  occ. eigenvalues --   -0.33711  -0.32752  -0.31909  -0.19847
 Alpha virt. eigenvalues --    0.08284   0.10653   0.11980   0.12923   0.15086
 Alpha virt. eigenvalues --    0.15518   0.15747   0.16379   0.16847   0.18091
 Alpha virt. eigenvalues --    0.18534   0.19455   0.20528   0.21225   0.21830

 Mulliken charges:
               1
     1  C   -0.423036
     2  C   -0.073935
     3  N   -0.194333
     4  C   -0.096166
     5  C   -0.352609
     6  C   -0.091163
     7  C   -0.448886
     8  H    0.124376
     9  H    0.130556
    10  H    0.103350
    11  H    0.073233
    12  H    0.124423
    13  H    0.119621
    14  H    0.071726
    15  H    0.072305
    16  H    0.094689
    17  H    0.089537
    18  H    0.143417
    19  H    0.098441
    20  H    0.144061
    21  H    0.139792
    22  H    0.150601
 Sum of Mulliken charges =  -0.00000

 Dipole moment (field-independent basis, Debye):
    X=              1.4328    Y=              0.4077    Z=              0.2298  Tot=              1.5074
 Quadrupole moment (field-independent basis, Debye-Ang):
   XX=            -51.6244   YY=            -52.9854   ZZ=            -49.5794
   XY=             -1.0343   XZ=             -0.7667   YZ=              0.2601

 Summary of Natural Population Analysis:

                                       Natural Population
                Natural  -----------------------------------------------
    Atom  No    Charge         Core      Valence    Rydberg      Total
 -----------------------------------------------------------------------
      C    1   -0.70337      1.99945     4.69214    0.01178     6.70337
      C    2   -0.31793      1.99929     4.30077    0.01787     6.31793
      N    3   -0.03195      1.99932     5.02341    0.00923     7.03195
      C    4   -0.31560      1.99933     4.29681    0.01947     6.31560
      C    5   -0.68868      1.99940     4.67775    0.01153     6.68868
      C    6   -0.31585      1.99931     4.29945    0.01709     6.31585
      C    7   -0.69628      1.99944     4.68572    0.01112     6.69628
      H    8    0.21926      0.00000     0.76965    0.01109     0.78074
      H    9    0.22035      0.00000     0.77207    0.00758     0.77965
      H   10    0.19050      0.00000     0.78326    0.02625     0.80950
      H   11    0.17462      0.00000     0.79129    0.03410     0.82538
      H   12    0.21946      0.00000     0.74397    0.03657     0.78054
      H   13    0.21055      0.00000     0.76438    0.02507     0.78945
      H   14    0.17464      0.00000     0.78777    0.03759     0.82536
      H   15    0.17322      0.00000     0.79115    0.03563     0.82678
      H   16    0.19709      0.00000     0.78083    0.02208     0.80291
      H   17    0.18685      0.00000     0.78804    0.02511     0.81315
      H   18    0.23159      0.00000     0.74215    0.02626     0.76841
      H   19    0.19670      0.00000     0.76876    0.03453     0.80330
      H   20    0.21850      0.00000     0.77063    0.01087     0.78150
      H   21    0.22615      0.00000     0.76531    0.00854     0.77385
      H   22    0.23019      0.00000     0.76501    0.00480     0.76981
 =======================================================================
   * Total *   -0.00000     13.99553    43.56034    0.44413    58.00000

 Normal termination of Gaussian 16 at Mon Aug 24 16:31:05 2020.
