 Gaussian 16, Revision A.03,

 ---------------------------------
 # opt=CalcAll B3LYP/6-31G* scf=qc
 ---------------------------------

 -------------------
 Title Card Required
 -------------------
 Symbolic Z-matrix:
 Charge =  0 Multiplicity = 1

 SCF Done:  E(RB3LYP) =  -478.119920032     a.u. after    8 cycles
 SCF Done:  E(RB3LYP) =  -478.129509570     a.u. after   13 cycles
 SCF Done:  E(RB3LYP) =  -478.131487550     a.u. after   11 cycles
 SCF Done:  E(RB3LYP) =  -478.131974850     a.u. after   11 cycles
 SCF Done:  E(RB3LYP) =  -478.132027704     a.u. after    4 cycles
 SCF Done:  E(RB3LYP) =  -478.132030078     a.u. after    3 cycles
 Optimization completed.
    -- Stationary point found.
 Normal termination of Gaussian 16 at Mon Aug 24 16:28:10 2020.

 ----------------------------------------------------------------------
 # freq B3LYP/6-31G* scf=qc volume NMR pop=NPA density=current Geom=All
 Check Guess=Read
 ----------------------------------------------------------------------

 Structure from the checkpoint file:  "base_8_conf12.chk"
 -------------------
 Title Card Required
 -------------------
 Charge =  0 Multiplicity = 1

 SCF Done:  E(RB3LYP) =  -478.132030078     a.u. after    1 cycles

      1  N    Isotropic =   179.7886   Anisotropy =    44.8341

      2  C    Isotropic =   140.3056   Anisotropy =    36.6437

      3  C    Isotropic =   164.8958   Anisotropy =     5.5219

      4  C    Isotropic =   144.4956   Anisotropy =    27.5658

      5  N    Isotropic =    79.5291   Anisotropy =   261.3490

      6  C    Isotropic =    49.9134   Anisotropy =    94.0139

      7  N    Isotropic =   184.8094   Anisotropy =    66.0595

      8  C    Isotropic =   152.3531   Anisotropy =    46.9029

      9  C    Isotropic =   140.9612   Anisotropy =    35.4082

     10  C    Isotropic =   164.8206   Anisotropy =     7.6769

     11  C    Isotropic =   139.7366   Anisotropy =    37.8339

     12  H    Isotropic =    29.1516   Anisotropy =     7.7736

     13  H    Isotropic =    29.6173   Anisotropy =     6.6283

     14  H    Isotropic =    30.7882   Anisotropy =     8.9534

     15  H    Isotropic =    30.2698   Anisotropy =     7.4251

     16  H    Isotropic =    28.7576   Anisotropy =     7.9092

     17  H    Isotropic =    28.7709   Anisotropy =     7.6493

     18  H    Isotropic =    28.4652   Anisotropy =     8.1554

     19  H    Isotropic =    30.5531   Anisotropy =     8.5404

     20  H    Isotropic =    29.8138   Anisotropy =     9.4487

     21  H    Isotropic =    29.1236   Anisotropy =     7.9212

     22  H    Isotropic =    29.4506   Anisotropy =     7.1111

     23  H    Isotropic =    30.7794   Anisotropy =     9.2683

     24  H    Isotropic =    29.9745   Anisotropy =     7.3574

     25  H    Isotropic =    29.1403   Anisotropy =     7.7515

     26  H    Isotropic =    29.6143   Anisotropy =     6.6067

  Exact polarizability: 124.678  -3.766 106.907  -0.354  -0.578  75.791
 Approx polarizability: 160.568 -10.763 150.561  -2.717  -0.061 116.882

                      1                      2                      3
                      A                      A                      A
 Frequencies --     81.1071               103.7325               140.7633
 Red. masses --      2.6201                 2.0540                 1.7107
 Frc consts  --      0.0102                 0.0130                 0.0200
 IR Inten    --      0.4163                 0.3111                 4.2275

                      4                      5                      6
                      A                      A                      A
 Frequencies --    151.7350               185.6434               242.8603
 Red. masses --      1.6620                 3.4394                 2.9032
 Frc consts  --      0.0225                 0.0698                 0.1009
 IR Inten    --      5.0900                 4.9296                 1.7869

                      7                      8                      9
                      A                      A                      A
 Frequencies --    308.5992               331.0241               333.4757
 Red. masses --      2.1859                 2.1375                 1.8953
 Frc consts  --      0.1226                 0.1380                 0.1242
 IR Inten    --      2.3844                 3.0663                 5.9913

                     10                     11                     12
                      A                      A                      A
 Frequencies --    419.4849               448.1262               490.4780
 Red. masses --      3.3293                 3.8548                 4.1697
 Frc consts  --      0.3452                 0.4561                 0.5910
 IR Inten    --      0.2009                 5.3478                 6.8856

                     13                     14                     15
                      A                      A                      A
 Frequencies --    497.6557               586.6153               616.6960
 Red. masses --      3.2899                 2.2987                 2.2851
 Frc consts  --      0.4801                 0.4661                 0.5120
 IR Inten    --      0.1983                 0.4910                 4.2960

                     16                     17                     18
                      A                      A                      A
 Frequencies --    707.9382               717.3487               861.8501
 Red. masses --      4.1029                 6.8229                 2.2893
 Frc consts  --      1.2115                 2.0686                 1.0019
 IR Inten    --      9.9938                18.6632                 3.1368

                     19                     20                     21
                      A                      A                      A
 Frequencies --    891.5136               904.9176               916.6807
 Red. masses --      2.2429                 1.4375                 2.3414
 Frc consts  --      1.0503                 0.6936                 1.1592
 IR Inten    --      7.7187                 1.4907                 2.0058

                     22                     23                     24
                      A                      A                      A
 Frequencies --    924.7179               944.6060              1006.0452
 Red. masses --      1.3752                 2.3463                 2.2799
 Frc consts  --      0.6929                 1.2335                 1.3595
 IR Inten    --      0.2494                 0.0885                 4.3087

                     25                     26                     27
                      A                      A                      A
 Frequencies --   1030.6677              1073.9276              1098.9774
 Red. masses --      1.9194                 2.1300                 3.2355
 Frc consts  --      1.2013                 1.4474                 2.3024
 IR Inten    --      9.7193                15.4159                14.9968

                     28                     29                     30
                      A                      A                      A
 Frequencies --   1127.7177              1135.6860              1145.7367
 Red. masses --      1.7526                 1.8843                 1.6189
 Frc consts  --      1.3132                 1.4319                 1.2521
 IR Inten    --      9.0080                 3.6724                10.6312

                     31                     32                     33
                      A                      A                      A
 Frequencies --   1169.0592              1206.5705              1216.7308
 Red. masses --      1.5045                 1.8812                 1.8867
 Frc consts  --      1.2115                 1.6136                 1.6457
 IR Inten    --     24.8458                 5.2097                28.4825

                     34                     35                     36
                      A                      A                      A
 Frequencies --   1245.8614              1249.0244              1254.1645
 Red. masses --      1.7035                 1.2433                 1.5892
 Frc consts  --      1.5578                 1.1428                 1.4728
 IR Inten    --     21.0184                 2.4329                30.7932

                     37                     38                     39
                      A                      A                      A
 Frequencies --   1273.3571              1307.7268              1319.5581
 Red. masses --      1.8823                 1.5756                 1.3683
 Frc consts  --      1.7982                 1.5876                 1.4037
 IR Inten    --     21.9678                38.2778                33.2103

                     40                     41                     42
                      A                      A                      A
 Frequencies --   1338.3578              1361.3347              1378.1853
 Red. masses --      1.6213                 1.8668                 1.4359
 Frc consts  --      1.7110                 2.0384                 1.6069
 IR Inten    --     82.0850                63.5906                11.8997

                     43                     44                     45
                      A                      A                      A
 Frequencies --   1393.2501              1404.3767              1413.9478
 Red. masses --      1.4007                 1.4769                 1.5321
 Frc consts  --      1.6020                 1.7162                 1.8047
 IR Inten    --      5.1913                29.9283                95.9190

                     46                     47                     48
                      A                      A                      A
 Frequencies --   1442.3986              1464.3820              1484.1887
 Red. masses --      1.4801                 1.3868                 1.4715
 Frc consts  --      1.8143                 1.7522                 1.9098
 IR Inten    --     31.3861                17.6950                99.5449

                     49                     50                     51
                      A                      A                      A
 Frequencies --   1506.8870              1510.8398              1513.0299
 Red. masses --      1.0991                 1.1054                 1.1016
 Frc consts  --      1.4704                 1.4867                 1.4858
 IR Inten    --      5.2682                 3.0474                 5.8792

                     52                     53                     54
                      A                      A                      A
 Frequencies --   1526.3248              1535.6829              1540.2813
 Red. masses --      1.1057                 1.0695                 1.0882
 Frc consts  --      1.5177                 1.4861                 1.5210
 IR Inten    --      6.1059                 1.5936                17.3244

                     55                     56                     57
                      A                      A                      A
 Frequencies --   1555.6680              1562.8634              1702.4302
 Red. masses --      1.1062                 1.1961                 6.8556
 Frc consts  --      1.5773                 1.7213                11.7067
 IR Inten    --     11.1450                37.7047               373.9429

                     58                     59                     60
                      A                      A                      A
 Frequencies --   2938.7105              2947.0231              2959.7999
 Red. masses --      1.0746                 1.0740                 1.0737
 Frc consts  --      5.4676                 5.4957                 5.5418
 IR Inten    --     19.3925               123.7550                79.2563

                     61                     62                     63
                      A                      A                      A
 Frequencies --   2989.7796              3005.7223              3038.3671
 Red. masses --      1.0731                 1.0551                 1.0828
 Frc consts  --      5.6517                 5.6164                 5.8895
 IR Inten    --     85.6786                83.5477                30.1039

                     64                     65                     66
                      A                      A                      A
 Frequencies --   3050.4666              3053.8977              3062.6551
 Red. masses --      1.0773                 1.0780                 1.0786
 Frc consts  --      5.9063                 5.9236                 5.9608
 IR Inten    --     44.0973                17.5341                48.7212

                     67                     68                     69
                      A                      A                      A
 Frequencies --   3065.3752              3076.9021              3090.9759
 Red. masses --      1.0744                 1.0827                 1.0860
 Frc consts  --      5.9483                 6.0395                 6.1130
 IR Inten    --     71.4985                41.7452                59.2881

                     70                     71                     72
                      A                      A                      A
 Frequencies --   3094.7448              3109.7397              3184.4542
 Red. masses --      1.1059                 1.1062                 1.0962
 Frc consts  --      6.2403                 6.3026                 6.5493
 IR Inten    --     47.6593                35.0483                 5.6375

 - Thermochemistry -
 -------------------
 Temperature   298.150 Kelvin.  Pressure   1.00000 Atm.
 Atom     1 has atomic number  7 and mass  14.00307

 Molecular mass:   153.12660 amu.
 Principal axes and moments of inertia in atomic units:
                           1         2         3
     Eigenvalues --  1034.008931709.256362613.17408
           X            0.99988   0.01532   0.00165
           Y           -0.01532   0.99988  -0.00165
           Z           -0.00168   0.00162   1.00000
 This molecule is an asymmetric top.
 Rotational symmetry number  1.
 Warning -- assumption of classical behavior for rotation
           may cause significant error
 Rotational temperatures (Kelvin)      0.08377     0.05067     0.03315
 Rotational constants (GHZ):           1.74538     1.05586     0.69063
 Zero-point vibrational energy     615905.9 (Joules/Mol)
                                  147.20504 (Kcal/Mol)
 Warning -- explicit consideration of  15 degrees of freedom as
           vibrations may cause significant error
 Vibrational temperatures:    116.69   149.25   202.53   218.31   267.10
          (Kelvin)            349.42   444.01   476.27   479.80   603.55
                              644.75   705.69   716.02   844.01   887.29
                             1018.57  1032.10  1240.01  1282.69  1301.97
                             1318.90  1330.46  1359.08  1447.47  1482.90
                             1545.14  1581.18  1622.53  1634.00  1648.46
                             1682.02  1735.99  1750.60  1792.52  1797.07
                             1804.46  1832.08  1881.53  1898.55  1925.60
                             1958.66  1982.90  2004.58  2020.58  2034.36
                             2075.29  2106.92  2135.42  2168.07  2173.76
                             2176.91  2196.04  2209.51  2216.12  2238.26
                             2248.61  2449.42  4228.15  4240.11  4258.49
                             4301.63  4324.56  4371.53  4388.94  4393.88
                             4406.48  4410.39  4426.98  4447.22  4452.65
                             4474.22  4581.72

 Zero-point correction=                           0.234586 (Hartree/Particle)
 Thermal correction to Energy=                    0.244748
 Thermal correction to Enthalpy=                  0.245692
 Thermal correction to Gibbs Free Energy=         0.199189
 Sum of electronic and zero-point Energies=           -477.897444
 Sum of electronic and thermal Energies=              -477.887282
 Sum of electronic and thermal Enthalpies=            -477.886338
 Sum of electronic and thermal Free Energies=         -477.932841

                     E (Thermal)             CV                S
                      KCal/Mol        Cal/Mol-Kelvin    Cal/Mol-Kelvin
 Total                  153.582             39.280             97.873
 Electronic               0.000              0.000              0.000
 Translational            0.889              2.981             40.988
 Rotational               0.889              2.981             29.914
 Vibrational            151.804             33.318             26.971
 Vibration     1          0.600              1.962              3.864
 Vibration     2          0.605              1.946              3.383
 Vibration     3          0.615              1.913              2.793
 Vibration     4          0.619              1.901              2.650
 Vibration     5          0.632              1.859              2.271
 Vibration     6          0.659              1.775              1.782
 Vibration     7          0.698              1.657              1.370
 Vibration     8          0.713              1.614              1.255
 Vibration     9          0.715              1.609              1.243
 Vibration    10          0.782              1.428              0.894
 Vibration    11          0.807              1.365              0.801
 Vibration    12          0.846              1.271              0.682
 Vibration    13          0.853              1.255              0.664
 Vibration    14          0.944              1.060              0.473
 Vibration    15          0.976              0.997              0.422

 Optimization completed.
    -- Stationary point found.
 Normal termination of Gaussian 16 at Mon Aug 24 16:33:18 2020.
 Gaussian 16:  ES64L-G16RevA.03 25-Dec-2016

 ----------------------------------------------------------------------
 # TD(NStates=10, Root=1) B3LYP/6-31G* scf=qc volume pop=NPA density=cu
 rrent Geom=AllCheck Guess=Read
 ----------------------------------------------------------------------

 Structure from the checkpoint file:  "base_8_conf13.chk"
 -------------------
 Title Card Required
 -------------------
 Charge =  0 Multiplicity = 1

                         Standard orientation:
 ---------------------------------------------------------------------
 Center     Atomic      Atomic             Coordinates (Angstroms)
 Number     Number       Type             X           Y           Z
 ---------------------------------------------------------------------
      1          7           0       -0.351785   -0.894362   -0.108306
      2          6           0       -1.725583   -1.288019    0.193371
      3          6           0       -2.698763   -0.266020   -0.381920
      4          6           0       -2.337746    1.115699    0.170732
      5          7           0       -0.920090    1.425510    0.107330
      6          6           0       -0.056918    0.477676   -0.020065
      7          7           0        1.288851    0.827297   -0.189901
      8          6           0        1.621974    2.235801   -0.033982
      9          6           0        2.343434   -0.102654    0.193341
     10          6           0        2.015164   -1.504179   -0.302434
     11          6           0        0.645842   -1.903628    0.227043
     12          1           0       -1.879687   -1.387945    1.283371
     13          1           0       -1.890166   -2.280478   -0.244881
     14          1           0       -3.730447   -0.539614   -0.129665
     15          1           0       -2.611597   -0.266842   -1.475465
     16          1           0       -2.675997    1.193160    1.217151
     17          1           0       -2.886748    1.894021   -0.376540
     18          1           0        0.884555    2.842442   -0.557254
     19          1           0        2.615622    2.405097   -0.462801
     20          1           0        1.632552    2.555208    1.020393
     21          1           0        2.497793   -0.116902    1.289321
     22          1           0        3.280248    0.251064   -0.252143
     23          1           0        2.773754   -2.217683    0.038745
     24          1           0        2.005209   -1.511456   -1.398249
     25          1           0        0.699858   -2.062072    1.320854
     26          1           0        0.321806   -2.855169   -0.213219
 ---------------------------------------------------------------------

 SCF Done:  E(RB3LYP) =  -478.132030078     a.u. after    1 cycles

 Excitation energies and oscillator strengths:

 Excited State   1:      Singlet-A      5.9078 eV  209.87 nm  f=0.0319  <S**2>=0.000
      40 -> 43        -0.23758
      41 -> 43         0.60849
      42 -> 43         0.24444
 This state for optimization and/or second-order correction.
 Total Energy, E(TD-HF/TD-DFT) =  -477.914923386
 Copying the excited state density for this state as the 1-particle RhoCI density.

 Excited State   2:      Singlet-A      6.1041 eV  203.12 nm  f=0.1758  <S**2>=0.000
      41 -> 43        -0.23900
      42 -> 43         0.63960
      42 -> 44        -0.12771

 Excited State   3:      Singlet-A      6.4893 eV  191.06 nm  f=0.0498  <S**2>=0.000
      40 -> 43         0.64024
      41 -> 43         0.25170
      41 -> 44        -0.10786

 Excited State   4:      Singlet-A      6.8756 eV  180.33 nm  f=0.0822  <S**2>=0.000
      42 -> 43         0.11855
      42 -> 44         0.68225

 Excited State   5:      Singlet-A      7.1592 eV  173.18 nm  f=0.0456  <S**2>=0.000
      40 -> 43        -0.10978
      41 -> 44        -0.46306
      42 -> 45         0.49653

 Excited State   6:      Singlet-A      7.2699 eV  170.55 nm  f=0.0178  <S**2>=0.000
      41 -> 44         0.48952
      42 -> 45         0.48542
      42 -> 46         0.10793

 Excited State   7:      Singlet-A      7.5913 eV  163.32 nm  f=0.0190  <S**2>=0.000
      40 -> 44         0.17949
      41 -> 44        -0.12999
      41 -> 45         0.36255
      42 -> 46         0.55349

 Excited State   8:      Singlet-A      7.7278 eV  160.44 nm  f=0.0200  <S**2>=0.000
      41 -> 45         0.56781
      42 -> 46        -0.38748

 Excited State   9:      Singlet-A      7.8085 eV  158.78 nm  f=0.0228  <S**2>=0.000
      40 -> 44         0.64612
      40 -> 45        -0.10231
      41 -> 45        -0.16343
      42 -> 46        -0.10569

 Excited State  10:      Singlet-A      7.8803 eV  157.33 nm  f=0.0232  <S**2>=0.000
      42 -> 47         0.68899

 The electronic state is 1-A.
 Alpha  occ. eigenvalues --  -14.34135 -14.33599 -14.27008 -10.26221 -10.22067
 Alpha  occ. eigenvalues --  -10.21721 -10.21365 -10.19226 -10.19106 -10.19102
 Alpha  occ. eigenvalues --  -10.17642  -0.97828  -0.90518  -0.86593  -0.77773
 Alpha  occ. eigenvalues --   -0.76814  -0.69972  -0.66362  -0.65226  -0.62268
 Alpha  occ. eigenvalues --   -0.57287  -0.51979  -0.50067  -0.49041  -0.46837
 Alpha  occ. eigenvalues --   -0.45545  -0.44250  -0.43227  -0.42196  -0.40949
 Alpha  occ. eigenvalues --   -0.40463  -0.38773  -0.38316  -0.36396  -0.35672
 Alpha  occ. eigenvalues --   -0.34630  -0.34140  -0.32487  -0.31278  -0.22950
 Alpha  occ. eigenvalues --   -0.20884  -0.19132
 Alpha virt. eigenvalues --    0.05047   0.08919   0.10481   0.11982   0.12864
 Alpha virt. eigenvalues --    0.13823   0.14215   0.15619   0.16366   0.16759
 Alpha virt. eigenvalues --    0.17153   0.17895   0.17974   0.18669   0.19150

 Mulliken charges:
               1
     1  N   -0.419051
     2  C   -0.112248
     3  C   -0.291936
     4  C   -0.120731
     5  N   -0.482910
     6  C    0.668123
     7  N   -0.448340
     8  C   -0.288439
     9  C   -0.104711
    10  C   -0.262583
    11  C   -0.106874
    12  H    0.107225
    13  H    0.150597
    14  H    0.148749
    15  H    0.153867
    16  H    0.110580
    17  H    0.154184
    18  H    0.168953
    19  H    0.142965
    20  H    0.129838
    21  H    0.079632
    22  H    0.129154
    23  H    0.129230
    24  H    0.139875
    25  H    0.088115
    26  H    0.136738
 Sum of Mulliken charges =  -0.00000

 Dipole moment (field-independent basis, Debye):
    X=             -0.6872    Y=             -1.2661    Z=             -0.5867  Tot=              1.5555
 Quadrupole moment (field-independent basis, Debye-Ang):
   XX=            -61.9226   YY=            -65.7371   ZZ=            -71.6184
   XY=              1.6381   XZ=              0.5437   YZ=             -0.3391

 Summary of Natural Population Analysis:

                                       Natural Population
                Natural  -----------------------------------------------
    Atom  No    Charge         Core      Valence    Rydberg      Total
 -----------------------------------------------------------------------
      N    1   -0.39647      1.99936     5.38185    0.01526     7.39647
      C    2   -0.25483      1.99933     4.23980    0.01570     6.25483
      C    3   -0.47956      1.99928     4.46826    0.01202     6.47956
      C    4   -0.28778      1.99930     4.27100    0.01749     6.28778
      N    5   -0.37071      1.99903     5.35510    0.01658     7.37071
      C    6    0.39835      1.99923     3.56561    0.03682     5.60165
      N    7   -0.46924      1.99937     5.45509    0.01479     7.46924
      C    8   -0.45817      1.99948     4.44600    0.01269     6.45817
      C    9   -0.25291      1.99932     4.23642    0.01716     6.25291
      C   10   -0.47873      1.99931     4.46684    0.01258     6.47873
      C   11   -0.25750      1.99931     4.24107    0.01712     6.25750
      H   12    0.18924      0.00000     0.79164    0.01913     0.81076
      H   13    0.24516      0.00000     0.75209    0.00275     0.75484
      H   14    0.25138      0.00000     0.74496    0.00366     0.74862
      H   15    0.23890      0.00000     0.75630    0.00480     0.76110
      H   16    0.18970      0.00000     0.79626    0.01405     0.81030
      H   17    0.24904      0.00000     0.74944    0.00152     0.75096
      H   18    0.24021      0.00000     0.75877    0.00101     0.75979
      H   19    0.22222      0.00000     0.77653    0.00126     0.77778
      H   20    0.19736      0.00000     0.79603    0.00660     0.80264
      H   21    0.17073      0.00000     0.80977    0.01950     0.82927
      H   22    0.22888      0.00000     0.76733    0.00379     0.77112
      H   23    0.23981      0.00000     0.75524    0.00495     0.76019
      H   24    0.23286      0.00000     0.76083    0.00631     0.76714
      H   25    0.17821      0.00000     0.79847    0.02332     0.82179
      H   26    0.23388      0.00000     0.76053    0.00559     0.76612
 =======================================================================
   * Total *    0.00000     21.99231    61.70122    0.30646    84.00000

 Normal termination of Gaussian 16 at Mon Aug 24 16:39:24 2020.
