 Gaussian 16, Revision A.03,

 ---------------------------------
 # opt=CalcAll B3LYP/6-31G* scf=qc
 ---------------------------------

 -------------------
 Title Card Required
 -------------------
 Symbolic Z-matrix:
 Charge =  0 Multiplicity = 1

 SCF Done:  E(RB3LYP) =  -519.756212675     a.u. after    9 cycles
 SCF Done:  E(RB3LYP) =  -519.783445094     a.u. after   13 cycles
 SCF Done:  E(RB3LYP) =  -519.798856412     a.u. after   15 cycles
 SCF Done:  E(RB3LYP) =  -519.814750632     a.u. after   13 cycles
 SCF Done:  E(RB3LYP) =  -519.822936410     a.u. after   17 cycles
 SCF Done:  E(RB3LYP) =  -519.826902225     a.u. after   15 cycles
 SCF Done:  E(RB3LYP) =  -519.828395699     a.u. after   15 cycles
 SCF Done:  E(RB3LYP) =  -519.829336245     a.u. after    9 cycles
 SCF Done:  E(RB3LYP) =  -519.829446441     a.u. after    9 cycles
 SCF Done:  E(RB3LYP) =  -519.829452158     a.u. after    3 cycles
 SCF Done:  E(RB3LYP) =  -519.829452356     a.u. after    2 cycles
 Optimization completed.
    -- Stationary point found.
 Normal termination of Gaussian 16 at Mon Aug 24 14:59:44 2020.

 ----------------------------------------------------------------------
 # freq B3LYP/6-31G* scf=qc volume NMR pop=NPA density=current Geom=All
 Check Guess=Read
 ----------------------------------------------------------------------

 Structure from the checkpoint file:  "base_3_conf192.chk"
 -------------------
 Title Card Required
 -------------------
 Charge =  0 Multiplicity = 1

 SCF Done:  E(RB3LYP) =  -519.829452356     a.u. after    1 cycles

      1  N    Isotropic =   210.2893   Anisotropy =    59.8288

      2  C    Isotropic =    44.7787   Anisotropy =    69.4562

      3  N    Isotropic =    19.7328   Anisotropy =   285.3604

      4  C    Isotropic =   135.3686   Anisotropy =    31.4267

      5  C    Isotropic =   159.1534   Anisotropy =    39.1445

      6  C    Isotropic =   152.7006   Anisotropy =    46.9001

      7  C    Isotropic =   163.0961   Anisotropy =    32.4357

      8  N    Isotropic =   182.1577   Anisotropy =    82.9045

      9  C    Isotropic =   150.8940   Anisotropy =    45.6705

     10  C    Isotropic =   152.1219   Anisotropy =    52.2869

     11  C    Isotropic =   151.6475   Anisotropy =    54.8037

     12  C    Isotropic =   148.0066   Anisotropy =    53.5548

     13  H    Isotropic =    30.7494   Anisotropy =     6.9873

     14  H    Isotropic =    30.9930   Anisotropy =     5.7581

     15  H    Isotropic =    31.0561   Anisotropy =     8.2228

     16  H    Isotropic =    30.5395   Anisotropy =     6.6860

     17  H    Isotropic =    31.1936   Anisotropy =     8.2928

     18  H    Isotropic =    31.0198   Anisotropy =     6.5444

     19  H    Isotropic =    30.5619   Anisotropy =     6.0575

     20  H    Isotropic =    31.0883   Anisotropy =     5.7437

     21  H    Isotropic =    31.0452   Anisotropy =     7.8896

     22  H    Isotropic =    29.3337   Anisotropy =     7.1013

     23  H    Isotropic =    30.2737   Anisotropy =     9.0307

     24  H    Isotropic =    29.7959   Anisotropy =     8.3959

     25  H    Isotropic =    29.5585   Anisotropy =     4.5848

     26  H    Isotropic =    29.9835   Anisotropy =     9.2582

     27  H    Isotropic =    29.8831   Anisotropy =     9.0934

     28  H    Isotropic =    29.2313   Anisotropy =     6.8423

     29  H    Isotropic =    29.7705   Anisotropy =     9.6437

     30  H    Isotropic =    29.8845   Anisotropy =     8.3733

     31  H    Isotropic =    29.2971   Anisotropy =     6.0188

     32  H    Isotropic =    29.8060   Anisotropy =     9.4486

     33  H    Isotropic =    29.5091   Anisotropy =     7.9119

  Exact polarizability: 143.947   1.403 121.708  -0.482  -0.837  96.880
 Approx polarizability: 189.265   5.918 166.674  -4.471  -1.900 139.886

                      1                      2                      3
                      A                      A                      A
 Frequencies --     31.7915                67.1457                88.9925
 Red. masses --      2.5934                 2.7504                 2.5815
 Frc consts  --      0.0015                 0.0073                 0.0120
 IR Inten    --      0.2106                 0.4456                 2.1985

                      4                      5                      6
                      A                      A                      A
 Frequencies --    129.2445               133.8287               148.2392
 Red. masses --      1.7588                 2.1546                 2.0197
 Frc consts  --      0.0173                 0.0227                 0.0261
 IR Inten    --      2.0526                 1.3570                 0.6951

                      7                      8                      9
                      A                      A                      A
 Frequencies --    184.8234               201.8033               215.2157
 Red. masses --      1.7134                 1.2805                 1.1413
 Frc consts  --      0.0345                 0.0307                 0.0311
 IR Inten    --      0.2921                 0.5188                 0.1782

                     10                     11                     12
                      A                      A                      A
 Frequencies --    218.5216               226.4163               248.9507
 Red. masses --      1.1534                 1.5805                 1.3229
 Frc consts  --      0.0325                 0.0477                 0.0483
 IR Inten    --      0.9419                 1.0718                 2.4272

                     13                     14                     15
                      A                      A                      A
 Frequencies --    266.0916               271.3715               292.0450
 Red. masses --      1.1289                 1.9205                 1.3855
 Frc consts  --      0.0471                 0.0833                 0.0696
 IR Inten    --      1.3144                 0.8379                 3.1177

                     16                     17                     18
                      A                      A                      A
 Frequencies --    304.3289               329.8098               351.0497
 Red. masses --      2.2051                 2.7732                 2.4064
 Frc consts  --      0.1203                 0.1777                 0.1747
 IR Inten    --      4.3722                 2.8839                 1.3152

                     19                     20                     21
                      A                      A                      A
 Frequencies --    372.0314               379.4747               408.7527
 Red. masses --      2.6625                 2.4116                 2.4176
 Frc consts  --      0.2171                 0.2046                 0.2380
 IR Inten    --      5.5080                 1.4002                 1.9090

                     22                     23                     24
                      A                      A                      A
 Frequencies --    454.6347               503.9416               532.4568
 Red. masses --      2.4208                 3.5028                 3.2035
 Frc consts  --      0.2948                 0.5241                 0.5351
 IR Inten    --      0.7065                 8.1078                 0.1377

                     25                     26                     27
                      A                      A                      A
 Frequencies --    589.2079               694.2813               761.2873
 Red. masses --      3.4187                 5.2932                 7.6806
 Frc consts  --      0.6993                 1.5033                 2.6227
 IR Inten    --      9.8899                 2.2517                 9.2688

                     28                     29                     30
                      A                      A                      A
 Frequencies --    783.5671               909.8085               919.7698
 Red. masses --      3.6160                 2.3084                 2.3677
 Frc consts  --      1.3081                 1.1258                 1.1801
 IR Inten    --      1.1011                 8.5056                 5.8165

                     31                     32                     33
                      A                      A                      A
 Frequencies --    927.0684               953.4087               967.3270
 Red. masses --      1.7092                 3.0534                 1.2051
 Frc consts  --      0.8655                 1.6353                 0.6644
 IR Inten    --      0.4800                 5.8355                 0.2336

                     34                     35                     36
                      A                      A                      A
 Frequencies --   1045.2830              1056.1503              1065.6308
 Red. masses --      1.7837                 1.3961                 1.5136
 Frc consts  --      1.1483                 0.9175                 1.0127
 IR Inten    --     59.3941                 3.1468                18.5851

                     37                     38                     39
                      A                      A                      A
 Frequencies --   1081.0535              1096.9228              1131.7478
 Red. masses --      1.4306                 1.3799                 1.5461
 Frc consts  --      0.9851                 0.9783                 1.1668
 IR Inten    --     11.5167                 3.4051                82.6959

                     40                     41                     42
                      A                      A                      A
 Frequencies --   1135.6728              1149.6754              1182.2062
 Red. masses --      1.4524                 1.3526                 1.3499
 Frc consts  --      1.1037                 1.0533                 1.1116
 IR Inten    --     72.9127                32.7564                 3.4685

                     43                     44                     45
                      A                      A                      A
 Frequencies --   1184.2562              1246.4786              1248.4733
 Red. masses --      1.4161                 2.5044                 2.7358
 Frc consts  --      1.1702                 2.2926                 2.5124
 IR Inten    --     20.8472                79.1495                12.0926

                     46                     47                     48
                      A                      A                      A
 Frequencies --   1256.1701              1268.9221              1284.0638
 Red. masses --      2.8666                 4.4914                 4.9236
 Frc consts  --      2.6651                 4.2609                 4.7831
 IR Inten    --     14.1604                41.0505                18.1370

                     49                     50                     51
                      A                      A                      A
 Frequencies --   1361.3227              1396.7980              1416.9332
 Red. masses --      2.9648                 3.0559                 1.2428
 Frc consts  --      3.2372                 3.5128                 1.4701
 IR Inten    --     14.5764               206.2071                 3.4984

                     52                     53                     54
                      A                      A                      A
 Frequencies --   1419.9626              1448.5317              1460.9715
 Red. masses --      1.2393                 1.2243                 1.1540
 Frc consts  --      1.4722                 1.5135                 1.4512
 IR Inten    --      6.5745                 4.6967                 0.6070

                     55                     56                     57
                      A                      A                      A
 Frequencies --   1466.6296              1483.2313              1494.6373
 Red. masses --      1.1374                 1.1680                 1.1628
 Frc consts  --      1.4414                 1.5140                 1.5305
 IR Inten    --      2.7417                15.0153                13.8303

                     58                     59                     60
                      A                      A                      A
 Frequencies --   1503.5579              1505.1992              1509.6033
 Red. masses --      1.0581                 1.0730                 1.0572
 Frc consts  --      1.4094                 1.4323                 1.4195
 IR Inten    --      3.0691                 5.2857                 4.6260

                     61                     62                     63
                      A                      A                      A
 Frequencies --   1511.9171              1514.8623              1516.3341
 Red. masses --      1.0471                 1.0523                 1.0466
 Frc consts  --      1.4102                 1.4228                 1.4178
 IR Inten    --      0.7652                 7.8970                 0.7411

                     64                     65                     66
                      A                      A                      A
 Frequencies --   1518.9843              1529.4249              1530.7237
 Red. masses --      1.0656                 1.0537                 1.0553
 Frc consts  --      1.4486                 1.4522                 1.4568
 IR Inten    --      8.2096                11.1410                 7.1408

                     67                     68                     69
                      A                      A                      A
 Frequencies --   1532.5367              1542.1477              1545.6595
 Red. masses --      1.0560                 1.0552                 1.0546
 Frc consts  --      1.4613                 1.4786                 1.4845
 IR Inten    --      2.0727                10.0043                11.0928

                     70                     71                     72
                      A                      A                      A
 Frequencies --   1550.5394              1566.2931              1702.2200
 Red. masses --      1.0767                 1.1168                 9.2277
 Frc consts  --      1.5251                 1.6142                15.7534
 IR Inten    --      6.8339                30.5624               472.1839

                     73                     74                     75
                      A                      A                      A
 Frequencies --   2977.6271              2984.0543              2988.7594
 Red. masses --      1.0497                 1.0557                 1.0574
 Frc consts  --      5.4835                 5.5386                 5.5653
 IR Inten    --     40.0051               129.4329               103.9256

                     76                     77                     78
                      A                      A                      A
 Frequencies --   3015.9045              3025.4032              3033.8672
 Red. masses --      1.0490                 1.0905                 1.0906
 Frc consts  --      5.6216                 5.8810                 5.9142
 IR Inten    --     79.7341                63.2356                36.0015

                     79                     80                     81
                      A                      A                      A
 Frequencies --   3041.6427              3047.7718              3055.0897
 Red. masses --      1.0357                 1.0376                 1.0387
 Frc consts  --      5.6457                 5.6786                 5.7119
 IR Inten    --     23.1688                29.1418                36.2152

                     82                     83                     84
                      A                      A                      A
 Frequencies --   3078.3242              3081.7720              3104.8609
 Red. masses --      1.0852                 1.0916                 1.1015
 Frc consts  --      6.0587                 6.1083                 6.2563
 IR Inten    --     27.0922                64.9664                 1.5150

                     85                     86                     87
                      A                      A                      A
 Frequencies --   3110.6841              3116.9771              3126.3894
 Red. masses --      1.1010                 1.1007                 1.1027
 Frc consts  --      6.2769                 6.3005                 6.3502
 IR Inten    --     29.0609                82.1159                15.0844

                     88                     89                     90
                      A                      A                      A
 Frequencies --   3130.3743              3154.7099              3163.3277
 Red. masses --      1.1019                 1.0964                 1.0940
 Frc consts  --      6.3618                 6.4291                 6.4498
 IR Inten    --     49.6159                29.9607                 9.0055

                     91                     92                     93
                      A                      A                      A
 Frequencies --   3167.7299              3168.4140              3170.2304
 Red. masses --      1.0968                 1.0947                 1.0924
 Frc consts  --      6.4844                 6.4748                 6.4685
 IR Inten    --     13.4711                20.0631                 8.4849

 - Thermochemistry -
 -------------------
 Temperature   298.150 Kelvin.  Pressure   1.00000 Atm.
 Atom     1 has atomic number  7 and mass  14.00307

 Molecular mass:   171.17355 amu.
 Principal axes and moments of inertia in atomic units:
                           1         2         3
     Eigenvalues --  1507.501862533.387743285.53779
           X            1.00000   0.00073   0.00244
           Y           -0.00074   0.99999   0.00428
           Z           -0.00244  -0.00428   0.99999
 This molecule is an asymmetric top.
 Rotational symmetry number  1.
 Warning -- assumption of classical behavior for rotation
           may cause significant error
 Rotational temperatures (Kelvin)      0.05746     0.03419     0.02636
 Rotational constants (GHZ):           1.19717     0.71238     0.54930
 Zero-point vibrational energy     789968.0 (Joules/Mol)
                                  188.80687 (Kcal/Mol)
 Warning -- explicit consideration of  25 degrees of freedom as
           vibrations may cause significant error
 Vibrational temperatures:     45.74    96.61   128.04   185.95   192.55
          (Kelvin)            213.28   265.92   290.35   309.65   314.40
                              325.76   358.18   382.85   390.44   420.19
                              437.86   474.52   505.08   535.27   545.98
                              588.10   654.12   725.06   766.09   847.74
                              998.92  1095.32  1127.38  1309.01  1323.34
                             1333.84  1371.74  1391.77  1503.93  1519.56
                             1533.21  1555.39  1578.23  1628.33  1633.98
                             1654.13  1700.93  1703.88  1793.40  1796.27
                             1807.35  1825.70  1847.48  1958.64  2009.68
                             2038.65  2043.01  2084.11  2102.01  2110.15
                             2134.04  2150.45  2163.28  2165.65  2171.98
                             2175.31  2179.55  2181.67  2185.48  2200.50
                             2202.37  2204.98  2218.81  2223.86  2230.88
                             2253.55  2449.11  4284.14  4293.39  4300.16
                             4339.21  4352.88  4365.06  4376.25  4385.06
                             4395.59  4429.02  4433.98  4467.20  4475.58
                             4484.63  4498.18  4503.91  4538.92  4551.32
                             4557.66  4558.64  4561.25

 Zero-point correction=                           0.300883 (Hartree/Particle)
 Thermal correction to Energy=                    0.316645
 Thermal correction to Enthalpy=                  0.317589
 Thermal correction to Gibbs Free Energy=         0.259213
 Sum of electronic and zero-point Energies=           -519.528569
 Sum of electronic and thermal Energies=              -519.512807
 Sum of electronic and thermal Enthalpies=            -519.511863
 Sum of electronic and thermal Free Energies=         -519.570239

                     E (Thermal)             CV                S
                      KCal/Mol        Cal/Mol-Kelvin    Cal/Mol-Kelvin
 Total                  198.698             57.739            122.862
 Electronic               0.000              0.000              0.000
 Translational            0.889              2.981             41.320
 Rotational               0.889              2.981             30.907
 Vibrational            196.920             51.778             50.635
 Vibration     1          0.594              1.983              5.714
 Vibration     2          0.598              1.970              4.235
 Vibration     3          0.602              1.957              3.682
 Vibration     4          0.612              1.924              2.957
 Vibration     5          0.613              1.920              2.890
 Vibration     6          0.618              1.905              2.695
 Vibration     7          0.631              1.861              2.279
 Vibration     8          0.639              1.837              2.117
 Vibration     9          0.645              1.818              1.999
 Vibration    10          0.646              1.813              1.971
 Vibration    11          0.650              1.801              1.907
 Vibration    12          0.662              1.765              1.738
 Vibration    13          0.672              1.735              1.621
 Vibration    14          0.675              1.726              1.587
 Vibration    15          0.687              1.689              1.462
 Vibration    16          0.695              1.665              1.393
 Vibration    17          0.713              1.616              1.261
 Vibration    18          0.728              1.573              1.161
 Vibration    19          0.744              1.530              1.071
 Vibration    20          0.749              1.514              1.041
 Vibration    21          0.773              1.451              0.931
 Vibration    22          0.813              1.351              0.782
 Vibration    23          0.859              1.241              0.648
 Vibration    24          0.887              1.178              0.582
 Vibration    25          0.946              1.055              0.469

 Optimization completed.
    -- Stationary point found.
 Normal termination of Gaussian 16 at Mon Aug 24 15:06:09 2020.
 Gaussian 16:  ES64L-G16RevA.03 25-Dec-2016

 ----------------------------------------------------------------------
 # TD(NStates=10, Root=1) B3LYP/6-31G* scf=qc volume pop=NPA density=cu
 rrent Geom=AllCheck Guess=Read
 ----------------------------------------------------------------------

 Structure from the checkpoint file:  "base_3_conf193.chk"
 -------------------
 Title Card Required
 -------------------
 Charge =  0 Multiplicity = 1

                         Standard orientation:
 ---------------------------------------------------------------------
 Center     Atomic      Atomic             Coordinates (Angstroms)
 Number     Number       Type             X           Y           Z
 ---------------------------------------------------------------------
      1          7           0       -0.845137   -1.214582    0.137592
      2          6           0       -0.568766    0.158461   -0.029978
      3          7           0        0.561570    0.724364   -0.241627
      4          6           0        1.910564    0.200753    0.003587
      5          6           0        2.558810   -0.206468   -1.336792
      6          6           0        2.696388    1.411238    0.562309
      7          6           0        2.023989   -0.948846    1.028384
      8          7           0       -1.707792    0.975497    0.093674
      9          6           0       -1.483893    2.407737    0.226580
     10          6           0       -2.889058    0.652401   -0.699758
     11          6           0       -1.762554   -1.690218    1.155305
     12          6           0       -0.485802   -2.182328   -0.877764
     13          1           0        2.449707    0.601241   -2.068184
     14          1           0        2.101791   -1.109161   -1.754741
     15          1           0        3.628384   -0.408075   -1.202111
     16          1           0        2.632689    2.254465   -0.132567
     17          1           0        3.752791    1.161110    0.719712
     18          1           0        2.272331    1.732112    1.520718
     19          1           0        1.611328   -1.891343    0.663352
     20          1           0        1.508254   -0.689061    1.959760
     21          1           0        3.080522   -1.121215    1.267734
     22          1           0       -0.676075    2.587605    0.936465
     23          1           0       -2.406245    2.873633    0.593342
     24          1           0       -1.202724    2.880041   -0.726958
     25          1           0       -2.987391   -0.427176   -0.817405
     26          1           0       -2.840177    1.104175   -1.705083
     27          1           0       -3.790288    1.030176   -0.202589
     28          1           0       -1.992184   -0.880141    1.848766
     29          1           0       -1.304501   -2.517205    1.717863
     30          1           0       -2.711197   -2.064324    0.733626
     31          1           0        0.080227   -1.693666   -1.671205
     32          1           0       -1.387958   -2.631459   -1.327273
     33          1           0        0.122167   -3.005066   -0.471930
 ---------------------------------------------------------------------

 SCF Done:  E(RB3LYP) =  -519.829452356     a.u. after    1 cycles

 Excitation energies and oscillator strengths:

 Excited State   1:      Singlet-A      5.4517 eV  227.42 nm  f=0.0042  <S**2>=0.000
      46 -> 49         0.30893
      47 -> 49         0.51882
      48 -> 49        -0.36033
 This state for optimization and/or second-order correction.
 Total Energy, E(TD-HF/TD-DFT) =  -519.629107024
 Copying the excited state density for this state as the 1-particle RhoCI density.

 Excited State   2:      Singlet-A      5.9979 eV  206.71 nm  f=0.1131  <S**2>=0.000
      46 -> 49         0.57304
      48 -> 49         0.39151

 Excited State   3:      Singlet-A      6.2848 eV  197.27 nm  f=0.2789  <S**2>=0.000
      46 -> 49        -0.25432
      47 -> 49         0.45908
      48 -> 49         0.44148

 Excited State   4:      Singlet-A      6.4985 eV  190.79 nm  f=0.0068  <S**2>=0.000
      47 -> 50        -0.10241
      48 -> 50         0.68372

 Excited State   5:      Singlet-A      6.9200 eV  179.17 nm  f=0.0290  <S**2>=0.000
      46 -> 50        -0.24410
      47 -> 50         0.64071
      48 -> 50         0.12540

 Excited State   6:      Singlet-A      7.0578 eV  175.67 nm  f=0.0037  <S**2>=0.000
      46 -> 50         0.64307
      47 -> 50         0.26125

 Excited State   7:      Singlet-A      7.4163 eV  167.18 nm  f=0.0078  <S**2>=0.000
      48 -> 51         0.68246
      48 -> 53        -0.11769

 Excited State   8:      Singlet-A      7.6922 eV  161.18 nm  f=0.0148  <S**2>=0.000
      48 -> 52         0.68149

 Excited State   9:      Singlet-A      7.8211 eV  158.53 nm  f=0.0223  <S**2>=0.000
      47 -> 51         0.67154

 Excited State  10:      Singlet-A      7.9410 eV  156.13 nm  f=0.0095  <S**2>=0.000
      46 -> 51         0.58536
      46 -> 52         0.13028
      47 -> 52        -0.13709
      47 -> 53         0.10847
      48 -> 51        -0.10690
      48 -> 53        -0.27312

 The electronic state is 1-A.
 Alpha  occ. eigenvalues --  -14.33742 -14.33696 -14.27855 -10.26424 -10.21164
 Alpha  occ. eigenvalues --  -10.20867 -10.20857 -10.20809 -10.19422 -10.16069
 Alpha  occ. eigenvalues --  -10.15853 -10.15373  -0.96890  -0.89945  -0.86533
 Alpha  occ. eigenvalues --   -0.77042  -0.71591  -0.70449  -0.68211  -0.67181
 Alpha  occ. eigenvalues --   -0.66538  -0.63323  -0.56682  -0.52425  -0.50149
 Alpha  occ. eigenvalues --   -0.47227  -0.46454  -0.45261  -0.44299  -0.43262
 Alpha  occ. eigenvalues --   -0.42363  -0.41918  -0.40387  -0.39514  -0.38972
 Alpha  occ. eigenvalues --   -0.38245  -0.37733  -0.37449  -0.37225  -0.36392
 Alpha  occ. eigenvalues --   -0.35384  -0.34810  -0.32836  -0.31471  -0.29727
 Alpha  occ. eigenvalues --   -0.22026  -0.21458  -0.20160
 Alpha virt. eigenvalues --    0.04030   0.07085   0.10340   0.11254   0.12770
 Alpha virt. eigenvalues --    0.13209   0.13951   0.14387   0.15222   0.15691
 Alpha virt. eigenvalues --    0.16177   0.16815   0.17106   0.17445   0.18034

 Mulliken charges:
               1
     1  N   -0.398675
     2  C    0.525281
     3  N   -0.425527
     4  C    0.189157
     5  C   -0.426068
     6  C   -0.432080
     7  C   -0.441571
     8  N   -0.405469
     9  C   -0.296461
    10  C   -0.293793
    11  C   -0.300368
    12  C   -0.307248
    13  H    0.146015
    14  H    0.136490
    15  H    0.125524
    16  H    0.147217
    17  H    0.129689
    18  H    0.144894
    19  H    0.160002
    20  H    0.156986
    21  H    0.145308
    22  H    0.159782
    23  H    0.140110
    24  H    0.122878
    25  H    0.152097
    26  H    0.113166
    27  H    0.135124
    28  H    0.180831
    29  H    0.134875
    30  H    0.139289
    31  H    0.174937
    32  H    0.129743
    33  H    0.137866
 Sum of Mulliken charges =  -0.00000

 Dipole moment (field-independent basis, Debye):
    X=              0.0430    Y=             -1.1410    Z=              0.3626  Tot=              1.1980
 Quadrupole moment (field-independent basis, Debye-Ang):
   XX=            -74.9261   YY=            -74.9280   ZZ=            -77.9270
   XY=              0.2944   XZ=              0.3601   YZ=              0.3643

 Summary of Natural Population Analysis:

                                       Natural Population
                Natural  -----------------------------------------------
    Atom  No    Charge         Core      Valence    Rydberg      Total
 -----------------------------------------------------------------------
      N    1   -0.45654      1.99935     5.44460    0.01258     7.45654
      C    2    0.37821      1.99913     3.58838    0.03428     5.62179
      N    3   -0.33338      1.99898     5.31526    0.01914     7.33338
      C    4    0.09787      1.99908     3.88405    0.01901     5.90213
      C    5   -0.67641      1.99935     4.66659    0.01047     6.67641
      C    6   -0.66529      1.99935     4.65562    0.01032     6.66529
      C    7   -0.66113      1.99931     4.65235    0.00947     6.66113
      N    8   -0.49703      1.99939     5.48377    0.01386     7.49703
      C    9   -0.46742      1.99949     4.45528    0.01265     6.46742
      C   10   -0.46049      1.99946     4.44880    0.01223     6.46049
      C   11   -0.46965      1.99946     4.45744    0.01275     6.46965
      C   12   -0.46580      1.99946     4.45404    0.01230     6.46580
      H   13    0.23745      0.00000     0.76112    0.00143     0.76255
      H   14    0.22197      0.00000     0.77712    0.00092     0.77803
      H   15    0.22115      0.00000     0.77709    0.00177     0.77885
      H   16    0.23511      0.00000     0.76368    0.00121     0.76489
      H   17    0.22188      0.00000     0.77654    0.00158     0.77812
      H   18    0.23363      0.00000     0.76517    0.00120     0.76637
      H   19    0.23573      0.00000     0.76320    0.00107     0.76427
      H   20    0.24186      0.00000     0.75709    0.00105     0.75814
      H   21    0.23711      0.00000     0.76152    0.00137     0.76289
      H   22    0.23466      0.00000     0.76446    0.00088     0.76534
      H   23    0.22152      0.00000     0.77751    0.00097     0.77848
      H   24    0.19239      0.00000     0.80292    0.00469     0.80761
      H   25    0.22286      0.00000     0.77624    0.00090     0.77714
      H   26    0.18700      0.00000     0.80648    0.00651     0.81300
      H   27    0.21401      0.00000     0.78373    0.00226     0.78599
      H   28    0.25078      0.00000     0.74821    0.00102     0.74922
      H   29    0.20936      0.00000     0.78809    0.00255     0.79064
      H   30    0.21064      0.00000     0.78734    0.00202     0.78936
      H   31    0.23568      0.00000     0.76342    0.00090     0.76432
      H   32    0.20606      0.00000     0.79016    0.00378     0.79394
      H   33    0.20621      0.00000     0.79194    0.00186     0.79379
 =======================================================================
   * Total *   -0.00000     23.99182    71.78919    0.21899    96.00000

 Normal termination of Gaussian 16 at Mon Aug 24 15:13:46 2020.
