 Gaussian 16, Revision A.03,

 ---------------------------------
 # opt=CalcAll B3LYP/6-31G* scf=qc
 ---------------------------------

 -------------------
 Title Card Required
 -------------------
 Symbolic Z-matrix:
 Charge =  0 Multiplicity = 1

 SCF Done:  E(RB3LYP) =  -292.365327512     a.u. after    7 cycles
 SCF Done:  E(RB3LYP) =  -292.388655691     a.u. after   13 cycles
 SCF Done:  E(RB3LYP) =  -292.398121638     a.u. after   13 cycles
 SCF Done:  E(RB3LYP) =  -292.409353441     a.u. after   13 cycles
 SCF Done:  E(RB3LYP) =  -292.412617490     a.u. after   11 cycles
 SCF Done:  E(RB3LYP) =  -292.413912156     a.u. after   11 cycles
 SCF Done:  E(RB3LYP) =  -292.414249835     a.u. after    9 cycles
 SCF Done:  E(RB3LYP) =  -292.414332992     a.u. after    7 cycles
 SCF Done:  E(RB3LYP) =  -292.414379504     a.u. after    7 cycles
 SCF Done:  E(RB3LYP) =  -292.414383572     a.u. after    4 cycles
 SCF Done:  E(RB3LYP) =  -292.414384849     a.u. after    4 cycles
 SCF Done:  E(RB3LYP) =  -292.414384883     a.u. after    2 cycles
 SCF Done:  E(RB3LYP) =  -292.414384887     a.u. after    2 cycles
 Optimization completed.
    -- Stationary point found.
 Normal termination of Gaussian 16 at Mon Aug 24 17:24:31 2020.

 ----------------------------------------------------------------------
 # freq B3LYP/6-31G* scf=qc volume NMR pop=NPA density=current Geom=All
 Check Guess=Read
 ----------------------------------------------------------------------

 Structure from the checkpoint file:  "base_4_conf52.chk"
 -------------------
 Title Card Required
 -------------------
 Charge =  0 Multiplicity = 1

 SCF Done:  E(RB3LYP) =  -292.414384887     a.u. after    1 cycles

      1  C    Isotropic =   172.5700   Anisotropy =    22.9861

      2  C    Isotropic =   135.3839   Anisotropy =    56.6950

      3  N    Isotropic =   201.8058   Anisotropy =    15.5474

      4  C    Isotropic =   140.8664   Anisotropy =    52.3314

      5  C    Isotropic =   168.8418   Anisotropy =    30.6541

      6  C    Isotropic =   135.3841   Anisotropy =    56.6950

      7  C    Isotropic =   172.5701   Anisotropy =    22.9866

      8  H    Isotropic =    31.2958   Anisotropy =     9.9993

      9  H    Isotropic =    30.9163   Anisotropy =     7.2282

     10  H    Isotropic =    31.0348   Anisotropy =     5.6196

     11  H    Isotropic =    29.7977   Anisotropy =     6.7290

     12  H    Isotropic =    29.5529   Anisotropy =     6.9063

     13  H    Isotropic =    29.8088   Anisotropy =     5.5172

     14  H    Isotropic =    29.8088   Anisotropy =     5.5173

     15  H    Isotropic =    31.0143   Anisotropy =     6.2747

     16  H    Isotropic =    31.2950   Anisotropy =    10.2392

     17  H    Isotropic =    31.0143   Anisotropy =     6.2746

     18  H    Isotropic =    29.7978   Anisotropy =     6.7290

     19  H    Isotropic =    29.5529   Anisotropy =     6.9063

     20  H    Isotropic =    30.9163   Anisotropy =     7.2283

     21  H    Isotropic =    31.2958   Anisotropy =     9.9993

     22  H    Isotropic =    31.0348   Anisotropy =     5.6196

  Exact polarizability:  80.631   0.000  74.898  -0.000  -0.050  63.465
 Approx polarizability:  98.499   0.000  97.659  -0.000   1.451  92.302

                      1                      2                      3
                      A                      A                      A
 Frequencies --     45.5632                92.8408               150.9128
 Red. masses --      2.3730                 2.3226                 1.5132
 Frc consts  --      0.0029                 0.0118                 0.0203
 IR Inten    --      0.0039                 0.0264                 0.8098

                      4                      5                      6
                      A                      A                      A
 Frequencies --    183.0183               224.6866               239.1922
 Red. masses --      2.3793                 1.0615                 1.1984
 Frc consts  --      0.0470                 0.0316                 0.0404
 IR Inten    --      0.8341                 0.0142                 0.1721

                      7                      8                      9
                      A                      A                      A
 Frequencies --    275.3420               340.2797               345.3670
 Red. masses --      1.1716                 2.1751                 2.1540
 Frc consts  --      0.0523                 0.1484                 0.1514
 IR Inten    --      0.0631                 1.8153                 0.3466

                     10                     11                     12
                      A                      A                      A
 Frequencies --    405.6274               460.7181               506.1933
 Red. masses --      2.4727                 3.3059                 2.1500
 Frc consts  --      0.2397                 0.4134                 0.3246
 IR Inten    --      1.9948                 1.9202                 0.3359

                     13                     14                     15
                      A                      A                      A
 Frequencies --    754.3150               781.8365               814.1397
 Red. masses --      2.5624                 1.1378                 1.1266
 Frc consts  --      0.8590                 0.4098                 0.4400
 IR Inten    --      8.7641                 6.2009                 1.6476

                     16                     17                     18
                      A                      A                      A
 Frequencies --    822.7068               938.5551               941.3286
 Red. masses --      1.1545                 2.2568                 1.7516
 Frc consts  --      0.4604                 1.1713                 0.9145
 IR Inten    --      1.7021                 1.3584                 0.5455

                     19                     20                     21
                      A                      A                      A
 Frequencies --   1032.8927              1090.2013              1091.1924
 Red. masses --      2.3371                 2.1796                 2.9430
 Frc consts  --      1.4690                 1.5263                 2.0647
 IR Inten    --      3.9298                15.8058                14.7991

                     22                     23                     24
                      A                      A                      A
 Frequencies --   1105.2381              1113.7751              1140.3909
 Red. masses --      1.7623                 1.7962                 1.4474
 Frc consts  --      1.2683                 1.3128                 1.1091
 IR Inten    --     28.5691                 2.2470                10.3876

                     25                     26                     27
                      A                      A                      A
 Frequencies --   1171.6506              1252.8199              1254.8853
 Red. masses --      1.9433                 2.0364                 2.6686
 Frc consts  --      1.5718                 1.8831                 2.4759
 IR Inten    --     16.3810                14.0398                33.5177

                     28                     29                     30
                      A                      A                      A
 Frequencies --   1318.4121              1354.2922              1364.2385
 Red. masses --      1.1070                 1.1924                 1.1628
 Frc consts  --      1.1337                 1.2885                 1.2750
 IR Inten    --      5.0550                23.1883                 2.9550

                     31                     32                     33
                      A                      A                      A
 Frequencies --   1403.4206              1404.8398              1428.9168
 Red. masses --      1.4231                 1.2388                 1.2379
 Frc consts  --      1.6515                 1.4405                 1.4892
 IR Inten    --     50.2397                 9.0770                 0.6172

                     34                     35                     36
                      A                      A                      A
 Frequencies --   1435.3464              1438.6002              1459.9592
 Red. masses --      1.2646                 1.2722                 1.4008
 Frc consts  --      1.5350                 1.5512                 1.7591
 IR Inten    --     18.6956                 9.8645                 6.0980

                     37                     38                     39
                      A                      A                      A
 Frequencies --   1510.6396              1515.1867              1519.6014
 Red. masses --      1.0520                 1.0562                 1.0498
 Frc consts  --      1.4145                 1.4286                 1.4283
 IR Inten    --      2.9062                 0.2884                 2.3198

                     40                     41                     42
                      A                      A                      A
 Frequencies --   1522.4581              1525.1626              1532.7364
 Red. masses --      1.0494                 1.0459                 1.0426
 Frc consts  --      1.4331                 1.4335                 1.4432
 IR Inten    --      3.9924                 0.4293                 2.7277

                     43                     44                     45
                      A                      A                      A
 Frequencies --   1540.2922              1543.3109              1550.3893
 Red. masses --      1.0675                 1.0718                 1.1013
 Frc consts  --      1.4922                 1.5040                 1.5597
 IR Inten    --      0.2557                 8.1352                 5.6035

                     46                     47                     48
                      A                      A                      A
 Frequencies --   2907.1172              2917.0888              3010.2246
 Red. masses --      1.0736                 1.0744                 1.0588
 Frc consts  --      5.3457                 5.3864                 5.6529
 IR Inten    --     25.9021               162.0318                46.1478

                     49                     50                     51
                      A                      A                      A
 Frequencies --   3043.9542              3046.3399              3050.6585
 Red. masses --      1.1034                 1.0377                 1.0364
 Frc consts  --      6.0239                 5.6736                 5.6828
 IR Inten    --     25.8663                27.4367                47.4088

                     52                     53                     54
                      A                      A                      A
 Frequencies --   3051.5028              3062.0091              3073.5807
 Red. masses --      1.0355                 1.0877                 1.0863
 Frc consts  --      5.6812                 6.0086                 6.0460
 IR Inten    --     10.1676                 2.7238                39.6156

                     55                     56                     57
                      A                      A                      A
 Frequencies --   3113.8013              3115.4520              3117.3781
 Red. masses --      1.0993                 1.1016                 1.1005
 Frc consts  --      6.2800                 6.2997                 6.3012
 IR Inten    --     62.4744                23.2643                53.7920

                     58                     59                     60
                      A                      A                      A
 Frequencies --   3126.7641              3127.4133              3130.2317
 Red. masses --      1.1033                 1.1031                 1.1032
 Frc consts  --      6.3550                 6.3568                 6.3687
 IR Inten    --      7.6205                62.4014                32.0257

 - Thermochemistry -
 -------------------
 Temperature   298.150 Kelvin.  Pressure   1.00000 Atm.
 Atom     1 has atomic number  6 and mass  12.00000

 Molecular mass:   101.12045 amu.
 Principal axes and moments of inertia in atomic units:
                           1         2         3
     Eigenvalues --   592.76780 940.600581351.89490
           X            1.00000   0.00000   0.00000
           Y           -0.00000   0.99998  -0.00569
           Z           -0.00000   0.00569   0.99998
 This molecule is an asymmetric top.
 Rotational symmetry number  1.
 Warning -- assumption of classical behavior for rotation
           may cause significant error
 Rotational temperatures (Kelvin)      0.14612     0.09208     0.06407
 Rotational constants (GHZ):           3.04460     1.91871     1.33497
 Zero-point vibrational energy     543325.9 (Joules/Mol)
                                  129.85799 (Kcal/Mol)
 Warning -- explicit consideration of  12 degrees of freedom as
           vibrations may cause significant error
 Vibrational temperatures:     65.56   133.58   217.13   263.32   323.27
          (Kelvin)            344.14   396.16   489.59   496.91   583.61
                              662.87   728.30  1085.29  1124.89  1171.37
                             1183.69  1350.37  1354.36  1486.10  1568.56
                             1569.98  1590.19  1602.47  1640.77  1685.74
                             1802.53  1805.50  1896.90  1948.52  1962.83
                             2019.21  2021.25  2055.89  2065.14  2069.82
                             2100.56  2173.47  2180.02  2186.37  2190.48
                             2194.37  2205.27  2216.14  2220.48  2230.66
                             4182.69  4197.04  4331.04  4379.57  4383.00
                             4389.22  4390.43  4405.55  4422.20  4480.07
                             4482.44  4485.21  4498.72  4499.65  4503.71

 Zero-point correction=                           0.206942 (Hartree/Particle)
 Thermal correction to Energy=                    0.216312
 Thermal correction to Enthalpy=                  0.217257
 Thermal correction to Gibbs Free Energy=         0.172922
 Sum of electronic and zero-point Energies=           -292.207443
 Sum of electronic and thermal Energies=              -292.198072
 Sum of electronic and thermal Enthalpies=            -292.197128
 Sum of electronic and thermal Free Energies=         -292.241463

                     E (Thermal)             CV                S
                      KCal/Mol        Cal/Mol-Kelvin    Cal/Mol-Kelvin
 Total                  135.738             33.571             93.311
 Electronic               0.000              0.000              0.000
 Translational            0.889              2.981             39.751
 Rotational               0.889              2.981             28.113
 Vibrational            133.961             27.610             25.447
 Vibration     1          0.595              1.979              5.001
 Vibration     2          0.602              1.954              3.599
 Vibration     3          0.618              1.902              2.661
 Vibration     4          0.631              1.863              2.297
 Vibration     5          0.649              1.803              1.921
 Vibration     6          0.657              1.781              1.809
 Vibration     7          0.677              1.719              1.562
 Vibration     8          0.720              1.595              1.211
 Vibration     9          0.724              1.585              1.187
 Vibration    10          0.771              1.458              0.942
 Vibration    11          0.819              1.337              0.764
 Vibration    12          0.861              1.236              0.643

 Optimization completed.
    -- Stationary point found.
 Normal termination of Gaussian 16 at Mon Aug 24 17:27:52 2020.
 Gaussian 16:  ES64L-G16RevA.03 25-Dec-2016

 ----------------------------------------------------------------------
 # TD(NStates=10, Root=1) B3LYP/6-31G* scf=qc volume pop=NPA density=cu
 rrent Geom=AllCheck Guess=Read
 ----------------------------------------------------------------------

 Structure from the checkpoint file:  "base_4_conf53.chk"
 -------------------
 Title Card Required
 -------------------
 Charge =  0 Multiplicity = 1

                         Standard orientation:
 ---------------------------------------------------------------------
 Center     Atomic      Atomic             Coordinates (Angstroms)
 Number     Number       Type             X           Y           Z
 ---------------------------------------------------------------------
      1          6           0       -2.459844   -0.443407   -0.420612
      2          6           0       -1.218155   -1.080689    0.205693
      3          7           0        0.000012   -0.298632   -0.014507
      4          6           0       -0.000012    0.989796    0.702371
      5          6           0       -0.000067    2.200208   -0.235826
      6          6           0        1.218203   -1.080648    0.205699
      7          6           0        2.459869   -0.443336   -0.420619
      8          1           0       -3.332225   -1.091271   -0.275306
      9          1           0       -2.310806   -0.293207   -1.495146
     10          1           0       -2.694191    0.528279    0.028066
     11          1           0       -1.064986   -2.064851   -0.252793
     12          1           0       -1.403735   -1.264216    1.284075
     13          1           0        0.874811    1.043902    1.366508
     14          1           0       -0.874807    1.043851    1.366550
     15          1           0        0.883338    2.192132   -0.882760
     16          1           0       -0.000081    3.137114    0.335957
     17          1           0       -0.883499    2.192084   -0.882723
     18          1           0        1.065063   -2.064822   -0.252775
     19          1           0        1.403792   -1.264158    1.284083
     20          1           0        2.310822   -0.293157   -1.495155
     21          1           0        3.332273   -1.091166   -0.275305
     22          1           0        2.694184    0.528367    0.028042
 ---------------------------------------------------------------------

 SCF Done:  E(RB3LYP) =  -292.414384887     a.u. after    1 cycles

 Excitation energies and oscillator strengths:

 Excited State   1:      Singlet-A      6.8728 eV  180.40 nm  f=0.0102  <S**2>=0.000
      29 -> 30         0.69315
      29 -> 31        -0.11868
 This state for optimization and/or second-order correction.
 Total Energy, E(TD-HF/TD-DFT) =  -292.161815821
 Copying the excited state density for this state as the 1-particle RhoCI density.

 Excited State   2:      Singlet-A      7.4392 eV  166.66 nm  f=0.0294  <S**2>=0.000
      29 -> 30         0.12022
      29 -> 31         0.69326

 Excited State   3:      Singlet-A      7.5935 eV  163.28 nm  f=0.0778  <S**2>=0.000
      29 -> 32         0.69724
      29 -> 34        -0.10974

 Excited State   4:      Singlet-A      8.0384 eV  154.24 nm  f=0.0779  <S**2>=0.000
      29 -> 33         0.69944

 Excited State   5:      Singlet-A      8.0770 eV  153.50 nm  f=0.0130  <S**2>=0.000
      29 -> 32         0.10945
      29 -> 34         0.69287

 Excited State   6:      Singlet-A      8.5858 eV  144.41 nm  f=0.0613  <S**2>=0.000
      29 -> 35         0.69219

 Excited State   7:      Singlet-A      8.9950 eV  137.84 nm  f=0.0343  <S**2>=0.000
      29 -> 36         0.68436
      29 -> 38         0.12621

 Excited State   8:      Singlet-A      9.0663 eV  136.75 nm  f=0.0206  <S**2>=0.000
      29 -> 37         0.70537

 Excited State   9:      Singlet-A      9.0750 eV  136.62 nm  f=0.0015  <S**2>=0.000
      29 -> 36        -0.12405
      29 -> 38         0.68398

 Excited State  10:      Singlet-A      9.2952 eV  133.38 nm  f=0.0237  <S**2>=0.000
      29 -> 39         0.69461

 The electronic state is 1-A.
 Alpha  occ. eigenvalues --  -14.31245 -10.20191 -10.20191 -10.20089 -10.16989
 Alpha  occ. eigenvalues --  -10.16989 -10.16613  -0.90868  -0.75642  -0.74834
 Alpha  occ. eigenvalues --   -0.70123  -0.62280  -0.60518  -0.55948  -0.48348
 Alpha  occ. eigenvalues --   -0.46470  -0.43745  -0.43494  -0.40613  -0.40109
 Alpha  occ. eigenvalues --   -0.38454  -0.37493  -0.36279  -0.35092  -0.34598
 Alpha  occ. eigenvalues --   -0.33078  -0.32782  -0.32356  -0.20080
 Alpha virt. eigenvalues --    0.08785   0.11001   0.11293   0.13304   0.13858
 Alpha virt. eigenvalues --    0.15000   0.16390   0.16655   0.17082   0.17794
 Alpha virt. eigenvalues --    0.19132   0.19556   0.20383   0.20673   0.21693

 Mulliken charges:
               1
     1  C   -0.414950
     2  C   -0.095745
     3  N   -0.181510
     4  C   -0.074058
     5  C   -0.458393
     6  C   -0.095746
     7  C   -0.414948
     8  H    0.117156
     9  H    0.131887
    10  H    0.107948
    11  H    0.036008
    12  H    0.158989
    13  H    0.094561
    14  H    0.094568
    15  H    0.143987
    16  H    0.154272
    17  H    0.143988
    18  H    0.036010
    19  H    0.158988
    20  H    0.131885
    21  H    0.117156
    22  H    0.107946
 Sum of Mulliken charges =  -0.00000

 Dipole moment (field-independent basis, Debye):
    X=             -0.0001    Y=              0.6949    Z=              0.8310  Tot=              1.0833
 Quadrupole moment (field-independent basis, Debye-Ang):
   XX=            -52.6329   YY=            -51.6617   ZZ=            -48.8342
   XY=             -0.0001   XZ=              0.0000   YZ=             -2.0267

 Summary of Natural Population Analysis:

                                       Natural Population
                Natural  -----------------------------------------------
    Atom  No    Charge         Core      Valence    Rydberg      Total
 -----------------------------------------------------------------------
      C    1   -0.69791      1.99944     4.68732    0.01114     6.69791
      C    2   -0.31906      1.99932     4.30116    0.01857     6.31906
      N    3   -0.04827      1.99930     5.03853    0.01043     7.04827
      C    4   -0.31903      1.99930     4.30110    0.01863     6.31903
      C    5   -0.69953      1.99943     4.68630    0.01380     6.69953
      C    6   -0.31906      1.99932     4.30116    0.01857     6.31906
      C    7   -0.69791      1.99944     4.68732    0.01114     6.69791
      H    8    0.21060      0.00000     0.77570    0.01371     0.78940
      H    9    0.21835      0.00000     0.77195    0.00969     0.78165
      H   10    0.19724      0.00000     0.78123    0.02153     0.80276
      H   11    0.13724      0.00000     0.80962    0.05314     0.86276
      H   12    0.24994      0.00000     0.73370    0.01636     0.75006
      H   13    0.19509      0.00000     0.77100    0.03391     0.80491
      H   14    0.19510      0.00000     0.77100    0.03390     0.80490
      H   15    0.22156      0.00000     0.76937    0.00907     0.77844
      H   16    0.24068      0.00000     0.75578    0.00354     0.75932
      H   17    0.22156      0.00000     0.76937    0.00907     0.77844
      H   18    0.13724      0.00000     0.80962    0.05314     0.86276
      H   19    0.24994      0.00000     0.73370    0.01636     0.75006
      H   20    0.21835      0.00000     0.77195    0.00969     0.78165
      H   21    0.21059      0.00000     0.77570    0.01371     0.78941
      H   22    0.19724      0.00000     0.78123    0.02153     0.80276
 =======================================================================
   * Total *   -0.00000     13.99556    43.58382    0.42062    58.00000

 Normal termination of Gaussian 16 at Mon Aug 24 17:32:48 2020.
