 Gaussian 16, Revision A.03,

 ---------------------------------
 # opt=CalcAll B3LYP/6-31G* scf=qc
 ---------------------------------

 -------------------
 Title Card Required
 -------------------
 Symbolic Z-matrix:
 Charge =  0 Multiplicity = 1

 SCF Done:  E(RB3LYP) =  -519.776436870     a.u. after    9 cycles
 SCF Done:  E(RB3LYP) =  -519.806351804     a.u. after   15 cycles
 SCF Done:  E(RB3LYP) =  -519.817608224     a.u. after   15 cycles
 SCF Done:  E(RB3LYP) =  -519.823479878     a.u. after   11 cycles
 SCF Done:  E(RB3LYP) =  -519.826534582     a.u. after   11 cycles
 SCF Done:  E(RB3LYP) =  -519.828564186     a.u. after   13 cycles
 SCF Done:  E(RB3LYP) =  -519.829347749     a.u. after    9 cycles
 SCF Done:  E(RB3LYP) =  -519.829447231     a.u. after    9 cycles
 SCF Done:  E(RB3LYP) =  -519.829452248     a.u. after    5 cycles
 SCF Done:  E(RB3LYP) =  -519.829452359     a.u. after    2 cycles
 Optimization completed.
    -- Stationary point found.
 Normal termination of Gaussian 16 at Mon Aug 24 16:44:19 2020.

 ----------------------------------------------------------------------
 # freq B3LYP/6-31G* scf=qc volume NMR pop=NPA density=current Geom=All
 Check Guess=Read
 ----------------------------------------------------------------------

 Structure from the checkpoint file:  "base_3_conf302.chk"
 -------------------
 Title Card Required
 -------------------
 Charge =  0 Multiplicity = 1

 SCF Done:  E(RB3LYP) =  -519.829452359     a.u. after    1 cycles

      1  N    Isotropic =   210.2961   Anisotropy =    59.8287

      2  C    Isotropic =    44.7810   Anisotropy =    69.4472

      3  N    Isotropic =    19.7348   Anisotropy =   285.3554

      4  C    Isotropic =   135.3676   Anisotropy =    31.4253

      5  C    Isotropic =   159.1521   Anisotropy =    39.1461

      6  C    Isotropic =   152.7019   Anisotropy =    46.8990

      7  C    Isotropic =   163.0971   Anisotropy =    32.4306

      8  N    Isotropic =   182.1510   Anisotropy =    82.9136

      9  C    Isotropic =   152.1235   Anisotropy =    52.2857

     10  C    Isotropic =   150.8958   Anisotropy =    45.6706

     11  C    Isotropic =   148.0091   Anisotropy =    53.5548

     12  C    Isotropic =   151.6467   Anisotropy =    54.8041

     13  H    Isotropic =    30.7494   Anisotropy =     6.9872

     14  H    Isotropic =    30.9932   Anisotropy =     5.7586

     15  H    Isotropic =    31.0561   Anisotropy =     8.2229

     16  H    Isotropic =    30.5396   Anisotropy =     6.6860

     17  H    Isotropic =    31.1935   Anisotropy =     8.2926

     18  H    Isotropic =    31.0198   Anisotropy =     6.5446

     19  H    Isotropic =    30.5618   Anisotropy =     6.0575

     20  H    Isotropic =    31.0884   Anisotropy =     5.7440

     21  H    Isotropic =    31.0453   Anisotropy =     7.8893

     22  H    Isotropic =    29.5585   Anisotropy =     4.5840

     23  H    Isotropic =    29.9835   Anisotropy =     9.2585

     24  H    Isotropic =    29.8830   Anisotropy =     9.0933

     25  H    Isotropic =    29.3335   Anisotropy =     7.1008

     26  H    Isotropic =    30.2736   Anisotropy =     9.0309

     27  H    Isotropic =    29.7961   Anisotropy =     8.3965

     28  H    Isotropic =    29.2970   Anisotropy =     6.0189

     29  H    Isotropic =    29.8058   Anisotropy =     9.4490

     30  H    Isotropic =    29.5096   Anisotropy =     7.9137

     31  H    Isotropic =    29.2317   Anisotropy =     6.8429

     32  H    Isotropic =    29.7707   Anisotropy =     9.6433

     33  H    Isotropic =    29.8845   Anisotropy =     8.3731

  Exact polarizability: 143.950  -1.401 121.708   0.482  -0.837  96.882
 Approx polarizability: 189.269  -5.916 166.670   4.470  -1.899 139.886

                      1                      2                      3
                      A                      A                      A
 Frequencies --     31.8072                67.1587                88.9555
 Red. masses --      2.5931                 2.7504                 2.5805
 Frc consts  --      0.0015                 0.0073                 0.0120
 IR Inten    --      0.2107                 0.4459                 2.1980

                      4                      5                      6
                      A                      A                      A
 Frequencies --    129.1625               133.8130               148.1969
 Red. masses --      1.7527                 2.1642                 2.0197
 Frc consts  --      0.0172                 0.0228                 0.0261
 IR Inten    --      2.0536                 1.3536                 0.6966

                      7                      8                      9
                      A                      A                      A
 Frequencies --    184.8083               201.7560               215.1821
 Red. masses --      1.7125                 1.2807                 1.1411
 Frc consts  --      0.0345                 0.0307                 0.0311
 IR Inten    --      0.2914                 0.5187                 0.1782

                     10                     11                     12
                      A                      A                      A
 Frequencies --    218.4844               226.3817               248.9382
 Red. masses --      1.1535                 1.5804                 1.3234
 Frc consts  --      0.0324                 0.0477                 0.0483
 IR Inten    --      0.9389                 1.0778                 2.4267

                     13                     14                     15
                      A                      A                      A
 Frequencies --    266.0688               271.3679               292.0567
 Red. masses --      1.1287                 1.9207                 1.3855
 Frc consts  --      0.0471                 0.0833                 0.0696
 IR Inten    --      1.3114                 0.8386                 3.1176

                     16                     17                     18
                      A                      A                      A
 Frequencies --    304.3157               329.7965               351.0223
 Red. masses --      2.2050                 2.7741                 2.4067
 Frc consts  --      0.1203                 0.1778                 0.1747
 IR Inten    --      4.3736                 2.8875                 1.3153

                     19                     20                     21
                      A                      A                      A
 Frequencies --    372.0214               379.4480               408.7489
 Red. masses --      2.6626                 2.4116                 2.4176
 Frc consts  --      0.2171                 0.2046                 0.2380
 IR Inten    --      5.5063                 1.3979                 1.9090

                     22                     23                     24
                      A                      A                      A
 Frequencies --    454.6130               503.9348               532.4472
 Red. masses --      2.4208                 3.5029                 3.2035
 Frc consts  --      0.2948                 0.5241                 0.5351
 IR Inten    --      0.7063                 8.1067                 0.1378

                     25                     26                     27
                      A                      A                      A
 Frequencies --    589.1904               694.2653               761.2789
 Red. masses --      3.4186                 5.2932                 7.6807
 Frc consts  --      0.6992                 1.5032                 2.6226
 IR Inten    --      9.8889                 2.2531                 9.2667

                     28                     29                     30
                      A                      A                      A
 Frequencies --    783.5531               909.8012               919.7574
 Red. masses --      3.6161                 2.3089                 2.3672
 Frc consts  --      1.3081                 1.1260                 1.1798
 IR Inten    --      1.1011                 8.5118                 5.8087

                     31                     32                     33
                      A                      A                      A
 Frequencies --    927.0524               953.3922               967.3206
 Red. masses --      1.7093                 3.0535                 1.2051
 Frc consts  --      0.8655                 1.6353                 0.6644
 IR Inten    --      0.4796                 5.8368                 0.2333

                     34                     35                     36
                      A                      A                      A
 Frequencies --   1045.2665              1056.1430              1065.6194
 Red. masses --      1.7840                 1.3961                 1.5135
 Frc consts  --      1.1484                 0.9175                 1.0126
 IR Inten    --     59.4445                 3.1442                18.5601

                     37                     38                     39
                      A                      A                      A
 Frequencies --   1081.0523              1096.9076              1131.7311
 Red. masses --      1.4305                 1.3800                 1.5487
 Frc consts  --      0.9850                 0.9783                 1.1687
 IR Inten    --     11.5197                 3.4046                83.2852

                     40                     41                     42
                      A                      A                      A
 Frequencies --   1135.6588              1149.6534              1182.1937
 Red. masses --      1.4503                 1.3525                 1.3499
 Frc consts  --      1.1021                 1.0532                 1.1116
 IR Inten    --     72.3918                32.7275                 3.4555

                     43                     44                     45
                      A                      A                      A
 Frequencies --   1184.2456              1246.4760              1248.4644
 Red. masses --      1.4161                 2.5044                 2.7358
 Frc consts  --      1.1701                 2.2926                 2.5124
 IR Inten    --     20.8608                79.1519                12.0955

                     46                     47                     48
                      A                      A                      A
 Frequencies --   1256.1588              1268.9023              1284.0508
 Red. masses --      2.8666                 4.4931                 4.9220
 Frc consts  --      2.6651                 4.2624                 4.7815
 IR Inten    --     14.1592                41.0592                18.1418

                     49                     50                     51
                      A                      A                      A
 Frequencies --   1361.3244              1396.7672              1416.9328
 Red. masses --      2.9647                 3.0561                 1.2428
 Frc consts  --      3.2371                 3.5129                 1.4701
 IR Inten    --     14.5417               206.2139                 3.4995

                     52                     53                     54
                      A                      A                      A
 Frequencies --   1419.9601              1448.5292              1460.9673
 Red. masses --      1.2393                 1.2243                 1.1540
 Frc consts  --      1.4722                 1.5135                 1.4512
 IR Inten    --      6.5753                 4.6954                 0.6064

                     55                     56                     57
                      A                      A                      A
 Frequencies --   1466.6233              1483.2249              1494.6302
 Red. masses --      1.1374                 1.1680                 1.1628
 Frc consts  --      1.4414                 1.5140                 1.5305
 IR Inten    --      2.7369                15.0326                13.8212

                     58                     59                     60
                      A                      A                      A
 Frequencies --   1503.5551              1505.2010              1509.5896
 Red. masses --      1.0581                 1.0730                 1.0571
 Frc consts  --      1.4093                 1.4323                 1.4194
 IR Inten    --      3.0714                 5.2890                 4.6149

                     61                     62                     63
                      A                      A                      A
 Frequencies --   1511.9143              1514.8543              1516.3336
 Red. masses --      1.0471                 1.0523                 1.0466
 Frc consts  --      1.4102                 1.4228                 1.4178
 IR Inten    --      0.7647                 7.8845                 0.7381

                     64                     65                     66
                      A                      A                      A
 Frequencies --   1518.9802              1529.4248              1530.7227
 Red. masses --      1.0655                 1.0537                 1.0553
 Frc consts  --      1.4485                 1.4523                 1.4568
 IR Inten    --      8.2148                11.1203                 7.1535

                     67                     68                     69
                      A                      A                      A
 Frequencies --   1532.5278              1542.1457              1545.6571
 Red. masses --      1.0560                 1.0552                 1.0546
 Frc consts  --      1.4612                 1.4785                 1.4845
 IR Inten    --      2.0737                10.0128                11.0833

                     70                     71                     72
                      A                      A                      A
 Frequencies --   1550.5371              1566.2835              1702.2265
 Red. masses --      1.0767                 1.1167                 9.2286
 Frc consts  --      1.5251                 1.6141                15.7550
 IR Inten    --      6.8344                30.5427               472.2378

                     73                     74                     75
                      A                      A                      A
 Frequencies --   2977.6312              2984.0475              2988.7866
 Red. masses --      1.0497                 1.0557                 1.0574
 Frc consts  --      5.4836                 5.5388                 5.5654
 IR Inten    --     39.8813               129.7659               103.7371

                     76                     77                     78
                      A                      A                      A
 Frequencies --   3015.9027              3025.4703              3033.8814
 Red. masses --      1.0490                 1.0905                 1.0906
 Frc consts  --      5.6216                 5.8810                 5.9143
 IR Inten    --     79.7312                63.3328                35.9236

                     79                     80                     81
                      A                      A                      A
 Frequencies --   3041.6421              3047.7747              3055.0919
 Red. masses --      1.0357                 1.0376                 1.0387
 Frc consts  --      5.6457                 5.6786                 5.7119
 IR Inten    --     23.1716                29.1376                36.2138

                     82                     83                     84
                      A                      A                      A
 Frequencies --   3078.2992              3081.7622              3104.8645
 Red. masses --      1.0852                 1.0916                 1.1015
 Frc consts  --      6.0586                 6.1083                 6.2563
 IR Inten    --     27.2087                64.8557                 1.5111

                     85                     86                     87
                      A                      A                      A
 Frequencies --   3110.6875              3116.9812              3126.3858
 Red. masses --      1.1010                 1.1007                 1.1027
 Frc consts  --      6.2769                 6.3006                 6.3502
 IR Inten    --     29.0794                82.1039                15.0888

                     88                     89                     90
                      A                      A                      A
 Frequencies --   3130.3723              3154.6946              3163.3208
 Red. masses --      1.1019                 1.0964                 1.0940
 Frc consts  --      6.3618                 6.4291                 6.4498
 IR Inten    --     49.6183                29.9644                 9.0078

                     91                     92                     93
                      A                      A                      A
 Frequencies --   3167.7339              3168.4116              3170.2395
 Red. masses --      1.0968                 1.0947                 1.0924
 Frc consts  --      6.4844                 6.4748                 6.4686
 IR Inten    --     13.4631                20.0648                 8.4829

 - Thermochemistry -
 -------------------
 Temperature   298.150 Kelvin.  Pressure   1.00000 Atm.
 Atom     1 has atomic number  7 and mass  14.00307

 Molecular mass:   171.17355 amu.
 Principal axes and moments of inertia in atomic units:
                           1         2         3
     Eigenvalues --  1507.522402533.467883285.59556
           X            1.00000  -0.00073  -0.00244
           Y            0.00074   0.99999   0.00428
           Z            0.00244  -0.00428   0.99999
 This molecule is an asymmetric top.
 Rotational symmetry number  1.
 Warning -- assumption of classical behavior for rotation
           may cause significant error
 Rotational temperatures (Kelvin)      0.05745     0.03419     0.02636
 Rotational constants (GHZ):           1.19716     0.71236     0.54929
 Zero-point vibrational energy     789963.1 (Joules/Mol)
                                  188.80571 (Kcal/Mol)
 Warning -- explicit consideration of  25 degrees of freedom as
           vibrations may cause significant error
 Vibrational temperatures:     45.76    96.63   127.99   185.84   192.53
          (Kelvin)            213.22   265.90   290.28   309.60   314.35
                              325.71   358.17   382.81   390.44   420.20
                              437.84   474.50   505.04   535.26   545.94
                              588.10   654.09   725.05   766.07   847.71
                              998.89  1095.31  1127.36  1309.00  1323.33
                             1333.82  1371.72  1391.76  1503.91  1519.55
                             1533.19  1555.39  1578.21  1628.31  1633.96
                             1654.09  1700.91  1703.87  1793.40  1796.26
                             1807.33  1825.67  1847.46  1958.64  2009.64
                             2038.65  2043.01  2084.11  2102.01  2110.14
                             2134.03  2150.44  2163.28  2165.65  2171.96
                             2175.31  2179.54  2181.67  2185.47  2200.50
                             2202.37  2204.97  2218.80  2223.86  2230.88
                             2253.53  2449.12  4284.15  4293.38  4300.20
                             4339.21  4352.98  4365.08  4376.24  4385.07
                             4395.60  4428.99  4433.97  4467.21  4475.59
                             4484.64  4498.17  4503.91  4538.90  4551.31
                             4557.66  4558.64  4561.27

 Zero-point correction=                           0.300881 (Hartree/Particle)
 Thermal correction to Energy=                    0.316644
 Thermal correction to Enthalpy=                  0.317588
 Thermal correction to Gibbs Free Energy=         0.259210
 Sum of electronic and zero-point Energies=           -519.528571
 Sum of electronic and thermal Energies=              -519.512809
 Sum of electronic and thermal Enthalpies=            -519.511864
 Sum of electronic and thermal Free Energies=         -519.570242

                     E (Thermal)             CV                S
                      KCal/Mol        Cal/Mol-Kelvin    Cal/Mol-Kelvin
 Total                  198.697             57.740            122.866
 Electronic               0.000              0.000              0.000
 Translational            0.889              2.981             41.320
 Rotational               0.889              2.981             30.907
 Vibrational            196.920             51.779             50.639
 Vibration     1          0.594              1.983              5.713
 Vibration     2          0.598              1.970              4.235
 Vibration     3          0.602              1.957              3.683
 Vibration     4          0.612              1.924              2.958
 Vibration     5          0.613              1.920              2.890
 Vibration     6          0.618              1.905              2.695
 Vibration     7          0.631              1.861              2.279
 Vibration     8          0.639              1.837              2.117
 Vibration     9          0.645              1.818              1.999
 Vibration    10          0.646              1.813              1.972
 Vibration    11          0.650              1.801              1.907
 Vibration    12          0.662              1.765              1.738
 Vibration    13          0.672              1.735              1.622
 Vibration    14          0.675              1.726              1.587
 Vibration    15          0.687              1.689              1.462
 Vibration    16          0.695              1.666              1.393
 Vibration    17          0.713              1.616              1.261
 Vibration    18          0.728              1.573              1.162
 Vibration    19          0.744              1.530              1.071
 Vibration    20          0.749              1.514              1.041
 Vibration    21          0.773              1.451              0.931
 Vibration    22          0.813              1.351              0.782
 Vibration    23          0.859              1.241              0.648
 Vibration    24          0.887              1.178              0.582
 Vibration    25          0.946              1.055              0.469

 Optimization completed.
    -- Stationary point found.
 Normal termination of Gaussian 16 at Mon Aug 24 16:51:03 2020.
 Gaussian 16:  ES64L-G16RevA.03 25-Dec-2016

 ----------------------------------------------------------------------
 # TD(NStates=10, Root=1) B3LYP/6-31G* scf=qc volume pop=NPA density=cu
 rrent Geom=AllCheck Guess=Read
 ----------------------------------------------------------------------

 Structure from the checkpoint file:  "base_3_conf303.chk"
 -------------------
 Title Card Required
 -------------------
 Charge =  0 Multiplicity = 1

                         Standard orientation:
 ---------------------------------------------------------------------
 Center     Atomic      Atomic             Coordinates (Angstroms)
 Number     Number       Type             X           Y           Z
 ---------------------------------------------------------------------
      1          7           0       -0.845172    1.214577   -0.137598
      2          6           0       -0.568736   -0.158483    0.029964
      3          7           0        0.561624   -0.724353    0.241558
      4          6           0        1.910615   -0.200706   -0.003586
      5          6           0        2.558827    0.206326    1.336879
      6          6           0        2.696462   -1.411105   -0.562459
      7          6           0        2.024066    0.949043   -1.028218
      8          7           0       -1.707741   -0.975558   -0.093614
      9          6           0       -2.889074   -0.652410    0.699695
     10          6           0       -1.483864   -2.407798   -0.226552
     11          6           0       -0.486104    2.182335    0.877851
     12          6           0       -1.762526    1.690115   -1.155431
     13          1           0        2.449841   -0.601543    2.068112
     14          1           0        2.101693    1.108862    1.755041
     15          1           0        3.628373    0.408099    1.202231
     16          1           0        2.632738   -2.254437    0.132287
     17          1           0        3.752871   -1.160948   -0.719780
     18          1           0        2.272448   -1.731833   -1.520936
     19          1           0        1.611333    1.891467   -0.663073
     20          1           0        1.508407    0.689378   -1.959669
     21          1           0        3.080608    1.121490   -1.267469
     22          1           0       -2.987275    0.427164    0.817482
     23          1           0       -2.840383   -1.104336    1.704957
     24          1           0       -3.790301   -1.029984    0.202364
     25          1           0       -0.675983   -2.587654   -0.936369
     26          1           0       -2.406190   -2.873665   -0.593416
     27          1           0       -1.202795   -2.880140    0.726996
     28          1           0        0.080291    1.693819    1.671121
     29          1           0       -1.388361    2.631040    1.327588
     30          1           0        0.121438    3.005364    0.471990
     31          1           0       -1.991876    0.880058   -1.849008
     32          1           0       -1.304534    2.517236   -1.717840
     33          1           0       -2.711317    2.064003   -0.733895
 ---------------------------------------------------------------------

 SCF Done:  E(RB3LYP) =  -519.829452359     a.u. after    1 cycles

 Excitation energies and oscillator strengths:

 Excited State   1:      Singlet-A      5.4516 eV  227.43 nm  f=0.0042  <S**2>=0.000
      46 -> 49         0.30904
      47 -> 49         0.51863
      48 -> 49        -0.36051
 This state for optimization and/or second-order correction.
 Total Energy, E(TD-HF/TD-DFT) =  -519.629110132
 Copying the excited state density for this state as the 1-particle RhoCI density.

 Excited State   2:      Singlet-A      5.9978 eV  206.72 nm  f=0.1131  <S**2>=0.000
      46 -> 49         0.57312
      48 -> 49         0.39136

 Excited State   3:      Singlet-A      6.2847 eV  197.28 nm  f=0.2789  <S**2>=0.000
      46 -> 49        -0.25401
      47 -> 49         0.45925
      48 -> 49         0.44145

 Excited State   4:      Singlet-A      6.4983 eV  190.80 nm  f=0.0068  <S**2>=0.000
      47 -> 50        -0.10247
      48 -> 50         0.68370

 Excited State   5:      Singlet-A      6.9198 eV  179.17 nm  f=0.0290  <S**2>=0.000
      46 -> 50        -0.24395
      47 -> 50         0.64076
      48 -> 50         0.12543

 Excited State   6:      Singlet-A      7.0578 eV  175.67 nm  f=0.0037  <S**2>=0.000
      46 -> 50         0.64313
      47 -> 50         0.26110

 Excited State   7:      Singlet-A      7.4160 eV  167.18 nm  f=0.0078  <S**2>=0.000
      48 -> 51         0.68246
      48 -> 53        -0.11771

 Excited State   8:      Singlet-A      7.6920 eV  161.19 nm  f=0.0148  <S**2>=0.000
      48 -> 52         0.68149

 Excited State   9:      Singlet-A      7.8209 eV  158.53 nm  f=0.0223  <S**2>=0.000
      47 -> 51         0.67151

 Excited State  10:      Singlet-A      7.9409 eV  156.13 nm  f=0.0095  <S**2>=0.000
      46 -> 51         0.58540
      46 -> 52         0.13005
      47 -> 52        -0.13689
      47 -> 53         0.10846
      48 -> 51        -0.10687
      48 -> 53        -0.27334

 The electronic state is 1-A.
 Alpha  occ. eigenvalues --  -14.33742 -14.33696 -14.27855 -10.26424 -10.21164
 Alpha  occ. eigenvalues --  -10.20867 -10.20858 -10.20809 -10.19422 -10.16069
 Alpha  occ. eigenvalues --  -10.15853 -10.15374  -0.96889  -0.89944  -0.86533
 Alpha  occ. eigenvalues --   -0.77042  -0.71591  -0.70450  -0.68210  -0.67181
 Alpha  occ. eigenvalues --   -0.66538  -0.63323  -0.56682  -0.52425  -0.50149
 Alpha  occ. eigenvalues --   -0.47227  -0.46454  -0.45260  -0.44299  -0.43262
 Alpha  occ. eigenvalues --   -0.42363  -0.41918  -0.40387  -0.39514  -0.38972
 Alpha  occ. eigenvalues --   -0.38246  -0.37734  -0.37449  -0.37225  -0.36393
 Alpha  occ. eigenvalues --   -0.35384  -0.34810  -0.32836  -0.31471  -0.29727
 Alpha  occ. eigenvalues --   -0.22026  -0.21458  -0.20159
 Alpha virt. eigenvalues --    0.04030   0.07085   0.10340   0.11254   0.12770
 Alpha virt. eigenvalues --    0.13209   0.13952   0.14386   0.15221   0.15692
 Alpha virt. eigenvalues --    0.16177   0.16816   0.17107   0.17445   0.18034

 Mulliken charges:
               1
     1  N   -0.398666
     2  C    0.525257
     3  N   -0.425540
     4  C    0.189155
     5  C   -0.426070
     6  C   -0.432072
     7  C   -0.441566
     8  N   -0.405455
     9  C   -0.293799
    10  C   -0.296459
    11  C   -0.307247
    12  C   -0.300362
    13  H    0.146013
    14  H    0.136488
    15  H    0.125519
    16  H    0.147214
    17  H    0.129683
    18  H    0.144889
    19  H    0.159996
    20  H    0.156981
    21  H    0.145305
    22  H    0.152095
    23  H    0.113172
    24  H    0.135125
    25  H    0.159787
    26  H    0.140106
    27  H    0.122877
    28  H    0.174946
    29  H    0.129745
    30  H    0.137873
    31  H    0.180831
    32  H    0.134880
    33  H    0.139298
 Sum of Mulliken charges =  -0.00000

 Dipole moment (field-independent basis, Debye):
    X=              0.0423    Y=              1.1417    Z=             -0.3626  Tot=              1.1986
 Quadrupole moment (field-independent basis, Debye-Ang):
   XX=            -74.9265   YY=            -74.9276   ZZ=            -77.9264
   XY=             -0.2948   XZ=             -0.3595   YZ=              0.3642

 Summary of Natural Population Analysis:

                                       Natural Population
                Natural  -----------------------------------------------
    Atom  No    Charge         Core      Valence    Rydberg      Total
 -----------------------------------------------------------------------
      N    1   -0.45648      1.99935     5.44455    0.01258     7.45648
      C    2    0.37821      1.99913     3.58838    0.03427     5.62179
      N    3   -0.33344      1.99898     5.31531    0.01914     7.33344
      C    4    0.09788      1.99908     3.88404    0.01901     5.90212
      C    5   -0.67641      1.99935     4.66658    0.01047     6.67641
      C    6   -0.66529      1.99935     4.65562    0.01032     6.66529
      C    7   -0.66113      1.99931     4.65235    0.00947     6.66113
      N    8   -0.49703      1.99939     5.48377    0.01386     7.49703
      C    9   -0.46049      1.99946     4.44880    0.01223     6.46049
      C   10   -0.46741      1.99949     4.45527    0.01265     6.46741
      C   11   -0.46580      1.99946     4.45405    0.01230     6.46580
      C   12   -0.46966      1.99946     4.45745    0.01275     6.46966
      H   13    0.23745      0.00000     0.76112    0.00143     0.76255
      H   14    0.22196      0.00000     0.77712    0.00092     0.77804
      H   15    0.22114      0.00000     0.77709    0.00177     0.77886
      H   16    0.23511      0.00000     0.76368    0.00121     0.76489
      H   17    0.22188      0.00000     0.77654    0.00158     0.77812
      H   18    0.23363      0.00000     0.76517    0.00120     0.76637
      H   19    0.23573      0.00000     0.76320    0.00107     0.76427
      H   20    0.24186      0.00000     0.75709    0.00105     0.75814
      H   21    0.23711      0.00000     0.76152    0.00137     0.76289
      H   22    0.22286      0.00000     0.77624    0.00090     0.77714
      H   23    0.18701      0.00000     0.80648    0.00651     0.81299
      H   24    0.21400      0.00000     0.78373    0.00226     0.78600
      H   25    0.23466      0.00000     0.76446    0.00088     0.76534
      H   26    0.22152      0.00000     0.77751    0.00097     0.77848
      H   27    0.19239      0.00000     0.80292    0.00469     0.80761
      H   28    0.23568      0.00000     0.76342    0.00090     0.76432
      H   29    0.20606      0.00000     0.79016    0.00378     0.79394
      H   30    0.20622      0.00000     0.79192    0.00186     0.79378
      H   31    0.25078      0.00000     0.74820    0.00102     0.74922
      H   32    0.20937      0.00000     0.78808    0.00255     0.79063
      H   33    0.21064      0.00000     0.78733    0.00202     0.78936
 =======================================================================
   * Total *    0.00000     23.99182    71.78919    0.21899    96.00000

 Normal termination of Gaussian 16 at Mon Aug 24 16:59:35 2020.
