 Gaussian 16, Revision A.03,

 ---------------------------------
 # opt=CalcAll B3LYP/6-31G* scf=qc
 ---------------------------------

 -------------------
 Title Card Required
 -------------------
 Symbolic Z-matrix:
 Charge =  0 Multiplicity = 1

 SCF Done:  E(RB3LYP) =  -519.785332107     a.u. after    9 cycles
 SCF Done:  E(RB3LYP) =  -519.764752354     a.u. after   15 cycles
 SCF Done:  E(RB3LYP) =  -519.801431433     a.u. after   13 cycles
 SCF Done:  E(RB3LYP) =  -519.816739732     a.u. after   15 cycles
 SCF Done:  E(RB3LYP) =  -519.824742257     a.u. after   13 cycles
 SCF Done:  E(RB3LYP) =  -519.823758264     a.u. after   13 cycles
 SCF Done:  E(RB3LYP) =  -519.762980257     a.u. after   15 cycles
 SCF Done:  E(RB3LYP) =  -519.782823732     a.u. after   14 cycles
 SCF Done:  E(RB3LYP) =  -519.824744071     a.u. after    2 cycles
 SCF Done:  E(RB3LYP) =  -519.823572299     a.u. after   15 cycles
 SCF Done:  E(RB3LYP) =  -519.824810949     a.u. after    3 cycles
 SCF Done:  E(RB3LYP) =  -519.826729921     a.u. after   11 cycles
 SCF Done:  E(RB3LYP) =  -519.828500582     a.u. after    9 cycles
 SCF Done:  E(RB3LYP) =  -519.829215764     a.u. after   11 cycles
 SCF Done:  E(RB3LYP) =  -519.829397430     a.u. after    9 cycles
 SCF Done:  E(RB3LYP) =  -519.829448570     a.u. after    9 cycles
 SCF Done:  E(RB3LYP) =  -519.829451758     a.u. after    4 cycles
 SCF Done:  E(RB3LYP) =  -519.829452317     a.u. after    3 cycles
 Optimization completed.
    -- Stationary point found.
 Normal termination of Gaussian 16 at Mon Aug 24 18:22:03 2020.

 ----------------------------------------------------------------------
 # freq B3LYP/6-31G* scf=qc volume NMR pop=NPA density=current Geom=All
 Check Guess=Read
 ----------------------------------------------------------------------

 Structure from the checkpoint file:  "base_3_conf62.chk"
 -------------------
 Title Card Required
 -------------------
 Charge =  0 Multiplicity = 1

 SCF Done:  E(RB3LYP) =  -519.829452317     a.u. after    1 cycles

      1  N    Isotropic =   210.2880   Anisotropy =    59.8149

      2  C    Isotropic =    44.7767   Anisotropy =    69.4744

      3  N    Isotropic =    19.7236   Anisotropy =   285.3686

      4  C    Isotropic =   135.3677   Anisotropy =    31.4300

      5  C    Isotropic =   163.0926   Anisotropy =    32.4382

      6  C    Isotropic =   152.7001   Anisotropy =    46.8991

      7  C    Isotropic =   159.1536   Anisotropy =    39.1460

      8  N    Isotropic =   182.1477   Anisotropy =    82.9195

      9  C    Isotropic =   152.1238   Anisotropy =    52.2784

     10  C    Isotropic =   150.8931   Anisotropy =    45.6713

     11  C    Isotropic =   151.6436   Anisotropy =    54.7997

     12  C    Isotropic =   148.0053   Anisotropy =    53.5695

     13  H    Isotropic =    31.0882   Anisotropy =     5.7443

     14  H    Isotropic =    30.5621   Anisotropy =     6.0533

     15  H    Isotropic =    31.0449   Anisotropy =     7.8888

     16  H    Isotropic =    31.0195   Anisotropy =     6.5443

     17  H    Isotropic =    31.1938   Anisotropy =     8.2931

     18  H    Isotropic =    30.5393   Anisotropy =     6.6856

     19  H    Isotropic =    30.9928   Anisotropy =     5.7578

     20  H    Isotropic =    30.7495   Anisotropy =     6.9872

     21  H    Isotropic =    31.0560   Anisotropy =     8.2225

     22  H    Isotropic =    29.5588   Anisotropy =     4.5837

     23  H    Isotropic =    29.8833   Anisotropy =     9.0933

     24  H    Isotropic =    29.9835   Anisotropy =     9.2575

     25  H    Isotropic =    29.3335   Anisotropy =     7.1013

     26  H    Isotropic =    29.7959   Anisotropy =     8.3957

     27  H    Isotropic =    30.2739   Anisotropy =     9.0305

     28  H    Isotropic =    29.2317   Anisotropy =     6.8438

     29  H    Isotropic =    29.8843   Anisotropy =     8.3689

     30  H    Isotropic =    29.7706   Anisotropy =     9.6442

     31  H    Isotropic =    29.2976   Anisotropy =     6.0190

     32  H    Isotropic =    29.5085   Anisotropy =     7.9140

     33  H    Isotropic =    29.8064   Anisotropy =     9.4467

  Exact polarizability: 143.949  -1.401 121.706   0.484  -0.837  96.879
 Approx polarizability: 189.267  -5.914 166.670   4.474  -1.901 139.886

                      1                      2                      3
                      A                      A                      A
 Frequencies --     31.8593                67.1327                88.9159
 Red. masses --      2.5944                 2.7509                 2.5811
 Frc consts  --      0.0016                 0.0073                 0.0120
 IR Inten    --      0.2110                 0.4455                 2.2015

                      4                      5                      6
                      A                      A                      A
 Frequencies --    129.3334               133.8016               148.1997
 Red. masses --      1.7530                 2.1648                 2.0182
 Frc consts  --      0.0173                 0.0228                 0.0261
 IR Inten    --      2.0398                 1.3534                 0.7025

                      7                      8                      9
                      A                      A                      A
 Frequencies --    184.8597               201.8086               215.2113
 Red. masses --      1.7114                 1.2825                 1.1417
 Frc consts  --      0.0345                 0.0308                 0.0312
 IR Inten    --      0.2908                 0.5204                 0.1761

                     10                     11                     12
                      A                      A                      A
 Frequencies --    218.5477               226.4612               248.9987
 Red. masses --      1.1521                 1.5797                 1.3228
 Frc consts  --      0.0324                 0.0477                 0.0483
 IR Inten    --      0.9376                 1.0779                 2.4158

                     13                     14                     15
                      A                      A                      A
 Frequencies --    266.1324               271.3823               292.0340
 Red. masses --      1.1294                 1.9211                 1.3844
 Frc consts  --      0.0471                 0.0834                 0.0696
 IR Inten    --      1.3285                 0.8366                 3.1118

                     16                     17                     18
                      A                      A                      A
 Frequencies --    304.3210               329.8256               351.0946
 Red. masses --      2.2067                 2.7734                 2.4063
 Frc consts  --      0.1204                 0.1778                 0.1748
 IR Inten    --      4.3802                 2.8831                 1.3149

                     19                     20                     21
                      A                      A                      A
 Frequencies --    372.0295               379.4523               408.7549
 Red. masses --      2.6615                 2.4123                 2.4177
 Frc consts  --      0.2170                 0.2046                 0.2380
 IR Inten    --      5.5015                 1.4061                 1.9091

                     22                     23                     24
                      A                      A                      A
 Frequencies --    454.6327               503.9304               532.4838
 Red. masses --      2.4207                 3.5028                 3.2034
 Frc consts  --      0.2948                 0.5241                 0.5351
 IR Inten    --      0.7079                 8.1078                 0.1383

                     25                     26                     27
                      A                      A                      A
 Frequencies --    589.2253               694.3001               761.3102
 Red. masses --      3.4191                 5.2930                 7.6806
 Frc consts  --      0.6994                 1.5033                 2.6228
 IR Inten    --      9.8894                 2.2507                 9.2692

                     28                     29                     30
                      A                      A                      A
 Frequencies --    783.5723               909.8020               919.7745
 Red. masses --      3.6159                 2.3085                 2.3676
 Frc consts  --      1.3081                 1.1258                 1.1801
 IR Inten    --      1.1009                 8.5002                 5.8125

                     31                     32                     33
                      A                      A                      A
 Frequencies --    927.0640               953.4360               967.3291
 Red. masses --      1.7092                 3.0533                 1.2052
 Frc consts  --      0.8655                 1.6353                 0.6644
 IR Inten    --      0.4803                 5.8349                 0.2339

                     34                     35                     36
                      A                      A                      A
 Frequencies --   1045.3056              1056.1439              1065.6459
 Red. masses --      1.7829                 1.3962                 1.5140
 Frc consts  --      1.1478                 0.9176                 1.0130
 IR Inten    --     59.3031                 3.1696                18.6346

                     37                     38                     39
                      A                      A                      A
 Frequencies --   1081.0584              1096.9389              1131.7590
 Red. masses --      1.4306                 1.3800                 1.5431
 Frc consts  --      0.9851                 0.9784                 1.1645
 IR Inten    --     11.5051                 3.3993                82.0039

                     40                     41                     42
                      A                      A                      A
 Frequencies --   1135.6842              1149.7156              1182.2265
 Red. masses --      1.4544                 1.3530                 1.3500
 Frc consts  --      1.1052                 1.0537                 1.1117
 IR Inten    --     73.4171                32.8423                 3.5207

                     43                     44                     45
                      A                      A                      A
 Frequencies --   1184.2632              1246.4704              1248.4739
 Red. masses --      1.4161                 2.5042                 2.7358
 Frc consts  --      1.1702                 2.2924                 2.5124
 IR Inten    --     20.8064                79.1410                12.1043

                     46                     47                     48
                      A                      A                      A
 Frequencies --   1256.1631              1268.9399              1284.0781
 Red. masses --      2.8663                 4.4903                 4.9251
 Frc consts  --      2.6648                 4.2600                 4.7846
 IR Inten    --     14.1401                41.0537                18.1298

                     49                     50                     51
                      A                      A                      A
 Frequencies --   1361.3204              1396.8342              1416.9278
 Red. masses --      2.9648                 3.0558                 1.2428
 Frc consts  --      3.2372                 3.5129                 1.4701
 IR Inten    --     14.5930               206.1565                 3.4997

                     52                     53                     54
                      A                      A                      A
 Frequencies --   1419.9517              1448.5265              1460.9811
 Red. masses --      1.2393                 1.2243                 1.1540
 Frc consts  --      1.4722                 1.5135                 1.4512
 IR Inten    --      6.5731                 4.6928                 0.6089

                     55                     56                     57
                      A                      A                      A
 Frequencies --   1466.6503              1483.2468              1494.6483
 Red. masses --      1.1374                 1.1679                 1.1627
 Frc consts  --      1.4415                 1.5139                 1.5304
 IR Inten    --      2.7477                15.0035                13.8491

                     58                     59                     60
                      A                      A                      A
 Frequencies --   1503.5601              1505.1990              1509.6173
 Red. masses --      1.0581                 1.0731                 1.0572
 Frc consts  --      1.4093                 1.4324                 1.4196
 IR Inten    --      3.0705                 5.2822                 4.6489

                     61                     62                     63
                      A                      A                      A
 Frequencies --   1511.9081              1514.8638              1516.3307
 Red. masses --      1.0471                 1.0523                 1.0466
 Frc consts  --      1.4102                 1.4228                 1.4178
 IR Inten    --      0.7658                 7.9050                 0.7197

                     64                     65                     66
                      A                      A                      A
 Frequencies --   1518.9896              1529.4209              1530.7184
 Red. masses --      1.0656                 1.0537                 1.0552
 Frc consts  --      1.4487                 1.4523                 1.4568
 IR Inten    --      8.2437                11.1078                 7.1621

                     67                     68                     69
                      A                      A                      A
 Frequencies --   1532.5416              1542.1474              1545.6576
 Red. masses --      1.0560                 1.0552                 1.0547
 Frc consts  --      1.4613                 1.4786                 1.4845
 IR Inten    --      2.0734                 9.9811                11.1054

                     70                     71                     72
                      A                      A                      A
 Frequencies --   1550.5402              1566.3025              1702.2054
 Red. masses --      1.0766                 1.1168                 9.2271
 Frc consts  --      1.5250                 1.6143                15.7522
 IR Inten    --      6.8079                30.6015               472.2015

                     73                     74                     75
                      A                      A                      A
 Frequencies --   2977.5118              2983.9585              2988.7564
 Red. masses --      1.0498                 1.0557                 1.0574
 Frc consts  --      5.4836                 5.5384                 5.5653
 IR Inten    --     40.2961               129.6529               103.3889

                     76                     77                     78
                      A                      A                      A
 Frequencies --   3015.9122              3025.3722              3033.9373
 Red. masses --      1.0490                 1.0905                 1.0905
 Frc consts  --      5.6217                 5.8809                 5.9139
 IR Inten    --     79.7410                62.9669                36.2485

                     79                     80                     81
                      A                      A                      A
 Frequencies --   3041.6367              3047.7648              3055.0810
 Red. masses --      1.0357                 1.0376                 1.0387
 Frc consts  --      5.6457                 5.6785                 5.7119
 IR Inten    --     23.1713                29.1578                36.1864

                     82                     83                     84
                      A                      A                      A
 Frequencies --   3078.3480              3081.7819              3104.8440
 Red. masses --      1.0852                 1.0916                 1.1015
 Frc consts  --      6.0588                 6.1083                 6.2562
 IR Inten    --     26.9875                65.0578                 1.5244

                     85                     86                     87
                      A                      A                      A
 Frequencies --   3110.6699              3116.9641              3126.3826
 Red. masses --      1.1010                 1.1007                 1.1027
 Frc consts  --      6.2769                 6.3005                 6.3502
 IR Inten    --     29.0570                82.1464                15.0455

                     88                     89                     90
                      A                      A                      A
 Frequencies --   3130.3686              3154.6964              3163.3340
 Red. masses --      1.1019                 1.0964                 1.0940
 Frc consts  --      6.3618                 6.4291                 6.4498
 IR Inten    --     49.6164                29.9902                 9.0088

                     91                     92                     93
                      A                      A                      A
 Frequencies --   3167.7383              3168.4228              3170.2910
 Red. masses --      1.0968                 1.0947                 1.0924
 Frc consts  --      6.4844                 6.4749                 6.4688
 IR Inten    --     13.4633                20.0810                 8.4834

 - Thermochemistry -
 -------------------
 Temperature   298.150 Kelvin.  Pressure   1.00000 Atm.
 Atom     1 has atomic number  7 and mass  14.00307

 Molecular mass:   171.17355 amu.
 Principal axes and moments of inertia in atomic units:
                           1         2         3
     Eigenvalues --  1507.417992533.439583285.55290
           X            1.00000  -0.00073  -0.00244
           Y            0.00074   0.99999   0.00428
           Z            0.00244  -0.00429   0.99999
 This molecule is an asymmetric top.
 Rotational symmetry number  1.
 Warning -- assumption of classical behavior for rotation
           may cause significant error
 Rotational temperatures (Kelvin)      0.05746     0.03419     0.02636
 Rotational constants (GHZ):           1.19724     0.71237     0.54930
 Zero-point vibrational energy     789970.4 (Joules/Mol)
                                  188.80747 (Kcal/Mol)
 Warning -- explicit consideration of  25 degrees of freedom as
           vibrations may cause significant error
 Vibrational temperatures:     45.84    96.59   127.93   186.08   192.51
          (Kelvin)            213.23   265.97   290.36   309.64   314.44
                              325.83   358.25   382.91   390.46   420.17
                              437.85   474.55   505.15   535.27   545.95
                              588.11   654.12   725.04   766.13   847.76
                              998.94  1095.36  1127.39  1309.00  1323.35
                             1333.84  1371.78  1391.77  1503.96  1519.56
                             1533.23  1555.40  1578.25  1628.35  1634.00
                             1654.18  1700.96  1703.89  1793.39  1796.28
                             1807.34  1825.72  1847.50  1958.64  2009.73
                             2038.64  2042.99  2084.11  2102.03  2110.18
                             2134.06  2150.47  2163.29  2165.65  2172.00
                             2175.30  2179.55  2181.66  2185.49  2200.50
                             2202.36  2204.99  2218.81  2223.86  2230.88
                             2253.56  2449.09  4283.98  4293.25  4300.15
                             4339.22  4352.84  4365.16  4376.24  4385.05
                             4395.58  4429.06  4434.00  4467.18  4475.56
                             4484.62  4498.17  4503.90  4538.90  4551.33
                             4557.67  4558.65  4561.34

 Zero-point correction=                           0.300884 (Hartree/Particle)
 Thermal correction to Energy=                    0.316645
 Thermal correction to Enthalpy=                  0.317590
 Thermal correction to Gibbs Free Energy=         0.259216
 Sum of electronic and zero-point Energies=           -519.528568
 Sum of electronic and thermal Energies=              -519.512807
 Sum of electronic and thermal Enthalpies=            -519.511863
 Sum of electronic and thermal Free Energies=         -519.570236

                     E (Thermal)             CV                S
                      KCal/Mol        Cal/Mol-Kelvin    Cal/Mol-Kelvin
 Total                  198.698             57.739            122.858
 Electronic               0.000              0.000              0.000
 Translational            0.889              2.981             41.320
 Rotational               0.889              2.981             30.907
 Vibrational            196.921             51.777             50.631
 Vibration     1          0.594              1.983              5.710
 Vibration     2          0.598              1.970              4.236
 Vibration     3          0.602              1.957              3.684
 Vibration     4          0.612              1.924              2.956
 Vibration     5          0.613              1.920              2.891
 Vibration     6          0.618              1.905              2.695
 Vibration     7          0.631              1.861              2.279
 Vibration     8          0.639              1.837              2.117
 Vibration     9          0.645              1.818              1.999
 Vibration    10          0.646              1.813              1.971
 Vibration    11          0.650              1.801              1.907
 Vibration    12          0.662              1.764              1.738
 Vibration    13          0.672              1.735              1.621
 Vibration    14          0.675              1.726              1.587
 Vibration    15          0.687              1.689              1.462
 Vibration    16          0.695              1.666              1.393
 Vibration    17          0.713              1.616              1.261
 Vibration    18          0.728              1.573              1.161
 Vibration    19          0.744              1.530              1.071
 Vibration    20          0.749              1.514              1.041
 Vibration    21          0.773              1.451              0.931
 Vibration    22          0.813              1.351              0.782
 Vibration    23          0.859              1.241              0.648
 Vibration    24          0.887              1.178              0.582
 Vibration    25          0.946              1.055              0.469

                           ! Non-Optimized Parameters !
 Normal termination of Gaussian 16 at Mon Aug 24 18:28:10 2020.
 Gaussian 16:  ES64L-G16RevA.03 25-Dec-2016

 ----------------------------------------------------------------------
 # TD(NStates=10, Root=1) B3LYP/6-31G* scf=qc volume pop=NPA density=cu
 rrent Geom=AllCheck Guess=Read
 ----------------------------------------------------------------------

 Structure from the checkpoint file:  "base_3_conf63.chk"
 -------------------
 Title Card Required
 -------------------
 Charge =  0 Multiplicity = 1

                         Standard orientation:
 ---------------------------------------------------------------------
 Center     Atomic      Atomic             Coordinates (Angstroms)
 Number     Number       Type             X           Y           Z
 ---------------------------------------------------------------------
      1          7           0        0.845049   -1.214505    0.137795
      2          6           0        0.568686    0.158483   -0.029948
      3          7           0       -0.561686    0.724274   -0.241752
      4          6           0       -1.910640    0.200597    0.003594
      5          6           0       -2.024019   -0.948622    1.028828
      6          6           0       -2.696600    1.411235    0.561796
      7          6           0       -2.558802   -0.207278   -1.336635
      8          7           0        1.707641    0.975607    0.093717
      9          6           0        2.888994    0.652470   -0.699562
     10          6           0        1.483612    2.407855    0.226340
     11          6           0        1.762845   -1.689919    1.155243
     12          6           0        0.486376   -2.182218   -0.877816
     13          1           0       -1.508078   -0.688579    1.960025
     14          1           0       -1.611566   -1.891296    0.664032
     15          1           0       -3.080529   -1.120735    1.268451
     16          1           0       -2.272639    1.732505    1.520115
     17          1           0       -3.752997    1.161087    0.719215
     18          1           0       -2.632907    2.254200   -0.133398
     19          1           0       -2.101840   -1.110276   -1.753996
     20          1           0       -2.449540    0.599998   -2.068483
     21          1           0       -3.628414   -0.408690   -1.201969
     22          1           0        2.987605   -0.427126   -0.816803
     23          1           0        3.790118    1.030631   -0.202500
     24          1           0        2.840059    1.103850   -1.705062
     25          1           0        0.675712    2.587782    0.936117
     26          1           0        1.202486    2.879957   -0.727309
     27          1           0        2.405891    2.873896    0.593101
     28          1           0        1.991861   -0.880012    1.849104
     29          1           0        2.711800   -2.063117    0.733414
     30          1           0        1.305402   -2.517526    1.717367
     31          1           0       -0.079355   -1.693560   -1.671458
     32          1           0       -0.121631   -3.005120   -0.472359
     33          1           0        1.388827   -2.631126   -1.326970
 ---------------------------------------------------------------------

 SCF Done:  E(RB3LYP) =  -519.829452317     a.u. after    1 cycles

 Excitation energies and oscillator strengths:

 Excited State   1:      Singlet-A      5.4516 eV  227.43 nm  f=0.0042  <S**2>=0.000
      46 -> 49         0.30835
      47 -> 49         0.51953
      48 -> 49        -0.35980
 This state for optimization and/or second-order correction.
 Total Energy, E(TD-HF/TD-DFT) =  -519.629110735
 Copying the excited state density for this state as the 1-particle RhoCI density.

 Excited State   2:      Singlet-A      5.9977 eV  206.72 nm  f=0.1132  <S**2>=0.000
      46 -> 49         0.57278
      48 -> 49         0.39203

 Excited State   3:      Singlet-A      6.2848 eV  197.27 nm  f=0.2788  <S**2>=0.000
      46 -> 49        -0.25558
      47 -> 49         0.45844
      48 -> 49         0.44141

 Excited State   4:      Singlet-A      6.4986 eV  190.79 nm  f=0.0068  <S**2>=0.000
      47 -> 50        -0.10225
      48 -> 50         0.68372

 Excited State   5:      Singlet-A      6.9201 eV  179.17 nm  f=0.0290  <S**2>=0.000
      46 -> 50        -0.24448
      47 -> 50         0.64059
      48 -> 50         0.12532

 Excited State   6:      Singlet-A      7.0575 eV  175.68 nm  f=0.0037  <S**2>=0.000
      46 -> 50         0.64293
      47 -> 50         0.26162

 Excited State   7:      Singlet-A      7.4169 eV  167.17 nm  f=0.0078  <S**2>=0.000
      48 -> 51         0.68250
      48 -> 53        -0.11755

 Excited State   8:      Singlet-A      7.6923 eV  161.18 nm  f=0.0148  <S**2>=0.000
      48 -> 52         0.68150

 Excited State   9:      Singlet-A      7.8213 eV  158.52 nm  f=0.0224  <S**2>=0.000
      47 -> 51         0.67161

 Excited State  10:      Singlet-A      7.9413 eV  156.13 nm  f=0.0095  <S**2>=0.000
      46 -> 51         0.58531
      46 -> 52         0.13078
      47 -> 52        -0.13752
      47 -> 53         0.10851
      48 -> 51        -0.10689
      48 -> 53        -0.27254

 The electronic state is 1-A.
 Alpha  occ. eigenvalues --  -14.33743 -14.33697 -14.27855 -10.26424 -10.21165
 Alpha  occ. eigenvalues --  -10.20867 -10.20857 -10.20810 -10.19423 -10.16069
 Alpha  occ. eigenvalues --  -10.15853 -10.15373  -0.96891  -0.89946  -0.86533
 Alpha  occ. eigenvalues --   -0.77042  -0.71591  -0.70450  -0.68211  -0.67181
 Alpha  occ. eigenvalues --   -0.66538  -0.63324  -0.56681  -0.52426  -0.50150
 Alpha  occ. eigenvalues --   -0.47227  -0.46455  -0.45261  -0.44300  -0.43262
 Alpha  occ. eigenvalues --   -0.42362  -0.41918  -0.40388  -0.39514  -0.38972
 Alpha  occ. eigenvalues --   -0.38246  -0.37734  -0.37449  -0.37225  -0.36392
 Alpha  occ. eigenvalues --   -0.35384  -0.34810  -0.32835  -0.31470  -0.29727
 Alpha  occ. eigenvalues --   -0.22027  -0.21459  -0.20161
 Alpha virt. eigenvalues --    0.04029   0.07084   0.10341   0.11254   0.12772
 Alpha virt. eigenvalues --    0.13208   0.13951   0.14387   0.15224   0.15691
 Alpha virt. eigenvalues --    0.16177   0.16815   0.17105   0.17444   0.18035

 Mulliken charges:
               1
     1  N   -0.398711
     2  C    0.525329
     3  N   -0.425531
     4  C    0.189178
     5  C   -0.441546
     6  C   -0.432101
     7  C   -0.426075
     8  N   -0.405473
     9  C   -0.293787
    10  C   -0.296472
    11  C   -0.300355
    12  C   -0.307212
    13  H    0.156990
    14  H    0.160016
    15  H    0.145302
    16  H    0.144904
    17  H    0.129706
    18  H    0.147225
    19  H    0.136500
    20  H    0.146015
    21  H    0.125535
    22  H    0.152099
    23  H    0.135129
    24  H    0.113155
    25  H    0.159782
    26  H    0.122880
    27  H    0.140120
    28  H    0.180806
    29  H    0.139245
    30  H    0.134893
    31  H    0.174911
    32  H    0.137839
    33  H    0.129703
 Sum of Mulliken charges =  -0.00000

 Dipole moment (field-independent basis, Debye):
    X=             -0.0435    Y=             -1.1389    Z=              0.3626  Tot=              1.1961
 Quadrupole moment (field-independent basis, Debye-Ang):
   XX=            -74.9239   YY=            -74.9297   ZZ=            -77.9273
   XY=             -0.2938   XZ=             -0.3607   YZ=              0.3638

 Summary of Natural Population Analysis:

                                       Natural Population
                Natural  -----------------------------------------------
    Atom  No    Charge         Core      Valence    Rydberg      Total
 -----------------------------------------------------------------------
      N    1   -0.45666      1.99935     5.44473    0.01258     7.45666
      C    2    0.37823      1.99913     3.58836    0.03428     5.62177
      N    3   -0.33328      1.99898     5.31515    0.01914     7.33328
      C    4    0.09786      1.99908     3.88405    0.01901     5.90214
      C    5   -0.66113      1.99931     4.65236    0.00947     6.66113
      C    6   -0.66529      1.99935     4.65562    0.01032     6.66529
      C    7   -0.67642      1.99935     4.66660    0.01047     6.67642
      N    8   -0.49701      1.99939     5.48376    0.01386     7.49701
      C    9   -0.46048      1.99946     4.44880    0.01223     6.46048
      C   10   -0.46742      1.99949     4.45528    0.01265     6.46742
      C   11   -0.46963      1.99946     4.45742    0.01275     6.46963
      C   12   -0.46579      1.99946     4.45404    0.01230     6.46579
      H   13    0.24187      0.00000     0.75708    0.00105     0.75813
      H   14    0.23575      0.00000     0.76318    0.00107     0.76425
      H   15    0.23710      0.00000     0.76153    0.00137     0.76290
      H   16    0.23364      0.00000     0.76517    0.00120     0.76636
      H   17    0.22189      0.00000     0.77653    0.00157     0.77811
      H   18    0.23511      0.00000     0.76367    0.00121     0.76489
      H   19    0.22198      0.00000     0.77710    0.00092     0.77802
      H   20    0.23745      0.00000     0.76111    0.00143     0.76255
      H   21    0.22116      0.00000     0.77708    0.00177     0.77884
      H   22    0.22286      0.00000     0.77625    0.00090     0.77714
      H   23    0.21401      0.00000     0.78373    0.00226     0.78599
      H   24    0.18699      0.00000     0.80649    0.00652     0.81301
      H   25    0.23466      0.00000     0.76447    0.00088     0.76534
      H   26    0.19239      0.00000     0.80292    0.00469     0.80761
      H   27    0.22153      0.00000     0.77750    0.00097     0.77847
      H   28    0.25077      0.00000     0.74821    0.00102     0.74923
      H   29    0.21058      0.00000     0.78739    0.00203     0.78942
      H   30    0.20939      0.00000     0.78806    0.00255     0.79061
      H   31    0.23567      0.00000     0.76343    0.00090     0.76433
      H   32    0.20620      0.00000     0.79194    0.00186     0.79380
      H   33    0.20602      0.00000     0.79020    0.00378     0.79398
 =======================================================================
   * Total *    0.00000     23.99182    71.78919    0.21899    96.00000

 Normal termination of Gaussian 16 at Mon Aug 24 18:35:25 2020.
