 Gaussian 16, Revision A.03,

 ---------------------------------
 # opt=CalcAll B3LYP/6-31G* scf=qc
 ---------------------------------

 -------------------
 Title Card Required
 -------------------
 Symbolic Z-matrix:
 Charge =  0 Multiplicity = 1

 SCF Done:  E(RB3LYP) =  -438.818913449     a.u. after    8 cycles
 SCF Done:  E(RB3LYP) =  -438.823285548     a.u. after    9 cycles
 SCF Done:  E(RB3LYP) =  -438.823895024     a.u. after   11 cycles
 SCF Done:  E(RB3LYP) =  -438.823919070     a.u. after    5 cycles
 SCF Done:  E(RB3LYP) =  -438.823919971     a.u. after    3 cycles
 Optimization completed.
    -- Stationary point found.
 Normal termination of Gaussian 16 at Mon Aug 24 16:08:35 2020.

 ----------------------------------------------------------------------
 # freq B3LYP/6-31G* scf=qc volume NMR pop=NPA density=current Geom=All
 Check Guess=Read
 ----------------------------------------------------------------------

 Structure from the checkpoint file:  "base_10_conf12.chk"
 -------------------
 Title Card Required
 -------------------
 Charge =  0 Multiplicity = 1

 SCF Done:  E(RB3LYP) =  -438.823919971     a.u. after    1 cycles

      1  N    Isotropic =   180.6860   Anisotropy =    43.2935

      2  C    Isotropic =   140.9439   Anisotropy =    35.9676

      3  C    Isotropic =   164.7996   Anisotropy =     5.0627

      4  C    Isotropic =   145.1597   Anisotropy =    26.4305

      5  N    Isotropic =    85.0001   Anisotropy =   231.0142

      6  C    Isotropic =    50.6300   Anisotropy =   101.2758

      7  N    Isotropic =   180.6167   Anisotropy =    76.2899

      8  C    Isotropic =   147.7559   Anisotropy =    23.6999

      9  C    Isotropic =   164.8099   Anisotropy =     7.4066

     10  C    Isotropic =   140.4348   Anisotropy =    37.0686

     11  H    Isotropic =    29.1813   Anisotropy =     7.6698

     12  H    Isotropic =    29.6231   Anisotropy =     6.4780

     13  H    Isotropic =    30.7984   Anisotropy =     8.7654

     14  H    Isotropic =    30.2648   Anisotropy =     7.5613

     15  H    Isotropic =    28.8805   Anisotropy =     7.9212

     16  H    Isotropic =    28.9154   Anisotropy =     7.9006

     17  H    Isotropic =    29.6211   Anisotropy =    11.1791

     18  H    Isotropic =    29.0233   Anisotropy =     8.4062

     19  H    Isotropic =    29.3527   Anisotropy =     8.6231

     20  H    Isotropic =    30.8044   Anisotropy =     9.1169

     21  H    Isotropic =    30.0429   Anisotropy =     7.8405

     22  H    Isotropic =    29.2003   Anisotropy =     7.7076

     23  H    Isotropic =    29.6159   Anisotropy =     6.3665

  Exact polarizability: 116.336  -3.039  89.542   0.444   0.735  67.262
 Approx polarizability: 149.303  -9.504 130.715   2.968   1.053 102.962

                      1                      2                      3
                      A                      A                      A
 Frequencies --     99.2579               114.3580               178.4519
 Red. masses --      2.5459                 2.5769                 3.2280
 Frc consts  --      0.0148                 0.0199                 0.0606
 IR Inten    --      1.1180                 3.7546                 3.4254

                      4                      5                      6
                      A                      A                      A
 Frequencies --    219.4487               310.7414               333.1106
 Red. masses --      3.1099                 1.8230                 1.8487
 Frc consts  --      0.0882                 0.1037                 0.1209
 IR Inten    --      3.2822                 5.7104                 7.8202

                      7                      8                      9
                      A                      A                      A
 Frequencies --    363.4680               453.1787               470.1772
 Red. masses --      3.6005                 3.6882                 3.5248
 Frc consts  --      0.2803                 0.4463                 0.4591
 IR Inten    --      1.1160                 3.6453                 1.1271

                     10                     11                     12
                      A                      A                      A
 Frequencies --    501.4002               583.8963               617.2848
 Red. masses --      3.4490                 1.6397                 2.0735
 Frc consts  --      0.5109                 0.3294                 0.4655
 IR Inten    --      7.8276                36.7158                20.4886

                     13                     14                     15
                      A                      A                      A
 Frequencies --    708.8581               719.1959               737.9386
 Red. masses --      4.3798                 4.9656                 1.8461
 Frc consts  --      1.2966                 1.5133                 0.5923
 IR Inten    --      6.0595                21.5052                73.1612

                     16                     17                     18
                      A                      A                      A
 Frequencies --    877.1920               892.8414               906.2668
 Red. masses --      2.4089                 1.9556                 1.6802
 Frc consts  --      1.0921                 0.9185                 0.8130
 IR Inten    --      0.7896                 6.9040                 0.3998

                     19                     20                     21
                      A                      A                      A
 Frequencies --    918.7903               926.8563               946.1263
 Red. masses --      2.1943                 1.3440                 2.3605
 Frc consts  --      1.0914                 0.6803                 1.2450
 IR Inten    --      0.4229                 1.4237                 5.8237

                     22                     23                     24
                      A                      A                      A
 Frequencies --   1029.9186              1037.9404              1092.8008
 Red. masses --      2.0417                 1.9164                 3.1702
 Frc consts  --      1.2760                 1.2164                 2.2306
 IR Inten    --     12.6206                 1.1647                24.0108

                     25                     26                     27
                      A                      A                      A
 Frequencies --   1131.4104              1137.5210              1155.8149
 Red. masses --      2.0651                 1.8932                 1.8296
 Frc consts  --      1.5575                 1.4433                 1.4401
 IR Inten    --     21.8237                11.1517                11.6583

                     28                     29                     30
                      A                      A                      A
 Frequencies --   1197.9026              1201.7306              1239.8274
 Red. masses --      2.0329                 2.0001                 1.5504
 Frc consts  --      1.7187                 1.7018                 1.4042
 IR Inten    --     41.9227                 5.5487                 4.0923

                     31                     32                     33
                      A                      A                      A
 Frequencies --   1242.3907              1253.8882              1279.1510
 Red. masses --      1.2393                 1.3523                 1.8162
 Frc consts  --      1.1271                 1.2527                 1.7509
 IR Inten    --      3.7827                10.2547                28.4826

                     34                     35                     36
                      A                      A                      A
 Frequencies --   1310.6363              1326.4187              1353.6071
 Red. masses --      1.1984                 1.3043                 1.6730
 Frc consts  --      1.2128                 1.3520                 1.8061
 IR Inten    --     30.2160                13.9947                76.1908

                     37                     38                     39
                      A                      A                      A
 Frequencies --   1374.8491              1392.6302              1400.6703
 Red. masses --      1.3403                 1.3915                 1.4424
 Frc consts  --      1.4927                 1.5900                 1.6673
 IR Inten    --     27.9641                 4.0573                13.8541

                     40                     41                     42
                      A                      A                      A
 Frequencies --   1410.6071              1422.7265              1473.3391
 Red. masses --      1.5309                 1.6220                 1.5691
 Frc consts  --      1.7948                 1.9344                 2.0067
 IR Inten    --    104.0998                22.6910                19.2219

                     43                     44                     45
                      A                      A                      A
 Frequencies --   1494.1532              1507.4337              1511.3709
 Red. masses --      1.7948                 1.1308                 1.1122
 Frc consts  --      2.3607                 1.5140                 1.4969
 IR Inten    --     82.2094                10.5512                 4.1550

                     46                     47                     48
                      A                      A                      A
 Frequencies --   1528.5226              1539.7055              1551.9119
 Red. masses --      1.1009                 1.0980                 1.1134
 Frc consts  --      1.5155                 1.5337                 1.5799
 IR Inten    --      4.3551                13.3926                 9.8028

                     49                     50                     51
                      A                      A                      A
 Frequencies --   1563.4299              1727.5291              2946.1767
 Red. masses --      1.1931                 5.8205                 1.0742
 Frc consts  --      1.7182                10.2343                 5.4934
 IR Inten    --     29.5727               417.9150                24.7804

                     52                     53                     54
                      A                      A                      A
 Frequencies --   2956.6100              2963.1343              2988.3705
 Red. masses --      1.0741                 1.0736                 1.0738
 Frc consts  --      5.5319                 5.5538                 5.6498
 IR Inten    --    116.6051                82.9281                94.4036

                     55                     56                     57
                      A                      A                      A
 Frequencies --   3040.3595              3050.9900              3055.1246
 Red. masses --      1.0808                 1.0796                 1.0804
 Frc consts  --      5.8866                 5.9208                 5.9413
 IR Inten    --     25.3869                48.7528                18.4107

                     58                     59                     60
                      A                      A                      A
 Frequencies --   3062.5998              3068.3019              3085.1092
 Red. masses --      1.0786                 1.0687                 1.0867
 Frc consts  --      5.9604                 5.9276                 6.0942
 IR Inten    --     68.1116                49.4424                55.4359

                     61                     62                     63
                      A                      A                      A
 Frequencies --   3095.3264              3112.7239              3586.9305
 Red. masses --      1.1058                 1.1063                 1.0753
 Frc consts  --      6.2424                 6.3156                 8.1513
 IR Inten    --     45.8369                34.2235                17.8713

 - Thermochemistry -
 -------------------
 Temperature   298.150 Kelvin.  Pressure   1.00000 Atm.
 Atom     1 has atomic number  7 and mass  14.00307

 Molecular mass:   139.11095 amu.
 Principal axes and moments of inertia in atomic units:
                           1         2         3
     Eigenvalues --   669.624991603.543712154.46473
           X            0.99998   0.00673  -0.00216
           Y           -0.00673   0.99998  -0.00054
           Z            0.00216   0.00056   1.00000
 This molecule is an asymmetric top.
 Rotational symmetry number  1.
 Warning -- assumption of classical behavior for rotation
           may cause significant error
 Rotational temperatures (Kelvin)      0.12935     0.05401     0.04020
 Rotational constants (GHZ):           2.69515     1.12547     0.83767
 Zero-point vibrational energy     542987.6 (Joules/Mol)
                                  129.77715 (Kcal/Mol)
 Warning -- explicit consideration of  12 degrees of freedom as
           vibrations may cause significant error
 Vibrational temperatures:    142.81   164.54   256.75   315.74   447.09
          (Kelvin)            479.27   522.95   652.02   676.48   721.40
                              840.10   888.14  1019.89  1034.76  1061.73
                             1262.08  1284.60  1303.92  1321.93  1333.54
                             1361.26  1481.82  1493.36  1572.30  1627.85
                             1636.64  1662.96  1723.51  1729.02  1783.84
                             1787.52  1804.07  1840.41  1885.71  1908.42
                             1947.54  1978.10  2003.68  2015.25  2029.55
                             2046.99  2119.81  2149.75  2168.86  2174.53
                             2199.20  2215.29  2232.86  2249.43  2485.53
                             4238.89  4253.90  4263.29  4299.60  4374.40
                             4389.69  4395.64  4406.40  4414.60  4438.78
                             4453.48  4478.52  5160.79

 Zero-point correction=                           0.206813 (Hartree/Particle)
 Thermal correction to Energy=                    0.215371
 Thermal correction to Enthalpy=                  0.216315
 Thermal correction to Gibbs Free Energy=         0.173463
 Sum of electronic and zero-point Energies=           -438.617107
 Sum of electronic and thermal Energies=              -438.608549
 Sum of electronic and thermal Enthalpies=            -438.607605
 Sum of electronic and thermal Free Energies=         -438.650457

                     E (Thermal)             CV                S
                      KCal/Mol        Cal/Mol-Kelvin    Cal/Mol-Kelvin
 Total                  135.147             33.928             90.189
 Electronic               0.000              0.000              0.000
 Translational            0.889              2.981             40.702
 Rotational               0.889              2.981             29.227
 Vibrational            133.370             27.966             20.260
 Vibration     1          0.604              1.950              3.469
 Vibration     2          0.607              1.938              3.194
 Vibration     3          0.629              1.869              2.345
 Vibration     4          0.647              1.811              1.964
 Vibration     5          0.700              1.653              1.358
 Vibration     6          0.715              1.609              1.245
 Vibration     7          0.737              1.547              1.107
 Vibration     8          0.812              1.354              0.786
 Vibration     9          0.827              1.316              0.737
 Vibration    10          0.857              1.247              0.655
 Vibration    11          0.941              1.066              0.478
 Vibration    12          0.977              0.995              0.421

 Optimization completed.
    -- Stationary point found.
 Normal termination of Gaussian 16 at Mon Aug 24 16:13:13 2020.
 Gaussian 16:  ES64L-G16RevA.03 25-Dec-2016

 ----------------------------------------------------------------------
 # TD(NStates=10, Root=1) B3LYP/6-31G* scf=qc volume pop=NPA density=cu
 rrent Geom=AllCheck Guess=Read
 ----------------------------------------------------------------------

 Structure from the checkpoint file:  "base_10_conf13.chk"
 -------------------
 Title Card Required
 -------------------
 Charge =  0 Multiplicity = 1

                         Standard orientation:
 ---------------------------------------------------------------------
 Center     Atomic      Atomic             Coordinates (Angstroms)
 Number     Number       Type             X           Y           Z
 ---------------------------------------------------------------------
      1          7           0        0.023103    0.673901   -0.110353
      2          6           0        1.263044    1.381855    0.193983
      3          6           0        2.452231    0.606689   -0.365833
      4          6           0        2.418246   -0.825755    0.179499
      5          7           0        1.112613   -1.459248    0.087951
      6          6           0        0.064865   -0.722503   -0.039188
      7          7           0       -1.156099   -1.372126   -0.231840
      8          6           0       -2.408044   -0.770916    0.204668
      9          6           0       -2.439369    0.672188   -0.289069
     10          6           0       -1.199450    1.401033    0.221965
     11          1           0        1.379749    1.524206    1.283625
     12          1           0        1.197260    2.381483   -0.254237
     13          1           0        3.389632    1.110826   -0.101498
     14          1           0        2.381250    0.589374   -1.460390
     15          1           0        2.749265   -0.827699    1.231247
     16          1           0        3.144169   -1.447615   -0.361502
     17          1           0       -1.042361   -2.360697   -0.041566
     18          1           0       -2.529877   -0.789181    1.303314
     19          1           0       -3.235407   -1.347435   -0.223405
     20          1           0       -3.341244    1.183229    0.065984
     21          1           0       -2.448186    0.679642   -1.384747
     22          1           0       -1.282148    1.551265    1.314843
     23          1           0       -1.128554    2.399362   -0.228135
 ---------------------------------------------------------------------

 SCF Done:  E(RB3LYP) =  -438.823919971     a.u. after    1 cycles

 Excitation energies and oscillator strengths:

 Excited State   1:      Singlet-A      6.0183 eV  206.01 nm  f=0.0607  <S**2>=0.000
      36 -> 39         0.13941
      37 -> 39         0.49702
      38 -> 39         0.46449
 This state for optimization and/or second-order correction.
 Total Energy, E(TD-HF/TD-DFT) =  -438.602751052
 Copying the excited state density for this state as the 1-particle RhoCI density.

 Excited State   2:      Singlet-A      6.2102 eV  199.65 nm  f=0.1242  <S**2>=0.000
      36 -> 39        -0.18146
      37 -> 39        -0.42721
      38 -> 39         0.49396
      38 -> 40        -0.14583

 Excited State   3:      Singlet-A      6.7392 eV  183.97 nm  f=0.0460  <S**2>=0.000
      36 -> 39         0.62742
      37 -> 39        -0.22266
      37 -> 40         0.12260
      38 -> 40        -0.14423
      38 -> 41        -0.10703

 Excited State   4:      Singlet-A      6.8442 eV  181.15 nm  f=0.0890  <S**2>=0.000
      36 -> 39         0.12884
      38 -> 39         0.13935
      38 -> 40         0.65502

 Excited State   5:      Singlet-A      7.1238 eV  174.04 nm  f=0.0443  <S**2>=0.000
      36 -> 39         0.11425
      37 -> 40        -0.11987
      38 -> 41         0.66518

 Excited State   6:      Singlet-A      7.3850 eV  167.89 nm  f=0.0166  <S**2>=0.000
      36 -> 39        -0.10846
      37 -> 40         0.61782
      38 -> 41         0.16770
      38 -> 42        -0.22084

 Excited State   7:      Singlet-A      7.5911 eV  163.33 nm  f=0.0023  <S**2>=0.000
      36 -> 40         0.11269
      37 -> 40         0.25774
      37 -> 41        -0.14061
      38 -> 42         0.62098

 Excited State   8:      Singlet-A      7.8038 eV  158.88 nm  f=0.0023  <S**2>=0.000
      36 -> 40        -0.17241
      37 -> 41         0.61198
      38 -> 42         0.19564
      38 -> 43        -0.19191

 Excited State   9:      Singlet-A      7.8668 eV  157.61 nm  f=0.0289  <S**2>=0.000
      36 -> 40         0.16923
      37 -> 41         0.23876
      38 -> 43         0.62278
      38 -> 44        -0.11731

 Excited State  10:      Singlet-A      7.9618 eV  155.72 nm  f=0.0404  <S**2>=0.000
      36 -> 40         0.62391
      37 -> 41         0.12184
      38 -> 43        -0.23058

 The electronic state is 1-A.
 Alpha  occ. eigenvalues --  -14.34310 -14.32926 -14.27022 -10.26221 -10.22255
 Alpha  occ. eigenvalues --  -10.21974 -10.21480 -10.19252 -10.19078 -10.17721
 Alpha  occ. eigenvalues --   -0.97769  -0.89571  -0.86546  -0.77413  -0.76568
 Alpha  occ. eigenvalues --   -0.67505  -0.65703  -0.64001  -0.57418  -0.53231
 Alpha  occ. eigenvalues --   -0.50581  -0.49136  -0.46930  -0.45971  -0.44159
 Alpha  occ. eigenvalues --   -0.43175  -0.41148  -0.40532  -0.40212  -0.37589
 Alpha  occ. eigenvalues --   -0.36676  -0.34915  -0.34206  -0.32728  -0.31643
 Alpha  occ. eigenvalues --   -0.23589  -0.21634  -0.19200
 Alpha virt. eigenvalues --    0.05157   0.08848   0.10269   0.12107   0.12734
 Alpha virt. eigenvalues --    0.13926   0.14550   0.15646   0.16335   0.17052
 Alpha virt. eigenvalues --    0.17635   0.18617   0.18848   0.19402   0.19694

 Mulliken charges:
               1
     1  N   -0.393728
     2  C   -0.108568
     3  C   -0.289700
     4  C   -0.130857
     5  N   -0.462661
     6  C    0.639114
     7  N   -0.610060
     8  C   -0.106686
     9  C   -0.251696
    10  C   -0.102650
    11  H    0.097314
    12  H    0.149228
    13  H    0.141625
    14  H    0.149328
    15  H    0.114850
    16  H    0.162276
    17  H    0.316197
    18  H    0.085035
    19  H    0.125901
    20  H    0.125436
    21  H    0.138933
    22  H    0.083862
    23  H    0.127507
 Sum of Mulliken charges =  -0.00000

 Dipole moment (field-independent basis, Debye):
    X=              0.4576    Y=              1.1823    Z=             -0.2773  Tot=              1.2977
 Quadrupole moment (field-independent basis, Debye-Ang):
   XX=            -57.0848   YY=            -59.4307   ZZ=            -65.3332
   XY=              1.9844   XZ=             -1.1167   YZ=             -0.5899

 Summary of Natural Population Analysis:

                                       Natural Population
                Natural  -----------------------------------------------
    Atom  No    Charge         Core      Valence    Rydberg      Total
 -----------------------------------------------------------------------
      N    1   -0.36955      1.99935     5.35513    0.01507     7.36955
      C    2   -0.25851      1.99932     4.24316    0.01602     6.25851
      C    3   -0.48605      1.99930     4.47448    0.01227     6.48605
      C    4   -0.29327      1.99929     4.27600    0.01798     6.29327
      N    5   -0.37414      1.99912     5.35691    0.01811     7.37414
      C    6    0.41943      1.99926     3.54371    0.03760     5.58057
      N    7   -0.66946      1.99943     5.65399    0.01604     7.66946
      C    8   -0.25746      1.99932     4.24075    0.01739     6.25746
      C    9   -0.48239      1.99932     4.47056    0.01252     6.48239
      C   10   -0.26387      1.99931     4.24696    0.01761     6.26387
      H   11    0.18184      0.00000     0.79347    0.02469     0.81816
      H   12    0.24363      0.00000     0.75159    0.00478     0.75637
      H   13    0.24547      0.00000     0.74914    0.00539     0.75453
      H   14    0.23587      0.00000     0.75817    0.00595     0.76413
      H   15    0.19454      0.00000     0.78896    0.01651     0.80546
      H   16    0.25616      0.00000     0.74240    0.00144     0.74384
      H   17    0.40982      0.00000     0.58704    0.00313     0.59018
      H   18    0.17191      0.00000     0.80986    0.01823     0.82809
      H   19    0.22607      0.00000     0.76809    0.00584     0.77393
      H   20    0.23595      0.00000     0.75723    0.00682     0.76405
      H   21    0.23138      0.00000     0.76093    0.00769     0.76862
      H   22    0.17614      0.00000     0.79585    0.02801     0.82386
      H   23    0.22651      0.00000     0.76343    0.01007     0.77349
 =======================================================================
   * Total *    0.00000     19.99303    55.68781    0.31916    76.00000

 Normal termination of Gaussian 16 at Mon Aug 24 16:18:30 2020.
