 Gaussian 16, Revision A.03,

 ---------------------------------
 # opt=CalcAll B3LYP/6-31G* scf=qc
 ---------------------------------

 -------------------
 Title Card Required
 -------------------
 Symbolic Z-matrix:
 Charge =  0 Multiplicity = 1

 SCF Done:  E(RB3LYP) =  -292.396295039     a.u. after    7 cycles
 SCF Done:  E(RB3LYP) =  -292.400893100     a.u. after   13 cycles
 SCF Done:  E(RB3LYP) =  -292.410531065     a.u. after   13 cycles
 SCF Done:  E(RB3LYP) =  -292.412298989     a.u. after    9 cycles
 SCF Done:  E(RB3LYP) =  -292.412675754     a.u. after    9 cycles
 SCF Done:  E(RB3LYP) =  -292.412693410     a.u. after    4 cycles
 SCF Done:  E(RB3LYP) =  -292.412693543     a.u. after    2 cycles
 Optimization completed.
    -- Stationary point found.
 Normal termination of Gaussian 16 at Mon Aug 24 16:39:30 2020.

 ----------------------------------------------------------------------
 # freq B3LYP/6-31G* scf=qc volume NMR pop=NPA density=current Geom=All
 Check Guess=Read
 ----------------------------------------------------------------------

 Structure from the checkpoint file:  "base_4_conf12.chk"
 -------------------
 Title Card Required
 -------------------
 Charge =  0 Multiplicity = 1

 SCF Done:  E(RB3LYP) =  -292.412693543     a.u. after    1 cycles

      1  C    Isotropic =   175.2006   Anisotropy =    21.0214

      2  C    Isotropic =   147.4499   Anisotropy =    40.2572

      3  N    Isotropic =   217.8208   Anisotropy =    45.7649

      4  C    Isotropic =   144.3127   Anisotropy =    45.0062

      5  C    Isotropic =   176.5221   Anisotropy =    16.4577

      6  C    Isotropic =   135.4626   Anisotropy =    56.9208

      7  C    Isotropic =   174.7636   Anisotropy =    17.5920

      8  H    Isotropic =    31.2887   Anisotropy =     9.5832

      9  H    Isotropic =    31.2198   Anisotropy =     8.5539

     10  H    Isotropic =    30.8871   Anisotropy =     6.4132

     11  H    Isotropic =    29.8852   Anisotropy =     6.4865

     12  H    Isotropic =    28.8512   Anisotropy =     5.6086

     13  H    Isotropic =    28.9043   Anisotropy =     6.8735

     14  H    Isotropic =    29.5453   Anisotropy =     6.8013

     15  H    Isotropic =    30.6138   Anisotropy =     5.7437

     16  H    Isotropic =    31.5974   Anisotropy =     9.7750

     17  H    Isotropic =    31.2919   Anisotropy =     7.1119

     18  H    Isotropic =    29.2604   Anisotropy =     7.0667

     19  H    Isotropic =    29.1843   Anisotropy =     7.5723

     20  H    Isotropic =    31.1777   Anisotropy =     6.3289

     21  H    Isotropic =    31.6013   Anisotropy =     9.7596

     22  H    Isotropic =    30.7731   Anisotropy =     5.6978

  Exact polarizability:  78.225   1.329  74.022  -1.665   1.442  63.773
 Approx polarizability:  97.067   1.718  97.931  -3.113   2.473  91.075

                      1                      2                      3
                      A                      A                      A
 Frequencies --     58.7428                88.5545               117.7166
 Red. masses --      1.9106                 2.1029                 1.8671
 Frc consts  --      0.0039                 0.0097                 0.0152
 IR Inten    --      0.0272                 0.1781                 0.2632

                      4                      5                      6
                      A                      A                      A
 Frequencies --    175.2170               221.9971               244.4404
 Red. masses --      2.0616                 1.1210                 1.1730
 Frc consts  --      0.0373                 0.0326                 0.0413
 IR Inten    --      2.4993                 0.1956                 0.2091

                      7                      8                      9
                      A                      A                      A
 Frequencies --    281.2153               290.7502               346.8369
 Red. masses --      1.3570                 2.0973                 2.5191
 Frc consts  --      0.0632                 0.1045                 0.1785
 IR Inten    --      0.5312                 0.3673                 0.4747

                     10                     11                     12
                      A                      A                      A
 Frequencies --    433.2068               466.6834               536.4484
 Red. masses --      2.0184                 2.3759                 2.5963
 Frc consts  --      0.2232                 0.3049                 0.4402
 IR Inten    --      1.0768                 2.9939                10.6239

                     13                     14                     15
                      A                      A                      A
 Frequencies --    728.3130               782.0131               795.7622
 Red. masses --      2.6127                 1.1299                 1.1677
 Frc consts  --      0.8165                 0.4071                 0.4356
 IR Inten    --      2.5121                 1.6181                 6.2440

                     16                     17                     18
                      A                      A                      A
 Frequencies --    817.9544               905.1903               923.8853
 Red. masses --      1.1384                 2.1315                 1.9854
 Frc consts  --      0.4487                 1.0290                 0.9985
 IR Inten    --      2.4779                 0.4329                 1.9579

                     19                     20                     21
                      A                      A                      A
 Frequencies --   1003.5598              1065.4392              1084.5338
 Red. masses --      2.6852                 2.2603                 2.1922
 Frc consts  --      1.5934                 1.5117                 1.5192
 IR Inten    --     10.3362                 4.7106                14.8450

                     22                     23                     24
                      A                      A                      A
 Frequencies --   1102.4051              1121.9048              1129.9831
 Red. masses --      1.6782                 1.7373                 1.8004
 Frc consts  --      1.2016                 1.2883                 1.3544
 IR Inten    --      2.0872                26.6198                36.0892

                     25                     26                     27
                      A                      A                      A
 Frequencies --   1159.0637              1256.7274              1261.3314
 Red. masses --      1.6937                 2.0076                 2.2452
 Frc consts  --      1.3406                 1.8681                 2.1046
 IR Inten    --     11.6597                22.3127                27.6876

                     28                     29                     30
                      A                      A                      A
 Frequencies --   1325.7768              1375.0179              1401.7031
 Red. masses --      1.1082                 1.3041                 1.2776
 Frc consts  --      1.1476                 1.4528                 1.4790
 IR Inten    --      1.9827                24.0160                12.2354

                     31                     32                     33
                      A                      A                      A
 Frequencies --   1403.4522              1411.8787              1428.9905
 Red. masses --      1.2461                 1.3107                 1.2402
 Frc consts  --      1.4461                 1.5393                 1.4921
 IR Inten    --     16.4165                18.3651                16.5891

                     34                     35                     36
                      A                      A                      A
 Frequencies --   1429.4073              1436.3945              1445.8891
 Red. masses --      1.2485                 1.2440                 1.3894
 Frc consts  --      1.5030                 1.5123                 1.7114
 IR Inten    --      3.9718                15.8104                18.3717

                     37                     38                     39
                      A                      A                      A
 Frequencies --   1500.7059              1511.6629              1514.8277
 Red. masses --      1.0677                 1.0659                 1.0461
 Frc consts  --      1.4168                 1.4351                 1.4144
 IR Inten    --      1.6022                 5.3940                 1.4042

                     40                     41                     42
                      A                      A                      A
 Frequencies --   1525.1566              1526.2319              1531.2605
 Red. masses --      1.0475                 1.0528                 1.0495
 Frc consts  --      1.4357                 1.4449                 1.4499
 IR Inten    --      3.8595                 3.5140                 1.6780

                     43                     44                     45
                      A                      A                      A
 Frequencies --   1534.9201              1537.9148              1552.7906
 Red. masses --      1.0499                 1.0626                 1.0893
 Frc consts  --      1.4574                 1.4807                 1.5475
 IR Inten    --      3.3797                 3.4090                 1.1885

                     46                     47                     48
                      A                      A                      A
 Frequencies --   2938.2958              3018.3402              3033.2747
 Red. masses --      1.0737                 1.0630                 1.0629
 Frc consts  --      5.4614                 5.7060                 5.7618
 IR Inten    --     70.9794                45.6488                42.5687

                     49                     50                     51
                      A                      A                      A
 Frequencies --   3046.8224              3050.4378              3052.1735
 Red. masses --      1.0365                 1.0382                 1.0625
 Frc consts  --      5.6692                 5.6918                 5.8318
 IR Inten    --     20.9942                27.4431                26.7884

                     52                     53                     54
                      A                      A                      A
 Frequencies --   3053.5193              3060.8440              3071.8103
 Red. masses --      1.0596                 1.1001                 1.1005
 Frc consts  --      5.8209                 6.0727                 6.1185
 IR Inten    --     15.3060                22.5405                32.3674

                     55                     56                     57
                      A                      A                      A
 Frequencies --   3108.5154              3110.8231              3117.4818
 Red. masses --      1.1007                 1.0999                 1.1014
 Frc consts  --      6.2664                 6.2711                 6.3070
 IR Inten    --     42.9320                64.6952                31.1585

                     58                     59                     60
                      A                      A                      A
 Frequencies --   3124.6499              3126.6843              3137.1182
 Red. masses --      1.1030                 1.1034                 1.1005
 Frc consts  --      6.3449                 6.3556                 6.3812
 IR Inten    --     42.3497                39.5632                42.4415

 - Thermochemistry -
 -------------------
 Temperature   298.150 Kelvin.  Pressure   1.00000 Atm.
 Atom     1 has atomic number  6 and mass  12.00000

 Molecular mass:   101.12045 amu.
 Principal axes and moments of inertia in atomic units:
                           1         2         3
     Eigenvalues --   625.80438 903.378501232.97403
           X            0.99999   0.00141   0.00301
           Y           -0.00141   1.00000   0.00151
           Z           -0.00301  -0.00152   0.99999
 This molecule is an asymmetric top.
 Rotational symmetry number  1.
 Warning -- assumption of classical behavior for rotation
           may cause significant error
 Rotational temperatures (Kelvin)      0.13840     0.09588     0.07025
 Rotational constants (GHZ):           2.88387     1.99777     1.46373
 Zero-point vibrational energy     543371.7 (Joules/Mol)
                                  129.86894 (Kcal/Mol)
 Warning -- explicit consideration of  12 degrees of freedom as
           vibrations may cause significant error
 Vibrational temperatures:     84.52   127.41   169.37   252.10   319.40
          (Kelvin)            351.70   404.61   418.32   499.02   623.29
                              671.45   771.83  1047.88  1125.14  1144.92
                             1176.85  1302.37  1329.26  1443.90  1532.93
                             1560.40  1586.12  1614.17  1625.79  1667.63
                             1808.15  1814.77  1907.50  1978.34  2016.74
                             2019.25  2031.38  2056.00  2056.60  2066.65
                             2080.31  2159.18  2174.95  2179.50  2194.36
                             2195.91  2203.14  2208.41  2212.72  2234.12
                             4227.55  4342.72  4364.21  4383.70  4388.90
                             4391.40  4393.33  4403.87  4419.65  4472.46
                             4475.78  4485.36  4495.67  4498.60  4513.61

 Zero-point correction=                           0.206959 (Hartree/Particle)
 Thermal correction to Energy=                    0.216410
 Thermal correction to Enthalpy=                  0.217354
 Thermal correction to Gibbs Free Energy=         0.172935
 Sum of electronic and zero-point Energies=           -292.205734
 Sum of electronic and thermal Energies=              -292.196284
 Sum of electronic and thermal Enthalpies=            -292.195339
 Sum of electronic and thermal Free Energies=         -292.239758

                     E (Thermal)             CV                S
                      KCal/Mol        Cal/Mol-Kelvin    Cal/Mol-Kelvin
 Total                  135.799             33.750             93.487
 Electronic               0.000              0.000              0.000
 Translational            0.889              2.981             39.751
 Rotational               0.889              2.981             28.035
 Vibrational            134.022             27.789             25.701
 Vibration     1          0.596              1.974              4.499
 Vibration     2          0.601              1.957              3.692
 Vibration     3          0.608              1.935              3.138
 Vibration     4          0.627              1.873              2.379
 Vibration     5          0.648              1.808              1.943
 Vibration     6          0.660              1.772              1.770
 Vibration     7          0.681              1.708              1.526
 Vibration     8          0.687              1.691              1.470
 Vibration     9          0.725              1.582              1.181
 Vibration    10          0.794              1.398              0.848
 Vibration    11          0.824              1.324              0.747
 Vibration    12          0.891              1.169              0.573

 Optimization completed.
    -- Stationary point found.
 Normal termination of Gaussian 16 at Mon Aug 24 16:42:18 2020.
 Gaussian 16:  ES64L-G16RevA.03 25-Dec-2016

 ----------------------------------------------------------------------
 # TD(NStates=10, Root=1) B3LYP/6-31G* scf=qc volume pop=NPA density=cu
 rrent Geom=AllCheck Guess=Read
 ----------------------------------------------------------------------

 Structure from the checkpoint file:  "base_4_conf13.chk"
 -------------------
 Title Card Required
 -------------------
 Charge =  0 Multiplicity = 1

                         Standard orientation:
 ---------------------------------------------------------------------
 Center     Atomic      Atomic             Coordinates (Angstroms)
 Number     Number       Type             X           Y           Z
 ---------------------------------------------------------------------
      1          6           0        2.376434   -0.810721   -0.138047
      2          6           0        0.878043   -0.933264   -0.430596
      3          7           0        0.042231   -0.270029    0.564168
      4          6           0        0.234863    1.169473    0.724721
      5          6           0        0.057199    2.074836   -0.510360
      6          6           0       -1.327076   -0.768760    0.642703
      7          6           0       -2.249003   -0.590087   -0.580138
      8          1           0        2.948333   -1.423185   -0.844458
      9          1           0        2.597723   -1.152817    0.878678
     10          1           0        2.734434    0.220017   -0.235690
     11          1           0        0.606087   -1.996709   -0.414557
     12          1           0        0.685957   -0.587198   -1.464061
     13          1           0        1.245444    1.334117    1.121912
     14          1           0       -0.452818    1.498428    1.513774
     15          1           0        0.736611    1.789975   -1.321855
     16          1           0        0.284517    3.114158   -0.242708
     17          1           0       -0.963407    2.046378   -0.903965
     18          1           0       -1.797950   -0.299864    1.516703
     19          1           0       -1.265335   -1.843283    0.868110
     20          1           0       -2.467411    0.463344   -0.782252
     21          1           0       -3.204766   -1.099466   -0.404107
     22          1           0       -1.805795   -1.022556   -1.484394
 ---------------------------------------------------------------------

 SCF Done:  E(RB3LYP) =  -292.412693543     a.u. after    1 cycles

 Excitation energies and oscillator strengths:

 Excited State   1:      Singlet-A      6.3206 eV  196.16 nm  f=0.0122  <S**2>=0.000
      29 -> 30         0.70416
 This state for optimization and/or second-order correction.
 Total Energy, E(TD-HF/TD-DFT) =  -292.180414888
 Copying the excited state density for this state as the 1-particle RhoCI density.

 Excited State   2:      Singlet-A      7.2063 eV  172.05 nm  f=0.0057  <S**2>=0.000
      29 -> 31         0.65334
      29 -> 32         0.21840
      29 -> 33         0.13677

 Excited State   3:      Singlet-A      7.4267 eV  166.94 nm  f=0.0051  <S**2>=0.000
      29 -> 31        -0.21625
      29 -> 32         0.66611

 Excited State   4:      Singlet-A      7.4996 eV  165.32 nm  f=0.0183  <S**2>=0.000
      29 -> 31        -0.14368
      29 -> 33         0.68828

 Excited State   5:      Singlet-A      8.0748 eV  153.54 nm  f=0.0205  <S**2>=0.000
      29 -> 34         0.67548
      29 -> 36         0.16735

 Excited State   6:      Singlet-A      8.2531 eV  150.23 nm  f=0.0055  <S**2>=0.000
      29 -> 35         0.65520
      29 -> 36        -0.22195

 Excited State   7:      Singlet-A      8.4778 eV  146.25 nm  f=0.0121  <S**2>=0.000
      29 -> 34        -0.18155
      29 -> 35         0.21148
      29 -> 36         0.62618
      29 -> 39         0.10121

 Excited State   8:      Singlet-A      8.6423 eV  143.46 nm  f=0.0103  <S**2>=0.000
      29 -> 37         0.69458

 Excited State   9:      Singlet-A      8.8985 eV  139.33 nm  f=0.0685  <S**2>=0.000
      29 -> 38         0.69196

 Excited State  10:      Singlet-A      9.0185 eV  137.48 nm  f=0.0317  <S**2>=0.000
      29 -> 36        -0.10385
      29 -> 39         0.69413

 The electronic state is 1-A.
 Alpha  occ. eigenvalues --  -14.30963 -10.20151 -10.20089 -10.20083 -10.16956
 Alpha  occ. eigenvalues --  -10.16870 -10.16838  -0.90612  -0.75241  -0.74827
 Alpha  occ. eigenvalues --   -0.70150  -0.62986  -0.61590  -0.54627  -0.48097
 Alpha  occ. eigenvalues --   -0.46876  -0.44318  -0.41159  -0.41052  -0.40382
 Alpha  occ. eigenvalues --   -0.38530  -0.37753  -0.36706  -0.35835  -0.34552
 Alpha  occ. eigenvalues --   -0.33423  -0.32890  -0.32043  -0.19109
 Alpha virt. eigenvalues --    0.07830   0.11160   0.12019   0.12274   0.14449
 Alpha virt. eigenvalues --    0.15227   0.15774   0.16226   0.17042   0.17569
 Alpha virt. eigenvalues --    0.19069   0.20343   0.20632   0.21488   0.22328

 Mulliken charges:
               1
     1  C   -0.412271
     2  C   -0.056901
     3  N   -0.201729
     4  C   -0.093719
     5  C   -0.375378
     6  C   -0.114694
     7  C   -0.405063
     8  H    0.115981
     9  H    0.120765
    10  H    0.103724
    11  H    0.062605
    12  H    0.104797
    13  H    0.124121
    14  H    0.094098
    15  H    0.081420
    16  H    0.112736
    17  H    0.101396
    18  H    0.138824
    19  H    0.111211
    20  H    0.127719
    21  H    0.130456
    22  H    0.129904
 Sum of Mulliken charges =  -0.00000

 Dipole moment (field-independent basis, Debye):
    X=             -0.7489    Y=             -0.5364    Z=              1.1382  Tot=              1.4643
 Quadrupole moment (field-independent basis, Debye-Ang):
   XX=            -51.3778   YY=            -52.2456   ZZ=            -49.6610
   XY=              0.8787   XZ=             -0.0425   YZ=              0.5700

 Summary of Natural Population Analysis:

                                       Natural Population
                Natural  -----------------------------------------------
    Atom  No    Charge         Core      Valence    Rydberg      Total
 -----------------------------------------------------------------------
      C    1   -0.69954      1.99944     4.68878    0.01131     6.69954
      C    2   -0.31673      1.99930     4.30003    0.01740     6.31673
      N    3   -0.03814      1.99937     5.02939    0.00939     7.03814
      C    4   -0.31288      1.99932     4.29496    0.01860     6.31288
      C    5   -0.69278      1.99940     4.68132    0.01206     6.69278
      C    6   -0.30884      1.99933     4.29113    0.01838     6.30884
      C    7   -0.68505      1.99940     4.67556    0.01009     6.68505
      H    8    0.21299      0.00000     0.77311    0.01390     0.78701
      H    9    0.21392      0.00000     0.77530    0.01078     0.78608
      H   10    0.19175      0.00000     0.78276    0.02549     0.80825
      H   11    0.17217      0.00000     0.78833    0.03950     0.82783
      H   12    0.20064      0.00000     0.75859    0.04077     0.79936
      H   13    0.21869      0.00000     0.75659    0.02472     0.78131
      H   14    0.19562      0.00000     0.77663    0.02775     0.80438
      H   15    0.17756      0.00000     0.78963    0.03280     0.82244
      H   16    0.21254      0.00000     0.77255    0.01492     0.78746
      H   17    0.18785      0.00000     0.78822    0.02393     0.81215
      H   18    0.22753      0.00000     0.75666    0.01581     0.77247
      H   19    0.20430      0.00000     0.76691    0.02879     0.79570
      H   20    0.20441      0.00000     0.77456    0.02103     0.79559
      H   21    0.22133      0.00000     0.76744    0.01123     0.77867
      H   22    0.21266      0.00000     0.77163    0.01570     0.78734
 =======================================================================
   * Total *    0.00000     13.99557    43.56007    0.44436    58.00000

 Normal termination of Gaussian 16 at Mon Aug 24 16:46:03 2020.
