 Gaussian 16, Revision A.03,

 ---------------------------------
 # opt=CalcAll B3LYP/6-31G* scf=qc
 ---------------------------------

 -------------------
 Title Card Required
 -------------------
 Symbolic Z-matrix:
 Charge =  0 Multiplicity = 1

 SCF Done:  E(RB3LYP) =  -292.391930418     a.u. after    7 cycles
 SCF Done:  E(RB3LYP) =  -292.400029618     a.u. after   13 cycles
 SCF Done:  E(RB3LYP) =  -292.409709798     a.u. after   13 cycles
 SCF Done:  E(RB3LYP) =  -292.411902995     a.u. after   13 cycles
 SCF Done:  E(RB3LYP) =  -292.413694289     a.u. after   11 cycles
 SCF Done:  E(RB3LYP) =  -292.414254322     a.u. after   11 cycles
 SCF Done:  E(RB3LYP) =  -292.414363623     a.u. after    9 cycles
 SCF Done:  E(RB3LYP) =  -292.414383129     a.u. after    5 cycles
 SCF Done:  E(RB3LYP) =  -292.414384773     a.u. after    3 cycles
 SCF Done:  E(RB3LYP) =  -292.414384874     a.u. after    2 cycles
 Optimization completed.
    -- Stationary point found.
 Normal termination of Gaussian 16 at Mon Aug 24 17:07:37 2020.

 ----------------------------------------------------------------------
 # freq B3LYP/6-31G* scf=qc volume NMR pop=NPA density=current Geom=All
 Check Guess=Read
 ----------------------------------------------------------------------

 Structure from the checkpoint file:  "base_4_conf42.chk"
 -------------------
 Title Card Required
 -------------------
 Charge =  0 Multiplicity = 1

 SCF Done:  E(RB3LYP) =  -292.414384874     a.u. after    1 cycles

      1  C    Isotropic =   168.8388   Anisotropy =    30.6585

      2  C    Isotropic =   140.8708   Anisotropy =    52.3243

      3  N    Isotropic =   201.8120   Anisotropy =    15.5361

      4  C    Isotropic =   135.3877   Anisotropy =    56.6864

      5  C    Isotropic =   172.5679   Anisotropy =    22.9801

      6  C    Isotropic =   135.3909   Anisotropy =    56.6900

      7  C    Isotropic =   172.5683   Anisotropy =    22.9898

      8  H    Isotropic =    31.2949   Anisotropy =    10.2398

      9  H    Isotropic =    31.0141   Anisotropy =     6.2751

     10  H    Isotropic =    31.0142   Anisotropy =     6.2718

     11  H    Isotropic =    29.8089   Anisotropy =     5.5171

     12  H    Isotropic =    29.8089   Anisotropy =     5.5184

     13  H    Isotropic =    29.7976   Anisotropy =     6.7299

     14  H    Isotropic =    29.5526   Anisotropy =     6.9078

     15  H    Isotropic =    30.9162   Anisotropy =     7.2279

     16  H    Isotropic =    31.2957   Anisotropy =     9.9992

     17  H    Isotropic =    31.0345   Anisotropy =     5.6177

     18  H    Isotropic =    29.5527   Anisotropy =     6.9082

     19  H    Isotropic =    29.7979   Anisotropy =     6.7288

     20  H    Isotropic =    31.0348   Anisotropy =     5.6189

     21  H    Isotropic =    31.2959   Anisotropy =     9.9996

     22  H    Isotropic =    30.9163   Anisotropy =     7.2281

  Exact polarizability:  80.631  -0.000  74.898   0.000  -0.050  63.466
 Approx polarizability:  98.500  -0.000  97.659   0.001   1.451  92.302

                      1                      2                      3
                      A                      A                      A
 Frequencies --     45.7077                92.8436               150.9797
 Red. masses --      2.3731                 2.3230                 1.5135
 Frc consts  --      0.0029                 0.0118                 0.0203
 IR Inten    --      0.0039                 0.0265                 0.8099

                      4                      5                      6
                      A                      A                      A
 Frequencies --    183.0143               224.7731               239.2512
 Red. masses --      2.3794                 1.0615                 1.1984
 Frc consts  --      0.0470                 0.0316                 0.0404
 IR Inten    --      0.8348                 0.0142                 0.1722

                      7                      8                      9
                      A                      A                      A
 Frequencies --    275.3989               340.2839               345.4108
 Red. masses --      1.1714                 2.1748                 2.1540
 Frc consts  --      0.0523                 0.1484                 0.1514
 IR Inten    --      0.0629                 1.8148                 0.3465

                     10                     11                     12
                      A                      A                      A
 Frequencies --    405.6087               460.7168               506.1915
 Red. masses --      2.4725                 3.3059                 2.1499
 Frc consts  --      0.2397                 0.4134                 0.3246
 IR Inten    --      1.9962                 1.9202                 0.3357

                     13                     14                     15
                      A                      A                      A
 Frequencies --    754.3051               781.8590               814.1577
 Red. masses --      2.5626                 1.1378                 1.1266
 Frc consts  --      0.8591                 0.4098                 0.4400
 IR Inten    --      8.7630                 6.2010                 1.6480

                     16                     17                     18
                      A                      A                      A
 Frequencies --    822.7126               938.5757               941.3354
 Red. masses --      1.1545                 2.2566                 1.7515
 Frc consts  --      0.4604                 1.1712                 0.9144
 IR Inten    --      1.7023                 1.3559                 0.5454

                     19                     20                     21
                      A                      A                      A
 Frequencies --   1032.8602              1090.2120              1091.1845
 Red. masses --      2.3367                 2.1791                 2.9429
 Frc consts  --      1.4687                 1.5260                 2.0645
 IR Inten    --      3.9284                15.7960                14.7962

                     22                     23                     24
                      A                      A                      A
 Frequencies --   1105.2618              1113.7944              1140.3908
 Red. masses --      1.7622                 1.7963                 1.4474
 Frc consts  --      1.2684                 1.3129                 1.1090
 IR Inten    --     28.5679                 2.2449                10.3985

                     25                     26                     27
                      A                      A                      A
 Frequencies --   1171.6482              1252.8447              1254.9047
 Red. masses --      1.9431                 2.0361                 2.6685
 Frc consts  --      1.5716                 1.8830                 2.4759
 IR Inten    --     16.3772                14.0470                33.5160

                     28                     29                     30
                      A                      A                      A
 Frequencies --   1318.3933              1354.2703              1364.2196
 Red. masses --      1.1071                 1.1924                 1.1629
 Frc consts  --      1.1338                 1.2885                 1.2751
 IR Inten    --      5.0504                23.1916                 2.9548

                     31                     32                     33
                      A                      A                      A
 Frequencies --   1403.4170              1404.8117              1428.9134
 Red. masses --      1.4234                 1.2389                 1.2379
 Frc consts  --      1.6518                 1.4405                 1.4892
 IR Inten    --     50.2682                 9.0826                 0.6164

                     34                     35                     36
                      A                      A                      A
 Frequencies --   1435.3509              1438.6120              1459.9499
 Red. masses --      1.2646                 1.2722                 1.4008
 Frc consts  --      1.5350                 1.5512                 1.7592
 IR Inten    --     18.6952                 9.8606                 6.1013

                     37                     38                     39
                      A                      A                      A
 Frequencies --   1510.6410              1515.1864              1519.6018
 Red. masses --      1.0520                 1.0562                 1.0498
 Frc consts  --      1.4145                 1.4286                 1.4283
 IR Inten    --      2.9067                 0.2881                 2.3170

                     40                     41                     42
                      A                      A                      A
 Frequencies --   1522.4630              1525.1654              1532.7473
 Red. masses --      1.0494                 1.0459                 1.0426
 Frc consts  --      1.4332                 1.4335                 1.4432
 IR Inten    --      3.9981                 0.4288                 2.7276

                     43                     44                     45
                      A                      A                      A
 Frequencies --   1540.2972              1543.3189              1550.3876
 Red. masses --      1.0675                 1.0718                 1.1013
 Frc consts  --      1.4922                 1.5040                 1.5597
 IR Inten    --      0.2561                 8.1374                 5.5969

                     46                     47                     48
                      A                      A                      A
 Frequencies --   2907.1025              2917.0745              3010.2667
 Red. masses --      1.0736                 1.0744                 1.0588
 Frc consts  --      5.3457                 5.3863                 5.6531
 IR Inten    --     25.9351               162.0695                46.1431

                     49                     50                     51
                      A                      A                      A
 Frequencies --   3043.9878              3046.3103              3050.6486
 Red. masses --      1.1034                 1.0376                 1.0364
 Frc consts  --      6.0239                 5.6735                 5.6829
 IR Inten    --     25.8012                27.4421                47.4481

                     52                     53                     54
                      A                      A                      A
 Frequencies --   3051.4922              3062.0043              3073.5706
 Red. masses --      1.0355                 1.0877                 1.0863
 Frc consts  --      5.6812                 6.0086                 6.0460
 IR Inten    --     10.1638                 2.7299                39.6174

                     55                     56                     57
                      A                      A                      A
 Frequencies --   3113.7759              3115.4413              3117.3681
 Red. masses --      1.0993                 1.1016                 1.1005
 Frc consts  --      6.2799                 6.2997                 6.3012
 IR Inten    --     62.4081                23.3026                53.8923

                     58                     59                     60
                      A                      A                      A
 Frequencies --   3126.7528              3127.4017              3130.1887
 Red. masses --      1.1033                 1.1031                 1.1032
 Frc consts  --      6.3550                 6.3568                 6.3685
 IR Inten    --      7.6267                62.3709                32.0206

 - Thermochemistry -
 -------------------
 Temperature   298.150 Kelvin.  Pressure   1.00000 Atm.
 Atom     1 has atomic number  6 and mass  12.00000

 Molecular mass:   101.12045 amu.
 Principal axes and moments of inertia in atomic units:
                           1         2         3
     Eigenvalues --   592.72606 940.575251351.79743
           X            1.00000  -0.00000  -0.00000
           Y            0.00000   0.99998  -0.00569
           Z            0.00000   0.00569   0.99998
 This molecule is an asymmetric top.
 Rotational symmetry number  1.
 Warning -- assumption of classical behavior for rotation
           may cause significant error
 Rotational temperatures (Kelvin)      0.14613     0.09209     0.06407
 Rotational constants (GHZ):           3.04481     1.91876     1.33507
 Zero-point vibrational energy     543328.1 (Joules/Mol)
                                  129.85853 (Kcal/Mol)
 Warning -- explicit consideration of  12 degrees of freedom as
           vibrations may cause significant error
 Vibrational temperatures:     65.76   133.58   217.23   263.32   323.40
          (Kelvin)            344.23   396.24   489.59   496.97   583.58
                              662.87   728.30  1085.28  1124.92  1171.39
                             1183.70  1350.40  1354.37  1486.06  1568.57
                             1569.97  1590.23  1602.50  1640.77  1685.74
                             1802.56  1805.53  1896.87  1948.49  1962.81
                             2019.20  2021.21  2055.89  2065.15  2069.84
                             2100.54  2173.48  2180.02  2186.37  2190.48
                             2194.37  2205.28  2216.14  2220.49  2230.66
                             4182.67  4197.02  4331.10  4379.62  4382.96
                             4389.20  4390.42  4405.54  4422.18  4480.03
                             4482.43  4485.20  4498.70  4499.63  4503.64

 Zero-point correction=                           0.206943 (Hartree/Particle)
 Thermal correction to Energy=                    0.216312
 Thermal correction to Enthalpy=                  0.217257
 Thermal correction to Gibbs Free Energy=         0.172926
 Sum of electronic and zero-point Energies=           -292.207442
 Sum of electronic and thermal Energies=              -292.198072
 Sum of electronic and thermal Enthalpies=            -292.197128
 Sum of electronic and thermal Free Energies=         -292.241459

                     E (Thermal)             CV                S
                      KCal/Mol        Cal/Mol-Kelvin    Cal/Mol-Kelvin
 Total                  135.738             33.571             93.302
 Electronic               0.000              0.000              0.000
 Translational            0.889              2.981             39.751
 Rotational               0.889              2.981             28.113
 Vibrational            133.961             27.609             25.438
 Vibration     1          0.595              1.979              4.995
 Vibration     2          0.602              1.954              3.599
 Vibration     3          0.618              1.902              2.660
 Vibration     4          0.631              1.863              2.297
 Vibration     5          0.649              1.803              1.920
 Vibration     6          0.657              1.780              1.808
 Vibration     7          0.677              1.719              1.562
 Vibration     8          0.720              1.595              1.211
 Vibration     9          0.724              1.585              1.187
 Vibration    10          0.771              1.458              0.942
 Vibration    11          0.819              1.337              0.764
 Vibration    12          0.861              1.236              0.643

 Optimization completed.
    -- Stationary point found.
 Normal termination of Gaussian 16 at Mon Aug 24 17:10:22 2020.
 Gaussian 16:  ES64L-G16RevA.03 25-Dec-2016

 ----------------------------------------------------------------------
 # TD(NStates=10, Root=1) B3LYP/6-31G* scf=qc volume pop=NPA density=cu
 rrent Geom=AllCheck Guess=Read
 ----------------------------------------------------------------------

 Structure from the checkpoint file:  "base_4_conf43.chk"
 -------------------
 Title Card Required
 -------------------
 Charge =  0 Multiplicity = 1

                         Standard orientation:
 ---------------------------------------------------------------------
 Center     Atomic      Atomic             Coordinates (Angstroms)
 Number     Number       Type             X           Y           Z
 ---------------------------------------------------------------------
      1          6           0        0.001272    2.200027   -0.235832
      2          6           0        0.000363    0.989732    0.702499
      3          7           0       -0.000244   -0.298718   -0.014346
      4          6           0        1.217723   -1.081133    0.205553
      5          6           0        2.459501   -0.443905   -0.420616
      6          6           0       -1.218717   -1.080279    0.205794
      7          6           0       -2.460026   -0.442489   -0.420753
      8          1           0        0.001959    3.137032    0.335792
      9          1           0       -0.882151    2.192440   -0.882756
     10          1           0        0.884681    2.191162   -0.882758
     11          1           0       -0.874563    1.044377    1.366433
     12          1           0        0.875033    1.043334    1.366890
     13          1           0        1.064316   -2.065133   -0.253208
     14          1           0        1.403353   -1.264997    1.283874
     15          1           0        2.310492   -0.293471   -1.495123
     16          1           0        3.331793   -1.091912   -0.275421
     17          1           0        2.693957    0.527664    0.028265
     18          1           0       -1.404526   -1.263656    1.284161
     19          1           0       -1.065889   -2.064536   -0.252604
     20          1           0       -2.693862    0.529436    0.027685
     21          1           0       -3.332782   -1.089832   -0.275378
     22          1           0       -2.310799   -0.292599   -1.495304
 ---------------------------------------------------------------------

 SCF Done:  E(RB3LYP) =  -292.414384874     a.u. after    1 cycles

 Excitation energies and oscillator strengths:

 Excited State   1:      Singlet-A      6.8725 eV  180.41 nm  f=0.0102  <S**2>=0.000
      29 -> 30         0.69314
      29 -> 31        -0.11871
 This state for optimization and/or second-order correction.
 Total Energy, E(TD-HF/TD-DFT) =  -292.161824146
 Copying the excited state density for this state as the 1-particle RhoCI density.

 Excited State   2:      Singlet-A      7.4388 eV  166.67 nm  f=0.0294  <S**2>=0.000
      29 -> 30         0.12025
      29 -> 31         0.69326

 Excited State   3:      Singlet-A      7.5932 eV  163.28 nm  f=0.0778  <S**2>=0.000
      29 -> 32         0.69724
      29 -> 34        -0.10974

 Excited State   4:      Singlet-A      8.0381 eV  154.25 nm  f=0.0779  <S**2>=0.000
      29 -> 33         0.69944

 Excited State   5:      Singlet-A      8.0768 eV  153.51 nm  f=0.0130  <S**2>=0.000
      29 -> 32         0.10944
      29 -> 34         0.69287

 Excited State   6:      Singlet-A      8.5856 eV  144.41 nm  f=0.0613  <S**2>=0.000
      29 -> 35         0.69219

 Excited State   7:      Singlet-A      8.9945 eV  137.84 nm  f=0.0343  <S**2>=0.000
      29 -> 36         0.68429
      29 -> 38         0.12654

 Excited State   8:      Singlet-A      9.0657 eV  136.76 nm  f=0.0206  <S**2>=0.000
      29 -> 37         0.70510

 Excited State   9:      Singlet-A      9.0746 eV  136.63 nm  f=0.0015  <S**2>=0.000
      29 -> 36        -0.12431
      29 -> 38         0.68366

 Excited State  10:      Singlet-A      9.2950 eV  133.39 nm  f=0.0237  <S**2>=0.000
      29 -> 39         0.69461

 The electronic state is 1-A.
 Alpha  occ. eigenvalues --  -14.31244 -10.20191 -10.20191 -10.20089 -10.16989
 Alpha  occ. eigenvalues --  -10.16989 -10.16613  -0.90868  -0.75642  -0.74834
 Alpha  occ. eigenvalues --   -0.70123  -0.62280  -0.60518  -0.55948  -0.48349
 Alpha  occ. eigenvalues --   -0.46470  -0.43745  -0.43494  -0.40612  -0.40109
 Alpha  occ. eigenvalues --   -0.38454  -0.37493  -0.36280  -0.35092  -0.34598
 Alpha  occ. eigenvalues --   -0.33078  -0.32782  -0.32357  -0.20079
 Alpha virt. eigenvalues --    0.08785   0.11001   0.11294   0.13304   0.13858
 Alpha virt. eigenvalues --    0.15000   0.16390   0.16653   0.17082   0.17795
 Alpha virt. eigenvalues --    0.19131   0.19556   0.20383   0.20673   0.21692

 Mulliken charges:
               1
     1  C   -0.458403
     2  C   -0.074061
     3  N   -0.181512
     4  C   -0.095731
     5  C   -0.414976
     6  C   -0.095722
     7  C   -0.414925
     8  H    0.154278
     9  H    0.143973
    10  H    0.144015
    11  H    0.094509
    12  H    0.094624
    13  H    0.036004
    14  H    0.158994
    15  H    0.131889
    16  H    0.117180
    17  H    0.107985
    18  H    0.158964
    19  H    0.035998
    20  H    0.107909
    21  H    0.117161
    22  H    0.131848
 Sum of Mulliken charges =  -0.00000

 Dipole moment (field-independent basis, Debye):
    X=              0.0024    Y=              0.6948    Z=              0.8313  Tot=              1.0835
 Quadrupole moment (field-independent basis, Debye-Ang):
   XX=            -52.6318   YY=            -51.6611   ZZ=            -48.8355
   XY=              0.0015   XZ=             -0.0002   YZ=             -2.0270

 Summary of Natural Population Analysis:

                                       Natural Population
                Natural  -----------------------------------------------
    Atom  No    Charge         Core      Valence    Rydberg      Total
 -----------------------------------------------------------------------
      C    1   -0.69954      1.99943     4.68631    0.01380     6.69954
      C    2   -0.31902      1.99930     4.30109    0.01863     6.31902
      N    3   -0.04827      1.99930     5.03853    0.01043     7.04827
      C    4   -0.31904      1.99932     4.30115    0.01857     6.31904
      C    5   -0.69791      1.99944     4.68733    0.01114     6.69791
      C    6   -0.31905      1.99932     4.30116    0.01857     6.31905
      C    7   -0.69791      1.99944     4.68732    0.01114     6.69791
      H    8    0.24069      0.00000     0.75577    0.00354     0.75931
      H    9    0.22155      0.00000     0.76938    0.00908     0.77845
      H   10    0.22158      0.00000     0.76936    0.00905     0.77842
      H   11    0.19504      0.00000     0.77103    0.03393     0.80496
      H   12    0.19515      0.00000     0.77097    0.03388     0.80485
      H   13    0.13724      0.00000     0.80961    0.05315     0.86276
      H   14    0.24995      0.00000     0.73370    0.01635     0.75005
      H   15    0.21835      0.00000     0.77195    0.00970     0.78165
      H   16    0.21062      0.00000     0.77568    0.01370     0.78938
      H   17    0.19727      0.00000     0.78122    0.02151     0.80273
      H   18    0.24993      0.00000     0.73371    0.01636     0.75007
      H   19    0.13724      0.00000     0.80962    0.05314     0.86276
      H   20    0.19721      0.00000     0.78124    0.02155     0.80279
      H   21    0.21060      0.00000     0.77569    0.01370     0.78940
      H   22    0.21832      0.00000     0.77197    0.00971     0.78168
 =======================================================================
   * Total *   -0.00000     13.99556    43.58380    0.42064    58.00000

 Normal termination of Gaussian 16 at Mon Aug 24 17:14:04 2020.
