 Gaussian 16, Revision A.03,

 ---------------------------------
 # opt=CalcAll B3LYP/6-31G* scf=qc
 ---------------------------------

 -------------------
 Title Card Required
 -------------------
 Symbolic Z-matrix:
 Charge =  0 Multiplicity = 1

 SCF Done:  E(RB3LYP) =  -292.360237671     a.u. after    7 cycles
 SCF Done:  E(RB3LYP) =  -292.381392551     a.u. after   13 cycles
 SCF Done:  E(RB3LYP) =  -292.387777765     a.u. after   13 cycles
 SCF Done:  E(RB3LYP) =  -292.405255067     a.u. after   13 cycles
 SCF Done:  E(RB3LYP) =  -292.410762090     a.u. after   11 cycles
 SCF Done:  E(RB3LYP) =  -292.412733227     a.u. after   11 cycles
 SCF Done:  E(RB3LYP) =  -292.413277717     a.u. after   11 cycles
 SCF Done:  E(RB3LYP) =  -292.413287363     a.u. after    4 cycles
 SCF Done:  E(RB3LYP) =  -292.413418224     a.u. after    7 cycles
 SCF Done:  E(RB3LYP) =  -292.413914842     a.u. after   11 cycles
 SCF Done:  E(RB3LYP) =  -292.415611054     a.u. after   13 cycles
 SCF Done:  E(RB3LYP) =  -292.416105774     a.u. after   11 cycles
 SCF Done:  E(RB3LYP) =  -292.416134114     a.u. after    5 cycles
 SCF Done:  E(RB3LYP) =  -292.416135017     a.u. after    3 cycles
 SCF Done:  E(RB3LYP) =  -292.416135397     a.u. after    2 cycles
 Optimization completed.
    -- Stationary point found.
 Normal termination of Gaussian 16 at Mon Aug 24 17:26:37 2020.

 ----------------------------------------------------------------------
 # freq B3LYP/6-31G* scf=qc volume NMR pop=NPA density=current Geom=All
 Check Guess=Read
 ----------------------------------------------------------------------

 Structure from the checkpoint file:  "base_4_conf72.chk"
 -------------------
 Title Card Required
 -------------------
 Charge =  0 Multiplicity = 1

 SCF Done:  E(RB3LYP) =  -292.416135397     a.u. after    1 cycles

      1  C    Isotropic =   174.0897   Anisotropy =    22.7870

      2  C    Isotropic =   142.0967   Anisotropy =    47.1429

      3  N    Isotropic =   200.5275   Anisotropy =    11.0481

      4  C    Isotropic =   142.1061   Anisotropy =    47.1341

      5  C    Isotropic =   174.0778   Anisotropy =    22.7978

      6  C    Isotropic =   142.1107   Anisotropy =    47.1361

      7  C    Isotropic =   174.0917   Anisotropy =    22.7865

      8  H    Isotropic =    31.3375   Anisotropy =     9.9642

      9  H    Isotropic =    31.0139   Anisotropy =     6.5981

     10  H    Isotropic =    31.0991   Anisotropy =     7.8368

     11  H    Isotropic =    30.0826   Anisotropy =     7.0757

     12  H    Isotropic =    29.6395   Anisotropy =     5.6404

     13  H    Isotropic =    29.6395   Anisotropy =     5.6418

     14  H    Isotropic =    30.0831   Anisotropy =     7.0755

     15  H    Isotropic =    31.0993   Anisotropy =     7.8355

     16  H    Isotropic =    31.3369   Anisotropy =     9.9649

     17  H    Isotropic =    31.0141   Anisotropy =     6.5960

     18  H    Isotropic =    29.6389   Anisotropy =     5.6433

     19  H    Isotropic =    30.0824   Anisotropy =     7.0780

     20  H    Isotropic =    31.0988   Anisotropy =     7.8356

     21  H    Isotropic =    31.3367   Anisotropy =     9.9658

     22  H    Isotropic =    31.0138   Anisotropy =     6.5987

  Exact polarizability:  77.329  -0.000  77.325   0.001  -0.001  64.627
 Approx polarizability:  97.943  -0.000  97.943   0.000  -0.001  92.487

                      1                      2                      3
                      A                      A                      A
 Frequencies --     88.8633                89.2160                91.6132
 Red. masses --      1.9655                 1.9674                 2.0048
 Frc consts  --      0.0091                 0.0092                 0.0099
 IR Inten    --      0.1961                 0.1954                 0.0136

                      4                      5                      6
                      A                      A                      A
 Frequencies --    193.4353               220.3731               220.9297
 Red. masses --      1.2797                 1.1939                 1.1939
 Frc consts  --      0.0282                 0.0342                 0.0343
 IR Inten    --      0.6581                 0.0348                 0.0344

                      7                      8                      9
                      A                      A                      A
 Frequencies --    304.0158               315.1217               315.6585
 Red. masses --      1.7952                 1.9961                 1.9974
 Frc consts  --      0.0978                 0.1168                 0.1173
 IR Inten    --      1.1604                 0.3249                 0.3241

                     10                     11                     12
                      A                      A                      A
 Frequencies --    437.5413               475.1981               475.3252
 Red. masses --      2.8366                 2.5130                 2.5138
 Frc consts  --      0.3200                 0.3343                 0.3346
 IR Inten    --      3.3475                 2.2709                 2.2750

                     13                     14                     15
                      A                      A                      A
 Frequencies --    752.9225               808.6368               808.7439
 Red. masses --      2.2419                 1.1537                 1.1533
 Frc consts  --      0.7488                 0.4445                 0.4444
 IR Inten    --     11.6114                 3.6212                 3.6179

                     16                     17                     18
                      A                      A                      A
 Frequencies --    819.3080               935.8270               935.8505
 Red. masses --      1.1887                 1.9309                 1.9300
 Frc consts  --      0.4701                 0.9963                 0.9959
 IR Inten    --      0.0493                 1.3226                 1.3161

                     19                     20                     21
                      A                      A                      A
 Frequencies --   1030.5685              1093.3427              1093.3902
 Red. masses --      2.5588                 2.5884                 2.5850
 Frc consts  --      1.6012                 1.8231                 1.8208
 IR Inten    --      4.8091                28.1734                28.1709

                     22                     23                     24
                      A                      A                      A
 Frequencies --   1102.0716              1113.7880              1113.8614
 Red. masses --      1.6505                 1.6689                 1.6696
 Frc consts  --      1.1811                 1.2198                 1.2204
 IR Inten    --      3.7629                 8.3421                 8.2754

                     25                     26                     27
                      A                      A                      A
 Frequencies --   1184.7308              1249.4361              1249.4955
 Red. masses --      1.7414                 2.2345                 2.2347
 Frc consts  --      1.4400                 2.0552                 2.0556
 IR Inten    --      9.2844                20.8138                20.7858

                     28                     29                     30
                      A                      A                      A
 Frequencies --   1336.5109              1344.7034              1344.7393
 Red. masses --      1.1073                 1.2104                 1.2103
 Frc consts  --      1.1653                 1.2895                 1.2895
 IR Inten    --      2.6341                24.7641                24.7795

                     31                     32                     33
                      A                      A                      A
 Frequencies --   1415.0829              1415.2207              1428.9714
 Red. masses --      1.2910                 1.2908                 1.2444
 Frc consts  --      1.5231                 1.5232                 1.4972
 IR Inten    --      8.9295                 8.8730                 0.1456

                     34                     35                     36
                      A                      A                      A
 Frequencies --   1443.6448              1443.7120              1445.7854
 Red. masses --      1.3020                 1.3025                 1.3923
 Frc consts  --      1.5988                 1.5996                 1.7148
 IR Inten    --     18.2400                18.3370                14.0119

                     37                     38                     39
                      A                      A                      A
 Frequencies --   1515.5428              1515.6267              1516.2887
 Red. masses --      1.0557                 1.0557                 1.0562
 Frc consts  --      1.4286                 1.4288                 1.4308
 IR Inten    --      1.6466                 1.6458                 1.0908

                     40                     41                     42
                      A                      A                      A
 Frequencies --   1522.6804              1530.0326              1530.0936
 Red. masses --      1.0465                 1.0430                 1.0429
 Frc consts  --      1.4296                 1.4385                 1.4386
 IR Inten    --      1.3636                 1.3144                 1.2690

                     43                     44                     45
                      A                      A                      A
 Frequencies --   1541.2607              1541.4548              1546.6482
 Red. masses --      1.0753                 1.0756                 1.0860
 Frc consts  --      1.5050                 1.5058                 1.5306
 IR Inten    --      2.8616                 2.8815                 7.1226

                     46                     47                     48
                      A                      A                      A
 Frequencies --   2923.6626              2923.7143              2935.8435
 Red. masses --      1.0746                 1.0746                 1.0742
 Frc consts  --      5.4122                 5.4124                 5.4550
 IR Inten    --     18.6160                18.6289               203.8795

                     49                     50                     51
                      A                      A                      A
 Frequencies --   3051.2335              3051.3400              3051.6442
 Red. masses --      1.0361                 1.0361                 1.0361
 Frc consts  --      5.6831                 5.6835                 5.6851
 IR Inten    --     28.4089                26.0960                10.6290

                     52                     53                     54
                      A                      A                      A
 Frequencies --   3087.3108              3087.4261              3089.9673
 Red. masses --      1.0889                 1.0889                 1.0844
 Frc consts  --      6.1149                 6.1154                 6.1001
 IR Inten    --     21.9450                21.7347                 0.1793

                     55                     56                     57
                      A                      A                      A
 Frequencies --   3113.8949              3117.6925              3117.8236
 Red. masses --      1.1014                 1.0993                 1.0993
 Frc consts  --      6.2922                 6.2956                 6.2961
 IR Inten    --      3.5340                64.3748                63.7088

                     58                     59                     60
                      A                      A                      A
 Frequencies --   3129.2128              3129.9417              3130.0493
 Red. masses --      1.1030                 1.1026                 1.1026
 Frc consts  --      6.3634                 6.3642                 6.3645
 IR Inten    --     60.1102                32.5300                33.0838

 - Thermochemistry -
 -------------------
 Temperature   298.150 Kelvin.  Pressure   1.00000 Atm.
 Atom     1 has atomic number  6 and mass  12.00000

 Molecular mass:   101.12045 amu.
 Principal axes and moments of inertia in atomic units:
                           1         2         3
     Eigenvalues --   787.43988 787.619401370.37511
           X            1.00000   0.00105   0.00000
           Y           -0.00105   1.00000   0.00000
           Z           -0.00000  -0.00000   1.00000
 This molecule is an asymmetric top.
 Rotational symmetry number  1.
 Warning -- assumption of classical behavior for rotation
           may cause significant error
 Rotational temperatures (Kelvin)      0.10999     0.10997     0.06320
 Rotational constants (GHZ):           2.29191     2.29139     1.31697
 Zero-point vibrational energy     543332.0 (Joules/Mol)
                                  129.85947 (Kcal/Mol)
 Warning -- explicit consideration of  12 degrees of freedom as
           vibrations may cause significant error
 Vibrational temperatures:    127.85   128.36   131.81   278.31   317.07
          (Kelvin)            317.87   437.41   453.39   454.16   629.52
                              683.70   683.89  1083.29  1163.45  1163.60
                             1178.80  1346.45  1346.48  1482.76  1573.08
                             1573.14  1585.64  1602.49  1602.60  1704.56
                             1797.66  1797.75  1922.94  1934.73  1934.78
                             2035.99  2036.19  2055.97  2077.08  2077.18
                             2080.16  2180.53  2180.65  2181.60  2190.80
                             2201.38  2201.46  2217.53  2217.81  2225.28
                             4206.50  4206.57  4224.02  4390.04  4390.20
                             4390.64  4441.95  4442.12  4445.77  4480.20
                             4485.66  4485.85  4502.24  4503.29  4503.44

 Zero-point correction=                           0.206944 (Hartree/Particle)
 Thermal correction to Energy=                    0.216367
 Thermal correction to Enthalpy=                  0.217311
 Thermal correction to Gibbs Free Energy=         0.173001
 Sum of electronic and zero-point Energies=           -292.209191
 Sum of electronic and thermal Energies=              -292.199768
 Sum of electronic and thermal Enthalpies=            -292.198824
 Sum of electronic and thermal Free Energies=         -292.243134

                     E (Thermal)             CV                S
                      KCal/Mol        Cal/Mol-Kelvin    Cal/Mol-Kelvin
 Total                  135.772             33.645             93.259
 Electronic               0.000              0.000              0.000
 Translational            0.889              2.981             39.751
 Rotational               0.889              2.981             28.232
 Vibrational            133.995             27.683             25.275
 Vibration     1          0.602              1.957              3.685
 Vibration     2          0.602              1.957              3.677
 Vibration     3          0.602              1.955              3.625
 Vibration     4          0.635              1.849              2.195
 Vibration     5          0.647              1.810              1.956
 Vibration     6          0.648              1.809              1.951
 Vibration     7          0.695              1.666              1.395
 Vibration     8          0.702              1.645              1.335
 Vibration     9          0.703              1.644              1.332
 Vibration    10          0.798              1.388              0.834
 Vibration    11          0.832              1.305              0.723
 Vibration    12          0.832              1.305              0.723

                           ! Non-Optimized Parameters !
 Normal termination of Gaussian 16 at Mon Aug 24 17:29:18 2020.
 Gaussian 16:  ES64L-G16RevA.03 25-Dec-2016

 ----------------------------------------------------------------------
 # TD(NStates=10, Root=1) B3LYP/6-31G* scf=qc volume pop=NPA density=cu
 rrent Geom=AllCheck Guess=Read
 ----------------------------------------------------------------------

 Structure from the checkpoint file:  "base_4_conf73.chk"
 -------------------
 Title Card Required
 -------------------
 Charge =  0 Multiplicity = 1

                         Standard orientation:
 ---------------------------------------------------------------------
 Center     Atomic      Atomic             Coordinates (Angstroms)
 Number     Number       Type             X           Y           Z
 ---------------------------------------------------------------------
      1          6           0        2.458398    0.036861   -0.439362
      2          6           0        1.321770   -0.476576    0.447003
      3          7           0        0.000082   -0.000021    0.020396
      4          6           0       -1.073399   -0.906362    0.447258
      5          6           0       -1.197495   -2.147155   -0.439399
      6          6           0       -0.247968    1.382913    0.446858
      7          6           0       -1.261358    2.110329   -0.439196
      8          1           0        3.418616   -0.371774   -0.102902
      9          1           0        2.540871    1.129130   -0.417096
     10          1           0        2.294271   -0.265600   -1.478740
     11          1           0        1.519357   -0.218557    1.506624
     12          1           0        1.317531   -1.570239    0.397993
     13          1           0       -2.018429   -0.355821    0.398890
     14          1           0       -0.948231   -1.206774    1.506726
     15          1           0       -1.377821   -1.853464   -1.478606
     16          1           0       -2.031342   -2.774524   -0.102762
     17          1           0       -0.292783   -2.764724   -0.417753
     18          1           0        0.701238    1.926117    0.397293
     19          1           0       -0.569763    1.425197    1.506608
     20          1           0       -0.917976    2.118899   -1.478784
     21          1           0       -1.387181    3.146389   -0.103110
     22          1           0       -2.248611    1.635833   -0.416121
 ---------------------------------------------------------------------

 SCF Done:  E(RB3LYP) =  -292.416135397     a.u. after    1 cycles

 Excitation energies and oscillator strengths:

 Excited State   1:      Singlet-A      7.0763 eV  175.21 nm  f=0.0126  <S**2>=0.000
      29 -> 30         0.70386
 This state for optimization and/or second-order correction.
 Total Energy, E(TD-HF/TD-DFT) =  -292.156085567
 Copying the excited state density for this state as the 1-particle RhoCI density.

 Excited State   2:      Singlet-A      7.5146 eV  164.99 nm  f=0.0275  <S**2>=0.000
      29 -> 31         0.67316
      29 -> 32        -0.20409

 Excited State   3:      Singlet-A      7.5147 eV  164.99 nm  f=0.0274  <S**2>=0.000
      29 -> 31         0.20409
      29 -> 32         0.67316

 Excited State   4:      Singlet-A      8.1028 eV  153.01 nm  f=0.0941  <S**2>=0.000
      29 -> 33         0.70174

 Excited State   5:      Singlet-A      8.5676 eV  144.71 nm  f=0.0577  <S**2>=0.000
      29 -> 34         0.68810

 Excited State   6:      Singlet-A      8.5684 eV  144.70 nm  f=0.0577  <S**2>=0.000
      29 -> 35         0.68808

 Excited State   7:      Singlet-A      8.9266 eV  138.89 nm  f=0.0308  <S**2>=0.000
      29 -> 36         0.69185
      29 -> 42         0.11206

 Excited State   8:      Singlet-A      9.2420 eV  134.15 nm  f=0.0237  <S**2>=0.000
      29 -> 37         0.68628
      29 -> 38        -0.11643

 Excited State   9:      Singlet-A      9.2423 eV  134.15 nm  f=0.0237  <S**2>=0.000
      29 -> 37         0.11645
      29 -> 38         0.68625

 Excited State  10:      Singlet-A      9.5167 eV  130.28 nm  f=0.0027  <S**2>=0.000
      29 -> 39         0.69928

 The electronic state is 1-A.
 Alpha  occ. eigenvalues --  -14.31321 -10.20091 -10.20091 -10.20090 -10.16943
 Alpha  occ. eigenvalues --  -10.16943 -10.16943  -0.90990  -0.75288  -0.75288
 Alpha  occ. eigenvalues --   -0.69976  -0.61621  -0.61619  -0.55679  -0.47065
 Alpha  occ. eigenvalues --   -0.47064  -0.44616  -0.42749  -0.42748  -0.39222
 Alpha  occ. eigenvalues --   -0.37623  -0.36849  -0.36848  -0.34704  -0.34704
 Alpha  occ. eigenvalues --   -0.34594  -0.32131  -0.32130  -0.20404
 Alpha virt. eigenvalues --    0.09208   0.10912   0.10912   0.13032   0.14879
 Alpha virt. eigenvalues --    0.14881   0.16114   0.17140   0.17142   0.18083
 Alpha virt. eigenvalues --    0.18085   0.19356   0.19900   0.22216   0.22349

 Mulliken charges:
               1
     1  C   -0.433429
     2  C   -0.086641
     3  N   -0.177243
     4  C   -0.086658
     5  C   -0.433436
     6  C   -0.086661
     7  C   -0.433449
     8  H    0.126843
     9  H    0.114498
    10  H    0.132896
    11  H    0.138588
    12  H    0.066270
    13  H    0.066362
    14  H    0.138582
    15  H    0.132890
    16  H    0.126872
    17  H    0.114487
    18  H    0.066314
    19  H    0.138634
    20  H    0.132935
    21  H    0.126842
    22  H    0.114503
 Sum of Mulliken charges =  -0.00000

 Dipole moment (field-independent basis, Debye):
    X=             -0.0008    Y=              0.0006    Z=              0.7725  Tot=              0.7725
 Quadrupole moment (field-independent basis, Debye-Ang):
   XX=            -52.6326   YY=            -52.6328   ZZ=            -48.3273
   XY=              0.0009   XZ=              0.0011   YZ=             -0.0002

 Summary of Natural Population Analysis:

                                       Natural Population
                Natural  -----------------------------------------------
    Atom  No    Charge         Core      Valence    Rydberg      Total
 -----------------------------------------------------------------------
      C    1   -0.70513      1.99944     4.69210    0.01359     6.70513
      C    2   -0.32020      1.99931     4.30300    0.01789     6.32020
      N    3   -0.03954      1.99928     5.03019    0.01006     7.03954
      C    4   -0.32018      1.99931     4.30298    0.01789     6.32018
      C    5   -0.70514      1.99944     4.69210    0.01359     6.70514
      C    6   -0.32019      1.99931     4.30299    0.01789     6.32019
      C    7   -0.70513      1.99944     4.69210    0.01359     6.70513
      H    8    0.21826      0.00000     0.77080    0.01094     0.78174
      H    9    0.19868      0.00000     0.78085    0.02047     0.80132
      H   10    0.21848      0.00000     0.77184    0.00968     0.78152
      H   11    0.23544      0.00000     0.73964    0.02492     0.76456
      H   12    0.16758      0.00000     0.78815    0.04427     0.83242
      H   13    0.16766      0.00000     0.78811    0.04423     0.83234
      H   14    0.23542      0.00000     0.73966    0.02492     0.76458
      H   15    0.21848      0.00000     0.77184    0.00968     0.78152
      H   16    0.21828      0.00000     0.77078    0.01094     0.78172
      H   17    0.19868      0.00000     0.78084    0.02048     0.80132
      H   18    0.16761      0.00000     0.78815    0.04424     0.83239
      H   19    0.23547      0.00000     0.73962    0.02491     0.76453
      H   20    0.21851      0.00000     0.77182    0.00967     0.78149
      H   21    0.21825      0.00000     0.77080    0.01095     0.78175
      H   22    0.19869      0.00000     0.78084    0.02047     0.80131
 =======================================================================
   * Total *   -0.00000     13.99553    43.56920    0.43527    58.00000

 Normal termination of Gaussian 16 at Mon Aug 24 17:33:23 2020.
