 Gaussian 16, Revision A.03,

 ---------------------------------
 # opt=CalcAll B3LYP/6-31G* scf=qc
 ---------------------------------

 -------------------
 Title Card Required
 -------------------
 Symbolic Z-matrix:
 Charge =  0 Multiplicity = 1

 SCF Done:  E(RB3LYP) =  -915.871826880     a.u. after    8 cycles
 SCF Done:  E(RB3LYP) =  -915.896267423     a.u. after   13 cycles
 SCF Done:  E(RB3LYP) =  -915.906640263     a.u. after   13 cycles
 SCF Done:  E(RB3LYP) =  -915.911420784     a.u. after   13 cycles
 SCF Done:  E(RB3LYP) =  -915.912885313     a.u. after   11 cycles
 SCF Done:  E(RB3LYP) =  -915.913202836     a.u. after    9 cycles
 SCF Done:  E(RB3LYP) =  -915.913352579     a.u. after    9 cycles
 SCF Done:  E(RB3LYP) =  -915.913955636     a.u. after   13 cycles
 SCF Done:  E(RB3LYP) =  -915.914746168     a.u. after   13 cycles
 SCF Done:  E(RB3LYP) =  -915.914796288     a.u. after   11 cycles
 SCF Done:  E(RB3LYP) =  -915.915656376     a.u. after   13 cycles
 SCF Done:  E(RB3LYP) =  -915.915777031     a.u. after   13 cycles
 SCF Done:  E(RB3LYP) =  -915.916238094     a.u. after   11 cycles
 SCF Done:  E(RB3LYP) =  -915.916295417     a.u. after    9 cycles
 SCF Done:  E(RB3LYP) =  -915.916321813     a.u. after    6 cycles
 SCF Done:  E(RB3LYP) =  -915.916321644     a.u. after    2 cycles
 SCF Done:  E(RB3LYP) =  -915.916322453     a.u. after    2 cycles
 Optimization completed.
    -- Stationary point found.
 Normal termination of Gaussian 16 at Mon Aug 24 12:40:50 2020.

 ----------------------------------------------------------------------
 # freq B3LYP/6-31G* scf=qc volume NMR pop=NPA density=current Geom=All
 Check Guess=Read
 ----------------------------------------------------------------------

 Structure from the checkpoint file:  "base_2_conf12.chk"
 -------------------
 Title Card Required
 -------------------
 Charge =  0 Multiplicity = 1

 SCF Done:  E(RB3LYP) =  -915.916322453     a.u. after    1 cycles

      1  P    Isotropic =   248.1469   Anisotropy =   118.1306

      2  N    Isotropic =   191.1868   Anisotropy =    59.9255

      3  C    Isotropic =   136.8549   Anisotropy =    39.3917

      4  C    Isotropic =   134.5874   Anisotropy =    45.1351

      5  N    Isotropic =   244.7464   Anisotropy =    67.7363

      6  C    Isotropic =   139.0610   Anisotropy =    35.4659

      7  C    Isotropic =   135.4537   Anisotropy =    42.8486

      8  N    Isotropic =   197.2182   Anisotropy =    67.4286

      9  C    Isotropic =   146.0947   Anisotropy =    56.7734

     10  C    Isotropic =   135.0070   Anisotropy =    56.7851

     11  C    Isotropic =   142.1198   Anisotropy =    31.5593

     12  N    Isotropic =   211.3057   Anisotropy =    60.3691

     13  C    Isotropic =   155.1249   Anisotropy =    48.4132

     14  C    Isotropic =   146.9807   Anisotropy =    57.7817

     15  H    Isotropic =    28.6495   Anisotropy =     6.8288

     16  H    Isotropic =    29.9417   Anisotropy =     7.5392

     17  H    Isotropic =    28.7986   Anisotropy =     9.4311

     18  H    Isotropic =    29.0926   Anisotropy =     6.8945

     19  H    Isotropic =    29.1928   Anisotropy =     8.8288

     20  H    Isotropic =    29.1927   Anisotropy =     8.1747

     21  H    Isotropic =    28.7066   Anisotropy =     5.1075

     22  H    Isotropic =    29.9650   Anisotropy =     7.0687

     23  H    Isotropic =    29.4337   Anisotropy =    10.0730

     24  H    Isotropic =    29.8412   Anisotropy =    10.2560

     25  H    Isotropic =    29.4838   Anisotropy =     9.4532

     26  H    Isotropic =    29.6741   Anisotropy =     9.0838

     27  H    Isotropic =    29.3843   Anisotropy =     6.9949

     28  H    Isotropic =    28.4745   Anisotropy =     5.8024

     29  H    Isotropic =    30.1738   Anisotropy =     8.2159

     30  H    Isotropic =    29.4362   Anisotropy =     8.4953

     31  H    Isotropic =    29.9786   Anisotropy =    10.7306

     32  H    Isotropic =    29.5616   Anisotropy =     9.0519

     33  H    Isotropic =    28.9854   Anisotropy =     7.2941

     34  H    Isotropic =    29.8346   Anisotropy =    10.1496

     35  H    Isotropic =    29.7325   Anisotropy =     9.8860

  Exact polarizability: 142.379   0.079 142.675  -6.269   0.823 136.765
 Approx polarizability: 196.643  -0.459 205.756 -12.464   2.214 197.432

                      1                      2                      3
                      A                      A                      A
 Frequencies --     58.2389                79.2549                84.8194
 Red. masses --      2.7932                 2.8833                 2.8168
 Frc consts  --      0.0056                 0.0107                 0.0119
 IR Inten    --      0.5300                 1.4770                 0.2049

                      4                      5                      6
                      A                      A                      A
 Frequencies --    151.9302               154.6486               166.8343
 Red. masses --      2.2641                 4.4677                 2.1142
 Frc consts  --      0.0308                 0.0630                 0.0347
 IR Inten    --      4.9221                 9.2333                 0.2850

                      7                      8                      9
                      A                      A                      A
 Frequencies --    188.0228               194.6957               207.6694
 Red. masses --      1.8807                 1.1852                 1.2482
 Frc consts  --      0.0392                 0.0265                 0.0317
 IR Inten    --      2.0811                 0.1046                 0.4880

                     10                     11                     12
                      A                      A                      A
 Frequencies --    237.3522               240.6501               256.1776
 Red. masses --      2.7842                 2.1509                 3.3380
 Frc consts  --      0.0924                 0.0734                 0.1291
 IR Inten    --      1.4143                 0.8635                 2.3675

                     13                     14                     15
                      A                      A                      A
 Frequencies --    284.0264               304.1310               345.2070
 Red. masses --      1.9096                 2.8264                 2.9885
 Frc consts  --      0.0908                 0.1540                 0.2098
 IR Inten    --      4.9876                 0.1265                 3.6282

                     16                     17                     18
                      A                      A                      A
 Frequencies --    361.0359               381.1671               397.0666
 Red. masses --      3.3756                 2.4106                 2.6744
 Frc consts  --      0.2592                 0.2063                 0.2484
 IR Inten    --      1.0591                 1.2706                 5.5326

                     19                     20                     21
                      A                      A                      A
 Frequencies --    414.8325               445.9958               466.3604
 Red. masses --      2.9992                 2.0057                 4.9638
 Frc consts  --      0.3041                 0.2351                 0.6361
 IR Inten    --      6.1789                 1.4802                 4.3903

                     22                     23                     24
                      A                      A                      A
 Frequencies --    521.1397               535.3855               570.6687
 Red. masses --      2.4346                 2.4425                 3.3630
 Frc consts  --      0.3896                 0.4125                 0.6453
 IR Inten    --     13.2054                 5.0537                 8.7739

                     25                     26                     27
                      A                      A                      A
 Frequencies --    617.5094               637.9609               666.5744
 Red. masses --      4.5025                 3.9951                 4.0764
 Frc consts  --      1.0116                 0.9580                 1.0671
 IR Inten    --     72.3487                27.4583                40.8013

                     28                     29                     30
                      A                      A                      A
 Frequencies --    757.4008               849.6481               856.9076
 Red. masses --      2.4583                 2.0255                 1.9304
 Frc consts  --      0.8309                 0.8615                 0.8351
 IR Inten    --     11.7631                41.0104                55.7112

                     31                     32                     33
                      A                      A                      A
 Frequencies --    875.5758               908.8912               932.7565
 Red. masses --      2.3402                 2.4717                 2.1265
 Frc consts  --      1.0570                 1.2030                 1.0901
 IR Inten    --     60.5064                18.7695                 6.0409

                     34                     35                     36
                      A                      A                      A
 Frequencies --   1010.4416              1020.4626              1036.1504
 Red. masses --      2.3896                 2.4860                 2.6267
 Frc consts  --      1.4375                 1.5253                 1.6616
 IR Inten    --      8.0351                88.5085                39.3559

                     37                     38                     39
                      A                      A                      A
 Frequencies --   1059.3264              1072.2903              1081.8166
 Red. masses --      2.7076                 1.8782                 2.1250
 Frc consts  --      1.7901                 1.2724                 1.4653
 IR Inten    --     38.2558                 7.3779                51.5347

                     40                     41                     42
                      A                      A                      A
 Frequencies --   1100.1472              1135.3649              1153.6337
 Red. masses --      2.2578                 3.0185                 1.3419
 Frc consts  --      1.6100                 2.2925                 1.0522
 IR Inten    --     16.4846                53.4376                13.3981

                     43                     44                     45
                      A                      A                      A
 Frequencies --   1155.8211              1159.6318              1166.8107
 Red. masses --      1.3031                 1.3417                 2.7204
 Frc consts  --      1.0257                 1.0630                 2.1821
 IR Inten    --      3.2192                 9.1046                65.6775

                     46                     47                     48
                      A                      A                      A
 Frequencies --   1177.5592              1221.0738              1232.2758
 Red. masses --      1.9830                 1.8530                 1.8597
 Frc consts  --      1.6201                 1.6279                 1.6638
 IR Inten    --     27.2382                55.3804                11.1636

                     49                     50                     51
                      A                      A                      A
 Frequencies --   1245.8143              1250.5064              1268.4838
 Red. masses --      2.0157                 2.1558                 2.6334
 Frc consts  --      1.8433                 1.9863                 2.4966
 IR Inten    --      4.6624                29.8964                53.0789

                     52                     53                     54
                      A                      A                      A
 Frequencies --   1281.3477              1315.5573              1323.4441
 Red. masses --      1.2189                 1.2418                 1.1752
 Frc consts  --      1.1791                 1.2662                 1.2127
 IR Inten    --      4.8041                 4.6477                 1.4542

                     55                     56                     57
                      A                      A                      A
 Frequencies --   1339.0545              1377.0856              1393.2818
 Red. masses --      1.4773                 1.8108                 1.2572
 Frc consts  --      1.5607                 2.0232                 1.4380
 IR Inten    --      1.4697                48.2418                 7.3369

                     58                     59                     60
                      A                      A                      A
 Frequencies --   1408.3543              1410.1591              1417.3848
 Red. masses --      1.4115                 1.2635                 1.2686
 Frc consts  --      1.6495                 1.4803                 1.5016
 IR Inten    --     10.7647                17.4730                 5.1480

                     61                     62                     63
                      A                      A                      A
 Frequencies --   1435.1772              1442.5411              1451.3663
 Red. masses --      1.3140                 1.2997                 1.5799
 Frc consts  --      1.5946                 1.5935                 1.9608
 IR Inten    --     18.6125                15.8121                38.3911

                     64                     65                     66
                      A                      A                      A
 Frequencies --   1478.0552              1479.3844              1485.4858
 Red. masses --      1.1621                 1.1379                 1.1538
 Frc consts  --      1.4958                 1.4672                 1.5001
 IR Inten    --      0.9818                 4.7023                 3.9485

                     67                     68                     69
                      A                      A                      A
 Frequencies --   1497.7057              1501.4080              1503.9115
 Red. masses --      1.0955                 1.0918                 1.0843
 Frc consts  --      1.4478                 1.4501                 1.4450
 IR Inten    --      3.3967                 1.9100                 4.7789

                     70                     71                     72
                      A                      A                      A
 Frequencies --   1512.4261              1515.1391              1516.8188
 Red. masses --      1.0731                 1.0496                 1.0553
 Frc consts  --      1.4463                 1.4196                 1.4306
 IR Inten    --     12.3641                 8.0086                 7.8157

                     73                     74                     75
                      A                      A                      A
 Frequencies --   1525.3681              1528.0236              1540.2747
 Red. masses --      1.0779                 1.1182                 1.0589
 Frc consts  --      1.4777                 1.5383                 1.4801
 IR Inten    --      5.9633                12.3375                12.0860

                     76                     77                     78
                      A                      A                      A
 Frequencies --   1542.8325              1544.7732              1559.3495
 Red. masses --      1.0489                 1.0604                 1.0741
 Frc consts  --      1.4710                 1.4909                 1.5388
 IR Inten    --      8.0451                 1.9039                 0.9642

                     79                     80                     81
                      A                      A                      A
 Frequencies --   2918.5167              2963.3879              2969.0964
 Red. masses --      1.0738                 1.0707                 1.0669
 Frc consts  --      5.3888                 5.5400                 5.5416
 IR Inten    --    105.5204                52.8437                33.2938

                     82                     83                     84
                      A                      A                      A
 Frequencies --   2971.1967              2975.0861              2980.1204
 Red. masses --      1.0578                 1.0708                 1.0521
 Frc consts  --      5.5017                 5.5844                 5.5051
 IR Inten    --     86.9636               113.8461               115.3934

                     85                     86                     87
                      A                      A                      A
 Frequencies --   2980.7259              3001.3002              3007.1099
 Red. masses --      1.0535                 1.0684                 1.0876
 Frc consts  --      5.5147                 5.6700                 5.7947
 IR Inten    --     41.5732               171.4841                74.2960

                     88                     89                     90
                      A                      A                      A
 Frequencies --   3028.5947              3031.0043              3045.1441
 Red. masses --      1.0690                 1.0929                 1.0927
 Frc consts  --      5.7770                 5.9158                 5.9699
 IR Inten    --     73.4891                58.9718                26.2072

                     91                     92                     93
                      A                      A                      A
 Frequencies --   3048.0879              3059.7024              3072.1127
 Red. masses --      1.0828                 1.0832                 1.0908
 Frc consts  --      5.9272                 5.9746                 6.0657
 IR Inten    --     59.2141                47.9217                12.4612

                     94                     95                     96
                      A                      A                      A
 Frequencies --   3074.3574              3095.8067              3096.7225
 Red. masses --      1.0932                 1.1003                 1.0902
 Frc consts  --      6.0876                 6.2133                 6.1596
 IR Inten    --     40.8069                24.9438                 9.2885

                     97                     98                     99
                      A                      A                      A
 Frequencies --   3104.7248              3131.1590              3132.1088
 Red. masses --      1.0938                 1.0945                 1.0972
 Frc consts  --      6.2123                 6.3221                 6.3419
 IR Inten    --     59.0123                10.9042                20.5462

 - Thermochemistry -
 -------------------
 Temperature   298.150 Kelvin.  Pressure   1.00000 Atm.
 Atom     1 has atomic number 15 and mass  30.97376

 Molecular mass:   216.15039 amu.
 Principal axes and moments of inertia in atomic units:
                           1         2         3
     Eigenvalues --  2622.918512812.572552890.72333
           X            0.99364   0.05876  -0.09608
           Y           -0.05651   0.99806   0.02595
           Z            0.09742  -0.02036   0.99504
 This molecule is an asymmetric top.
 Rotational symmetry number  1.
 Warning -- assumption of classical behavior for rotation
           may cause significant error
 Rotational temperatures (Kelvin)      0.03302     0.03080     0.02996
 Rotational constants (GHZ):           0.68807     0.64167     0.62432
 Zero-point vibrational energy     823688.2 (Joules/Mol)
                                  196.86622 (Kcal/Mol)
 Warning -- explicit consideration of  25 degrees of freedom as
           vibrations may cause significant error
 Vibrational temperatures:     83.79   114.03   122.04   218.59   222.50
          (Kelvin)            240.04   270.52   280.12   298.79   341.50
                              346.24   368.58   408.65   437.58   496.68
                              519.45   548.41   571.29   596.85   641.69
                              670.99   749.80   770.30   821.06   888.46
                              917.88   959.05  1089.73  1222.45  1232.90
                             1259.76  1307.69  1342.03  1453.80  1468.22
                             1490.79  1524.13  1542.79  1556.49  1582.87
                             1633.54  1659.82  1662.97  1668.45  1678.78
                             1694.25  1756.85  1772.97  1792.45  1799.20
                             1825.07  1843.57  1892.79  1904.14  1926.60
                             1981.32  2004.62  2026.31  2028.90  2039.30
                             2064.90  2075.49  2088.19  2126.59  2128.50
                             2137.28  2154.86  2160.19  2163.79  2176.04
                             2179.95  2182.36  2194.66  2198.49  2216.11
                             2219.79  2222.58  2243.56  4199.09  4263.65
                             4271.87  4274.89  4280.49  4287.73  4288.60
                             4318.20  4326.56  4357.47  4360.94  4381.28
                             4385.52  4402.23  4420.08  4423.31  4454.18
                             4455.49  4467.01  4505.04  4506.41

 Zero-point correction=                           0.313726 (Hartree/Particle)
 Thermal correction to Energy=                    0.328959
 Thermal correction to Enthalpy=                  0.329903
 Thermal correction to Gibbs Free Energy=         0.272837
 Sum of electronic and zero-point Energies=           -915.602596
 Sum of electronic and thermal Energies=              -915.587363
 Sum of electronic and thermal Enthalpies=            -915.586419
 Sum of electronic and thermal Free Energies=         -915.643485

                     E (Thermal)             CV                S
                      KCal/Mol        Cal/Mol-Kelvin    Cal/Mol-Kelvin
 Total                  206.425             58.652            120.106
 Electronic               0.000              0.000              0.000
 Translational            0.889              2.981             42.016
 Rotational               0.889              2.981             31.434
 Vibrational            204.647             52.690             46.656
 Vibration     1          0.596              1.974              4.516
 Vibration     2          0.600              1.963              3.909
 Vibration     3          0.601              1.960              3.776
 Vibration     4          0.619              1.901              2.648
 Vibration     5          0.620              1.897              2.614
 Vibration     6          0.624              1.883              2.471
 Vibration     7          0.633              1.856              2.247
 Vibration     8          0.635              1.847              2.183
 Vibration     9          0.641              1.829              2.064
 Vibration    10          0.656              1.783              1.823
 Vibration    11          0.658              1.778              1.798
 Vibration    12          0.666              1.752              1.688
 Vibration    13          0.682              1.703              1.509
 Vibration    14          0.695              1.666              1.394
 Vibration    15          0.724              1.585              1.188
 Vibration    16          0.735              1.553              1.118
 Vibration    17          0.751              1.510              1.035
 Vibration    18          0.764              1.476              0.973
 Vibration    19          0.778              1.438              0.910
 Vibration    20          0.805              1.370              0.808
 Vibration    21          0.824              1.325              0.748
 Vibration    22          0.876              1.203              0.607
 Vibration    23          0.890              1.172              0.575
 Vibration    24          0.927              1.095              0.503
 Vibration    25          0.977              0.995              0.421

 Optimization completed.
    -- Stationary point found.
 Normal termination of Gaussian 16 at Mon Aug 24 12:50:07 2020.
 Gaussian 16:  ES64L-G16RevA.03 25-Dec-2016

 ----------------------------------------------------------------------
 # TD(NStates=10, Root=1) B3LYP/6-31G* scf=qc volume pop=NPA density=cu
 rrent Geom=AllCheck Guess=Read
 ----------------------------------------------------------------------

 Structure from the checkpoint file:  "base_2_conf13.chk"
 -------------------
 Title Card Required
 -------------------
 Charge =  0 Multiplicity = 1

                         Standard orientation:
 ---------------------------------------------------------------------
 Center     Atomic      Atomic             Coordinates (Angstroms)
 Number     Number       Type             X           Y           Z
 ---------------------------------------------------------------------
      1         15           0       -0.877867    0.193954   -0.981028
      2          7           0       -1.217588    1.115628    0.464184
      3          6           0       -0.630543    1.128667    1.806089
      4          6           0        0.886976    0.919298    1.901783
      5          7           0        1.424850   -0.222882    1.207467
      6          6           0        0.909716   -1.544493    1.468490
      7          6           0       -0.478712   -1.887550    0.871935
      8          7           0       -0.655056   -1.490774   -0.528099
      9          6           0       -1.581121   -2.377566   -1.241366
     10          6           0        2.447045   -0.054451    0.197318
     11          6           0        1.903547   -0.237062   -1.229546
     12          7           0        0.723346    0.560426   -1.516656
     13          6           0        0.939120    1.926803   -1.963092
     14          6           0       -2.575285    1.662574    0.494952
     15          1           0       -1.145190    0.404918    2.460877
     16          1           0       -0.834424    2.115433    2.251659
     17          1           0        1.116921    0.878455    2.985389
     18          1           0        1.387469    1.809799    1.509321
     19          1           0        0.851482   -1.724049    2.557153
     20          1           0        1.637809   -2.262643    1.072279
     21          1           0       -1.280914   -1.479856    1.507112
     22          1           0       -0.585660   -2.979581    0.924734
     23          1           0       -2.582513   -2.432321   -0.779010
     24          1           0       -1.168900   -3.394508   -1.271420
     25          1           0       -1.706729   -2.034889   -2.271815
     26          1           0        3.273275   -0.768238    0.359593
     27          1           0        2.876476    0.947432    0.311317
     28          1           0        1.640700   -1.289756   -1.373893
     29          1           0        2.682360    0.013517   -1.964482
     30          1           0        0.000688    2.334522   -2.357945
     31          1           0        1.682420    1.946863   -2.771346
     32          1           0        1.282718    2.609070   -1.167296
     33          1           0       -3.013789    1.631213   -0.505838
     34          1           0       -2.561377    2.708839    0.835180
     35          1           0       -3.238141    1.102369    1.176195
 ---------------------------------------------------------------------

 SCF Done:  E(RB3LYP) =  -915.916322453     a.u. after    1 cycles

 Excitation energies and oscillator strengths:

 Excited State   1:      Singlet-A      5.4669 eV  226.79 nm  f=0.0284  <S**2>=0.000
      59 -> 60         0.69810
 This state for optimization and/or second-order correction.
 Total Energy, E(TD-HF/TD-DFT) =  -915.715415784
 Copying the excited state density for this state as the 1-particle RhoCI density.

 Excited State   2:      Singlet-A      5.8137 eV  213.26 nm  f=0.0219  <S**2>=0.000
      59 -> 61         0.69079

 Excited State   3:      Singlet-A      5.9601 eV  208.02 nm  f=0.0121  <S**2>=0.000
      58 -> 60        -0.31942
      58 -> 61        -0.10105
      59 -> 62         0.61246

 Excited State   4:      Singlet-A      5.9999 eV  206.65 nm  f=0.0267  <S**2>=0.000
      57 -> 60        -0.12676
      58 -> 60         0.60773
      59 -> 62         0.31005

 Excited State   5:      Singlet-A      6.2053 eV  199.80 nm  f=0.0008  <S**2>=0.000
      57 -> 60         0.66150
      58 -> 60         0.11979
      58 -> 61        -0.15240

 Excited State   6:      Singlet-A      6.2908 eV  197.09 nm  f=0.0020  <S**2>=0.000
      57 -> 60         0.12795
      57 -> 61        -0.14865
      58 -> 61         0.65225
      59 -> 62         0.12883

 Excited State   7:      Singlet-A      6.4598 eV  191.93 nm  f=0.0027  <S**2>=0.000
      57 -> 61         0.13134
      58 -> 62         0.67008

 Excited State   8:      Singlet-A      6.5904 eV  188.13 nm  f=0.0039  <S**2>=0.000
      57 -> 61         0.60453
      57 -> 62        -0.12251
      58 -> 61         0.14149
      58 -> 62        -0.12368
      59 -> 63         0.16329
      59 -> 64         0.19895

 Excited State   9:      Singlet-A      6.7390 eV  183.98 nm  f=0.0004  <S**2>=0.000
      56 -> 60         0.40405
      57 -> 61        -0.12164
      59 -> 63        -0.23754
      59 -> 64         0.46997
      59 -> 65         0.10511

 Excited State  10:      Singlet-A      6.7552 eV  183.54 nm  f=0.0088  <S**2>=0.000
      56 -> 60         0.17166
      57 -> 61        -0.14825
      57 -> 62         0.19803
      59 -> 63         0.59978
      59 -> 65         0.15286

 The electronic state is 1-A.
 Alpha  occ. eigenvalues --  -77.11378 -14.31736 -14.31603 -14.31356 -14.30995
 Alpha  occ. eigenvalues --  -10.20870 -10.20796 -10.20605 -10.20440 -10.20137
 Alpha  occ. eigenvalues --  -10.19942 -10.19782 -10.19780 -10.19286  -6.57099
 Alpha  occ. eigenvalues --   -4.73470  -4.73372  -4.72853  -0.93076  -0.89536
 Alpha  occ. eigenvalues --   -0.88269  -0.88004  -0.74962  -0.74549  -0.70724
 Alpha  occ. eigenvalues --   -0.67953  -0.65900  -0.65521  -0.60389  -0.58917
 Alpha  occ. eigenvalues --   -0.57793  -0.52082  -0.49740  -0.48439  -0.46828
 Alpha  occ. eigenvalues --   -0.46230  -0.44688  -0.43998  -0.43591  -0.42962
 Alpha  occ. eigenvalues --   -0.42121  -0.41713  -0.40393  -0.39890  -0.39061
 Alpha  occ. eigenvalues --   -0.38677  -0.37542  -0.36558  -0.35559  -0.35194
 Alpha  occ. eigenvalues --   -0.34778  -0.33907  -0.33165  -0.32885  -0.25656
 Alpha  occ. eigenvalues --   -0.22405  -0.20737  -0.19367  -0.17406
 Alpha virt. eigenvalues --    0.05864   0.07094   0.07819   0.10543   0.11026
 Alpha virt. eigenvalues --    0.11219   0.12675   0.12918   0.13740   0.14310
 Alpha virt. eigenvalues --    0.14400   0.15297   0.16217   0.16905   0.17020

 Mulliken charges:
               1
     1  P    0.480122
     2  N   -0.513140
     3  C   -0.082793
     4  C   -0.137950
     5  N   -0.340513
     6  C   -0.140956
     7  C   -0.122388
     8  N   -0.464510
     9  C   -0.263552
    10  C   -0.149618
    11  C   -0.147311
    12  N   -0.430430
    13  C   -0.282775
    14  C   -0.291175
    15  H    0.067104
    16  H    0.128294
    17  H    0.130017
    18  H    0.149594
    19  H    0.137195
    20  H    0.146107
    21  H    0.107982
    22  H    0.137294
    23  H    0.124840
    24  H    0.113838
    25  H    0.157257
    26  H    0.156422
    27  H    0.154390
    28  H    0.170998
    29  H    0.139836
    30  H    0.167337
    31  H    0.139317
    32  H    0.142225
    33  H    0.171195
    34  H    0.123990
    35  H    0.121757
 Sum of Mulliken charges =  -0.00000

 Dipole moment (field-independent basis, Debye):
    X=              3.6814    Y=             -0.2138    Z=              1.3715  Tot=              3.9344
 Quadrupole moment (field-independent basis, Debye-Ang):
   XX=            -93.0275   YY=            -91.6275   ZZ=            -96.9438
   XY=              0.9344   XZ=             -1.8801   YZ=             -0.0133

 Summary of Natural Population Analysis:

                                       Natural Population
                Natural  -----------------------------------------------
    Atom  No    Charge         Core      Valence    Rydberg      Total
 -----------------------------------------------------------------------
      P    1    1.08859      9.99843     3.80940    0.10358    13.91141
      N    2   -0.79149      1.99944     5.77400    0.01805     7.79149
      C    3   -0.26623      1.99931     4.24868    0.01824     6.26623
      C    4   -0.25937      1.99931     4.24262    0.01744     6.25937
      N    5   -0.42328      1.99940     5.41122    0.01267     7.42328
      C    6   -0.27085      1.99933     4.25308    0.01844     6.27085
      C    7   -0.28318      1.99931     4.26478    0.01909     6.28318
      N    8   -0.77093      1.99951     5.74558    0.02584     7.77093
      C    9   -0.47451      1.99948     4.46051    0.01452     6.47451
      C   10   -0.25971      1.99929     4.24372    0.01670     6.25971
      C   11   -0.28764      1.99929     4.26853    0.01982     6.28764
      N   12   -0.70243      1.99947     5.67887    0.02410     7.70243
      C   13   -0.47756      1.99946     4.46359    0.01450     6.47756
      C   14   -0.45819      1.99948     4.44304    0.01568     6.45819
      H   15    0.14977      0.00000     0.82555    0.02468     0.85023
      H   16    0.22924      0.00000     0.76756    0.00321     0.77076
      H   17    0.22316      0.00000     0.77029    0.00655     0.77684
      H   18    0.23354      0.00000     0.76466    0.00179     0.76646
      H   19    0.22722      0.00000     0.76566    0.00712     0.77278
      H   20    0.23327      0.00000     0.76422    0.00251     0.76673
      H   21    0.18386      0.00000     0.79521    0.02093     0.81614
      H   22    0.23542      0.00000     0.76284    0.00173     0.76458
      H   23    0.20509      0.00000     0.78706    0.00785     0.79491
      H   24    0.20034      0.00000     0.79267    0.00700     0.79966
      H   25    0.23618      0.00000     0.76090    0.00291     0.76382
      H   26    0.24291      0.00000     0.75510    0.00198     0.75709
      H   27    0.23650      0.00000     0.76201    0.00150     0.76350
      H   28    0.25358      0.00000     0.74278    0.00364     0.74642
      H   29    0.23510      0.00000     0.76287    0.00203     0.76490
      H   30    0.24646      0.00000     0.74808    0.00546     0.75354
      H   31    0.21525      0.00000     0.78279    0.00196     0.78475
      H   32    0.21340      0.00000     0.78470    0.00190     0.78660
      H   33    0.24125      0.00000     0.75787    0.00087     0.75875
      H   34    0.20051      0.00000     0.79483    0.00466     0.79949
      H   35    0.19470      0.00000     0.79732    0.00798     0.80530
 =======================================================================
   * Total *    0.00000     35.99049    81.55258    0.45693   118.00000

 Normal termination of Gaussian 16 at Mon Aug 24 13:00:41 2020.
