 Gaussian 16, Revision A.03,

 ---------------------------------
 # opt=CalcAll B3LYP/6-31G* scf=qc
 ---------------------------------

 -------------------
 Title Card Required
 -------------------
 Symbolic Z-matrix:
 Charge =  0 Multiplicity = 1

 SCF Done:  E(RB3LYP) =  -292.404552118     a.u. after    7 cycles
 SCF Done:  E(RB3LYP) =  -292.411885706     a.u. after   13 cycles
 SCF Done:  E(RB3LYP) =  -292.414192847     a.u. after   11 cycles
 SCF Done:  E(RB3LYP) =  -292.414668900     a.u. after   11 cycles
 SCF Done:  E(RB3LYP) =  -292.414750716     a.u. after    6 cycles
 SCF Done:  E(RB3LYP) =  -292.414751059     a.u. after    2 cycles
 SCF Done:  E(RB3LYP) =  -292.414751071     a.u. after    2 cycles
 Optimization completed.
    -- Stationary point found.
 Normal termination of Gaussian 16 at Mon Aug 24 16:44:21 2020.

 ----------------------------------------------------------------------
 # freq B3LYP/6-31G* scf=qc volume NMR pop=NPA density=current Geom=All
 Check Guess=Read
 ----------------------------------------------------------------------

 Structure from the checkpoint file:  "base_4_conf152.chk"
 -------------------
 Title Card Required
 -------------------
 Charge =  0 Multiplicity = 1

 SCF Done:  E(RB3LYP) =  -292.414751071     a.u. after    1 cycles

      1  C    Isotropic =   175.1775   Anisotropy =    20.4037

      2  C    Isotropic =   142.1493   Anisotropy =    50.2841

      3  N    Isotropic =   209.3509   Anisotropy =    68.9346

      4  C    Isotropic =   142.1484   Anisotropy =    50.2836

      5  C    Isotropic =   175.1778   Anisotropy =    20.4009

      6  C    Isotropic =   151.5150   Anisotropy =    36.8141

      7  C    Isotropic =   186.5760   Anisotropy =     5.8770

      8  H    Isotropic =    31.2815   Anisotropy =     9.6993

      9  H    Isotropic =    30.8846   Anisotropy =     6.6220

     10  H    Isotropic =    31.1201   Anisotropy =     8.3529

     11  H    Isotropic =    29.2761   Anisotropy =     6.0106

     12  H    Isotropic =    29.9540   Anisotropy =     6.7790

     13  H    Isotropic =    29.2762   Anisotropy =     6.0106

     14  H    Isotropic =    29.9538   Anisotropy =     6.7796

     15  H    Isotropic =    30.8847   Anisotropy =     6.6217

     16  H    Isotropic =    31.2814   Anisotropy =     9.6994

     17  H    Isotropic =    31.1200   Anisotropy =     8.3528

     18  H    Isotropic =    29.3091   Anisotropy =     6.2786

     19  H    Isotropic =    29.3092   Anisotropy =     6.2781

     20  H    Isotropic =    31.1483   Anisotropy =     7.6260

     21  H    Isotropic =    31.9855   Anisotropy =    10.0249

     22  H    Isotropic =    31.1482   Anisotropy =     7.6267

  Exact polarizability:  79.953   0.000  72.318   0.001  -2.037  63.890
 Approx polarizability:  97.364   0.000  96.394   0.001  -2.934  92.596

                      1                      2                      3
                      A                      A                      A
 Frequencies --     57.6614                70.7306               137.6005
 Red. masses --      2.2752                 2.3533                 1.3459
 Frc consts  --      0.0045                 0.0069                 0.0150
 IR Inten    --      0.0522                 0.0405                 0.6923

                      4                      5                      6
                      A                      A                      A
 Frequencies --    201.6267               227.1354               251.4930
 Red. masses --      1.5988                 1.0839                 2.1761
 Frc consts  --      0.0383                 0.0329                 0.0811
 IR Inten    --      1.5851                 0.0182                 0.1844

                      7                      8                      9
                      A                      A                      A
 Frequencies --    279.4290               293.5168               377.7807
 Red. masses --      1.3421                 1.5587                 2.0464
 Frc consts  --      0.0617                 0.0791                 0.1721
 IR Inten    --      0.4592                 1.1094                 0.0257

                     10                     11                     12
                      A                      A                      A
 Frequencies --    425.9278               490.6979               499.1032
 Red. masses --      3.1515                 2.5162                 2.1835
 Frc consts  --      0.3368                 0.3570                 0.3205
 IR Inten    --      0.8952                 9.4409                 1.1728

                     13                     14                     15
                      A                      A                      A
 Frequencies --    744.4898               782.7064               818.8305
 Red. masses --      2.6390                 1.1201                 1.1224
 Frc consts  --      0.8618                 0.4043                 0.4434
 IR Inten    --      8.1430                 4.6547                 2.5437

                     16                     17                     18
                      A                      A                      A
 Frequencies --    824.3286               919.2169               934.0101
 Red. masses --      1.1656                 1.8943                 2.2707
 Frc consts  --      0.4667                 0.9431                 1.1671
 IR Inten    --      1.8579                 3.0462                 2.7314

                     19                     20                     21
                      A                      A                      A
 Frequencies --   1019.5192              1072.1875              1078.2135
 Red. masses --      2.1486                 2.4183                 2.1773
 Frc consts  --      1.3158                 1.6379                 1.4913
 IR Inten    --      9.2610                 2.8673                13.4416

                     22                     23                     24
                      A                      A                      A
 Frequencies --   1105.4217              1113.2764              1143.7355
 Red. masses --      1.7852                 2.0200                 1.4820
 Frc consts  --      1.2853                 1.4751                 1.1422
 IR Inten    --     25.2475                10.1603                11.1926

                     25                     26                     27
                      A                      A                      A
 Frequencies --   1180.2786              1240.4450              1258.7059
 Red. masses --      1.9310                 2.0013                 2.6818
 Frc consts  --      1.5849                 1.8144                 2.5034
 IR Inten    --     15.3020                 7.7868                29.9967

                     28                     29                     30
                      A                      A                      A
 Frequencies --   1316.7267              1358.8106              1365.6717
 Red. masses --      1.1039                 1.2267                 1.1661
 Frc consts  --      1.1276                 1.3344                 1.2814
 IR Inten    --      7.2541                14.4887                12.9223

                     31                     32                     33
                      A                      A                      A
 Frequencies --   1399.3194              1411.1705              1427.0886
 Red. masses --      1.2398                 1.3975                 1.2228
 Frc consts  --      1.4303                 1.6397                 1.4673
 IR Inten    --     11.2642                28.4656                 0.0080

                     34                     35                     36
                      A                      A                      A
 Frequencies --   1431.0756              1434.9187              1459.8996
 Red. masses --      1.2530                 1.2783                 1.4207
 Frc consts  --      1.5119                 1.5507                 1.7840
 IR Inten    --     19.7479                22.6252                 3.8389

                     37                     38                     39
                      A                      A                      A
 Frequencies --   1511.4116              1514.4205              1524.1373
 Red. masses --      1.0536                 1.0583                 1.0452
 Frc consts  --      1.4180                 1.4300                 1.4306
 IR Inten    --      4.1643                 4.2412                 1.2386

                     40                     41                     42
                      A                      A                      A
 Frequencies --   1529.0691              1530.8162              1532.4370
 Red. masses --      1.0471                 1.0472                 1.0425
 Frc consts  --      1.4425                 1.4458                 1.4424
 IR Inten    --      6.1056                 1.1552                 0.2299

                     43                     44                     45
                      A                      A                      A
 Frequencies --   1544.6690              1544.7195              1557.9521
 Red. masses --      1.0678                 1.0719                 1.0896
 Frc consts  --      1.5012                 1.5070                 1.5581
 IR Inten    --      7.4699                 0.4495                 0.5836

                     46                     47                     48
                      A                      A                      A
 Frequencies --   2923.0383              2931.7532              3049.8438
 Red. masses --      1.0738                 1.0744                 1.0357
 Frc consts  --      5.4055                 5.4407                 5.6759
 IR Inten    --     13.3639               141.8523                23.8136

                     49                     50                     51
                      A                      A                      A
 Frequencies --   3051.6313              3052.9846              3053.4068
 Red. masses --      1.0816                 1.0372                 1.0406
 Frc consts  --      5.9346                 5.6957                 5.7164
 IR Inten    --      6.6616                 1.3348                28.0570

                     52                     53                     54
                      A                      A                      A
 Frequencies --   3059.8423              3070.0348              3094.3606
 Red. masses --      1.0833                 1.0616                 1.1029
 Frc consts  --      5.9757                 5.8951                 6.2220
 IR Inten    --     57.0561                26.8366                11.0240

                     55                     56                     57
                      A                      A                      A
 Frequencies --   3113.6197              3117.6754              3119.5059
 Red. masses --      1.1007                 1.1018                 1.1005
 Frc consts  --      6.2873                 6.3097                 6.3098
 IR Inten    --     27.7769                33.3033                88.7831

                     58                     59                     60
                      A                      A                      A
 Frequencies --   3123.3353              3127.4395              3128.0151
 Red. masses --      1.1029                 1.1032                 1.1033
 Frc consts  --      6.3393                 6.3572                 6.3605
 IR Inten    --     12.1060                57.0510                29.9042

 - Thermochemistry -
 -------------------
 Temperature   298.150 Kelvin.  Pressure   1.00000 Atm.
 Atom     1 has atomic number  6 and mass  12.00000

 Molecular mass:   101.12045 amu.
 Principal axes and moments of inertia in atomic units:
                           1         2         3
     Eigenvalues --   564.11141 979.591521315.99540
           X            1.00000  -0.00000  -0.00000
           Y            0.00000   1.00000  -0.00064
           Z            0.00000   0.00064   1.00000
 This molecule is an asymmetric top.
 Rotational symmetry number  1.
 Warning -- assumption of classical behavior for rotation
           may cause significant error
 Rotational temperatures (Kelvin)      0.15354     0.08842     0.06582
 Rotational constants (GHZ):           3.19926     1.84234     1.37139
 Zero-point vibrational energy     544054.9 (Joules/Mol)
                                  130.03223 (Kcal/Mol)
 Warning -- explicit consideration of  12 degrees of freedom as
           vibrations may cause significant error
 Vibrational temperatures:     82.96   101.77   197.98   290.10   326.80
          (Kelvin)            361.84   402.04   422.31   543.54   612.82
                              706.00   718.10  1071.15  1126.14  1178.11
                             1186.02  1322.55  1343.83  1466.86  1542.64
                             1551.31  1590.46  1601.76  1645.58  1698.16
                             1784.72  1811.00  1894.48  1955.03  1964.90
                             2013.31  2030.36  2053.26  2059.00  2064.53
                             2100.47  2174.58  2178.91  2192.89  2199.99
                             2202.50  2204.84  2222.43  2222.51  2241.55
                             4205.60  4218.14  4388.04  4390.62  4392.56
                             4393.17  4402.43  4417.10  4452.09  4479.80
                             4485.64  4488.27  4493.78  4499.69  4500.52

 Zero-point correction=                           0.207220 (Hartree/Particle)
 Thermal correction to Energy=                    0.216570
 Thermal correction to Enthalpy=                  0.217514
 Thermal correction to Gibbs Free Energy=         0.173230
 Sum of electronic and zero-point Energies=           -292.207532
 Sum of electronic and thermal Energies=              -292.198181
 Sum of electronic and thermal Enthalpies=            -292.197237
 Sum of electronic and thermal Free Energies=         -292.241521

                     E (Thermal)             CV                S
                      KCal/Mol        Cal/Mol-Kelvin    Cal/Mol-Kelvin
 Total                  135.900             33.538             93.204
 Electronic               0.000              0.000              0.000
 Translational            0.889              2.981             39.751
 Rotational               0.889              2.981             28.077
 Vibrational            134.122             27.576             25.375
 Vibration     1          0.596              1.974              4.536
 Vibration     2          0.598              1.968              4.133
 Vibration     3          0.614              1.916              2.837
 Vibration     4          0.639              1.838              2.118
 Vibration     5          0.651              1.800              1.901
 Vibration     6          0.663              1.760              1.720
 Vibration     7          0.680              1.712              1.537
 Vibration     8          0.688              1.686              1.454
 Vibration     9          0.748              1.517              1.048
 Vibration    10          0.788              1.414              0.872
 Vibration    11          0.846              1.271              0.682
 Vibration    12          0.855              1.252              0.660

 Optimization completed.
    -- Stationary point found.
 Normal termination of Gaussian 16 at Mon Aug 24 16:47:20 2020.
 Gaussian 16:  ES64L-G16RevA.03 25-Dec-2016

 ----------------------------------------------------------------------
 # TD(NStates=10, Root=1) B3LYP/6-31G* scf=qc volume pop=NPA density=cu
 rrent Geom=AllCheck Guess=Read
 ----------------------------------------------------------------------

 Structure from the checkpoint file:  "base_4_conf153.chk"
 -------------------
 Title Card Required
 -------------------
 Charge =  0 Multiplicity = 1

                         Standard orientation:
 ---------------------------------------------------------------------
 Center     Atomic      Atomic             Coordinates (Angstroms)
 Number     Number       Type             X           Y           Z
 ---------------------------------------------------------------------
      1          6           0        2.492720   -0.656804   -0.327229
      2          6           0        1.209594   -0.796796    0.494554
      3          7           0        0.000094   -0.384176   -0.222463
      4          6           0       -1.209323   -0.797143    0.494492
      5          6           0       -2.492484   -0.657224   -0.327247
      6          6           0       -0.000096    1.018632   -0.654118
      7          6           0       -0.000456    2.095659    0.447038
      8          1           0        3.324951   -1.137461    0.199348
      9          1           0        2.774488    0.388370   -0.493467
     10          1           0        2.376078   -1.139461   -1.303635
     11          1           0        1.334011   -0.268147    1.460474
     12          1           0        1.077302   -1.856132    0.748112
     13          1           0       -1.333826   -0.268690    1.460510
     14          1           0       -1.076835   -1.856502    0.747855
     15          1           0       -2.774464    0.387931   -0.493244
     16          1           0       -3.324611   -1.138171    0.199229
     17          1           0       -2.375757   -1.139638   -1.303764
     18          1           0       -0.871769    1.167233   -1.300344
     19          1           0        0.871713    1.167542   -1.300086
     20          1           0       -0.885523    2.025355    1.089272
     21          1           0       -0.000548    3.093404   -0.007531
     22          1           0        0.884417    2.025653    1.089572
 ---------------------------------------------------------------------

 SCF Done:  E(RB3LYP) =  -292.414751071     a.u. after    1 cycles

 Excitation energies and oscillator strengths:

 Excited State   1:      Singlet-A      6.4987 eV  190.78 nm  f=0.0079  <S**2>=0.000
      29 -> 30         0.70473
 This state for optimization and/or second-order correction.
 Total Energy, E(TD-HF/TD-DFT) =  -292.175927403
 Copying the excited state density for this state as the 1-particle RhoCI density.

 Excited State   2:      Singlet-A      7.4730 eV  165.91 nm  f=0.0232  <S**2>=0.000
      29 -> 31         0.70552

 Excited State   3:      Singlet-A      7.6248 eV  162.61 nm  f=0.0131  <S**2>=0.000
      29 -> 32         0.70310

 Excited State   4:      Singlet-A      7.8730 eV  157.48 nm  f=0.0218  <S**2>=0.000
      29 -> 33         0.70389

 Excited State   5:      Singlet-A      8.4420 eV  146.87 nm  f=0.0198  <S**2>=0.000
      29 -> 35         0.67632
      29 -> 36        -0.16730

 Excited State   6:      Singlet-A      8.4866 eV  146.09 nm  f=0.0166  <S**2>=0.000
      29 -> 34         0.69649

 Excited State   7:      Singlet-A      8.8195 eV  140.58 nm  f=0.0000  <S**2>=0.000
      29 -> 35         0.17065
      29 -> 36         0.68440

 Excited State   8:      Singlet-A      9.0095 eV  137.61 nm  f=0.0158  <S**2>=0.000
      29 -> 37         0.67500
      29 -> 39         0.16606
      29 -> 40         0.11594

 Excited State   9:      Singlet-A      9.2350 eV  134.26 nm  f=0.0005  <S**2>=0.000
      29 -> 38         0.69651

 Excited State  10:      Singlet-A      9.3306 eV  132.88 nm  f=0.0056  <S**2>=0.000
      29 -> 37        -0.17934
      29 -> 39         0.62962
      29 -> 40         0.15901
      29 -> 42        -0.14710

 The electronic state is 1-A.
 Alpha  occ. eigenvalues --  -14.31184 -10.20021 -10.20021 -10.19852 -10.17058
 Alpha  occ. eigenvalues --  -10.17057 -10.16967  -0.90767  -0.75546  -0.74669
 Alpha  occ. eigenvalues --   -0.70130  -0.63658  -0.60343  -0.54606  -0.48260
 Alpha  occ. eigenvalues --   -0.47726  -0.43718  -0.42027  -0.40685  -0.40526
 Alpha  occ. eigenvalues --   -0.38961  -0.37202  -0.36004  -0.35723  -0.34288
 Alpha  occ. eigenvalues --   -0.33594  -0.32679  -0.32320  -0.19877
 Alpha virt. eigenvalues --    0.07757   0.11110   0.12174   0.12640   0.15219
 Alpha virt. eigenvalues --    0.15345   0.16097   0.16631   0.17627   0.18029
 Alpha virt. eigenvalues --    0.18529   0.19305   0.20499   0.21150   0.21754

 Mulliken charges:
               1
     1  C   -0.420829
     2  C   -0.094791
     3  N   -0.203733
     4  C   -0.094779
     5  C   -0.420818
     6  C   -0.107997
     7  C   -0.343867
     8  H    0.126864
     9  H    0.110791
    10  H    0.137303
    11  H    0.149866
    12  H    0.084175
    13  H    0.149876
    14  H    0.084166
    15  H    0.110781
    16  H    0.126847
    17  H    0.137290
    18  H    0.117395
    19  H    0.117380
    20  H    0.067994
    21  H    0.098102
    22  H    0.067983
 Sum of Mulliken charges =  -0.00000

 Dipole moment (field-independent basis, Debye):
    X=              0.0006    Y=             -1.1245    Z=             -0.2762  Tot=              1.1579
 Quadrupole moment (field-independent basis, Debye-Ang):
   XX=            -52.0199   YY=            -53.4607   ZZ=            -48.9090
   XY=             -0.0000   XZ=              0.0001   YZ=             -0.7897

 Summary of Natural Population Analysis:

                                       Natural Population
                Natural  -----------------------------------------------
    Atom  No    Charge         Core      Valence    Rydberg      Total
 -----------------------------------------------------------------------
      C    1   -0.70035      1.99945     4.69066    0.01024     6.70035
      C    2   -0.31837      1.99931     4.30075    0.01832     6.31837
      N    3   -0.02583      1.99931     5.01758    0.00893     7.02583
      C    4   -0.31837      1.99931     4.30075    0.01832     6.31837
      C    5   -0.70035      1.99945     4.69067    0.01024     6.70035
      C    6   -0.31824      1.99931     4.29914    0.01979     6.31824
      C    7   -0.69270      1.99940     4.68119    0.01211     6.69270
      H    8    0.22038      0.00000     0.76909    0.01054     0.77962
      H    9    0.19646      0.00000     0.77928    0.02426     0.80354
      H   10    0.22454      0.00000     0.76922    0.00624     0.77546
      H   11    0.23516      0.00000     0.73758    0.02726     0.76484
      H   12    0.18027      0.00000     0.78712    0.03261     0.81973
      H   13    0.23518      0.00000     0.73757    0.02725     0.76482
      H   14    0.18027      0.00000     0.78712    0.03261     0.81973
      H   15    0.19646      0.00000     0.77928    0.02426     0.80354
      H   16    0.22036      0.00000     0.76909    0.01054     0.77964
      H   17    0.22453      0.00000     0.76923    0.00624     0.77547
      H   18    0.20851      0.00000     0.76782    0.02368     0.79149
      H   19    0.20849      0.00000     0.76783    0.02368     0.79151
      H   20    0.17026      0.00000     0.79550    0.03424     0.82974
      H   21    0.20309      0.00000     0.77698    0.01993     0.79691
      H   22    0.17025      0.00000     0.79550    0.03424     0.82975
 =======================================================================
   * Total *   -0.00000     13.99553    43.56895    0.43551    58.00000

 Normal termination of Gaussian 16 at Mon Aug 24 16:50:55 2020.
