 Gaussian 16, Revision A.03,

 ---------------------------------
 # opt=CalcAll B3LYP/6-31G* scf=qc
 ---------------------------------

 -------------------
 Title Card Required
 -------------------
 Symbolic Z-matrix:
 Charge =  0 Multiplicity = 1

 SCF Done:  E(RB3LYP) =  -292.394620915     a.u. after    7 cycles
 SCF Done:  E(RB3LYP) =  -292.401566245     a.u. after   13 cycles
 SCF Done:  E(RB3LYP) =  -292.409192096     a.u. after   13 cycles
 SCF Done:  E(RB3LYP) =  -292.411669118     a.u. after   15 cycles
 SCF Done:  E(RB3LYP) =  -292.413620765     a.u. after   11 cycles
 SCF Done:  E(RB3LYP) =  -292.414260576     a.u. after   11 cycles
 SCF Done:  E(RB3LYP) =  -292.414362688     a.u. after    9 cycles
 SCF Done:  E(RB3LYP) =  -292.414381593     a.u. after    5 cycles
 SCF Done:  E(RB3LYP) =  -292.414384660     a.u. after    4 cycles
 SCF Done:  E(RB3LYP) =  -292.414384886     a.u. after    2 cycles
 Optimization completed.
    -- Stationary point found.
 Normal termination of Gaussian 16 at Mon Aug 24 17:08:36 2020.

 ----------------------------------------------------------------------
 # freq B3LYP/6-31G* scf=qc volume NMR pop=NPA density=current Geom=All
 Check Guess=Read
 ----------------------------------------------------------------------

 Structure from the checkpoint file:  "base_4_conf92.chk"
 -------------------
 Title Card Required
 -------------------
 Charge =  0 Multiplicity = 1

 SCF Done:  E(RB3LYP) =  -292.414384886     a.u. after    1 cycles

      1  C    Isotropic =   172.5695   Anisotropy =    22.9833

      2  C    Isotropic =   135.3843   Anisotropy =    56.6924

      3  N    Isotropic =   201.8071   Anisotropy =    15.5441

      4  C    Isotropic =   140.8669   Anisotropy =    52.3305

      5  C    Isotropic =   168.8412   Anisotropy =    30.6551

      6  C    Isotropic =   135.3853   Anisotropy =    56.6956

      7  C    Isotropic =   172.5699   Anisotropy =    22.9882

      8  H    Isotropic =    31.2958   Anisotropy =     9.9992

      9  H    Isotropic =    30.9163   Anisotropy =     7.2281

     10  H    Isotropic =    31.0347   Anisotropy =     5.6190

     11  H    Isotropic =    29.7976   Anisotropy =     6.7294

     12  H    Isotropic =    29.5528   Anisotropy =     6.9065

     13  H    Isotropic =    29.8088   Anisotropy =     5.5170

     14  H    Isotropic =    29.8089   Anisotropy =     5.5177

     15  H    Isotropic =    31.0143   Anisotropy =     6.2751

     16  H    Isotropic =    31.2950   Anisotropy =    10.2394

     17  H    Isotropic =    31.0143   Anisotropy =     6.2736

     18  H    Isotropic =    29.7978   Anisotropy =     6.7288

     19  H    Isotropic =    29.5530   Anisotropy =     6.9067

     20  H    Isotropic =    30.9163   Anisotropy =     7.2285

     21  H    Isotropic =    31.2959   Anisotropy =     9.9995

     22  H    Isotropic =    31.0348   Anisotropy =     5.6193

  Exact polarizability:  80.631   0.000  74.898  -0.000  -0.050  63.465
 Approx polarizability:  98.499   0.000  97.659  -0.000   1.451  92.302

                      1                      2                      3
                      A                      A                      A
 Frequencies --     45.5969                92.8416               150.9363
 Red. masses --      2.3730                 2.3227                 1.5133
 Frc consts  --      0.0029                 0.0118                 0.0203
 IR Inten    --      0.0039                 0.0264                 0.8098

                      4                      5                      6
                      A                      A                      A
 Frequencies --    183.0191               224.7056               239.2139
 Red. masses --      2.3794                 1.0615                 1.1984
 Frc consts  --      0.0470                 0.0316                 0.0404
 IR Inten    --      0.8342                 0.0142                 0.1721

                      7                      8                      9
                      A                      A                      A
 Frequencies --    275.3606               340.2849               345.3796
 Red. masses --      1.1715                 2.1750                 2.1540
 Frc consts  --      0.0523                 0.1484                 0.1514
 IR Inten    --      0.0630                 1.8152                 0.3466

                     10                     11                     12
                      A                      A                      A
 Frequencies --    405.6278               460.7206               506.1945
 Red. masses --      2.4726                 3.3059                 2.1500
 Frc consts  --      0.2397                 0.4134                 0.3246
 IR Inten    --      1.9950                 1.9203                 0.3358

                     13                     14                     15
                      A                      A                      A
 Frequencies --    754.3160               781.8438               814.1460
 Red. masses --      2.5624                 1.1378                 1.1266
 Frc consts  --      0.8590                 0.4098                 0.4400
 IR Inten    --      8.7642                 6.2010                 1.6476

                     16                     17                     18
                      A                      A                      A
 Frequencies --    822.7107               938.5634               941.3324
 Red. masses --      1.1545                 2.2567                 1.7516
 Frc consts  --      0.4604                 1.1713                 0.9145
 IR Inten    --      1.7021                 1.3581                 0.5455

                     19                     20                     21
                      A                      A                      A
 Frequencies --   1032.8900              1090.2063              1091.1944
 Red. masses --      2.3370                 2.1796                 2.9430
 Frc consts  --      1.4690                 1.5263                 2.0646
 IR Inten    --      3.9295                15.8090                14.7985

                     22                     23                     24
                      A                      A                      A
 Frequencies --   1105.2433              1113.7813              1140.3922
 Red. masses --      1.7622                 1.7963                 1.4474
 Frc consts  --      1.2683                 1.3129                 1.1090
 IR Inten    --     28.5650                 2.2463                10.3882

                     25                     26                     27
                      A                      A                      A
 Frequencies --   1171.6520              1252.8249              1254.8903
 Red. masses --      1.9433                 2.0363                 2.6686
 Frc consts  --      1.5717                 1.8831                 2.4759
 IR Inten    --     16.3798                14.0406                33.5173

                     28                     29                     30
                      A                      A                      A
 Frequencies --   1318.4089              1354.2876              1364.2356
 Red. masses --      1.1070                 1.1924                 1.1628
 Frc consts  --      1.1338                 1.2885                 1.2750
 IR Inten    --      5.0532                23.1877                 2.9548

                     31                     32                     33
                      A                      A                      A
 Frequencies --   1403.4195              1404.8351              1428.9173
 Red. masses --      1.4232                 1.2388                 1.2379
 Frc consts  --      1.6515                 1.4405                 1.4892
 IR Inten    --     50.2455                 9.0782                 0.6169

                     34                     35                     36
                      A                      A                      A
 Frequencies --   1435.3491              1438.6048              1459.9582
 Red. masses --      1.2646                 1.2722                 1.4008
 Frc consts  --      1.5350                 1.5513                 1.7592
 IR Inten    --     18.6956                 9.8638                 6.0991

                     37                     38                     39
                      A                      A                      A
 Frequencies --   1510.6406              1515.1867              1519.6010
 Red. masses --      1.0520                 1.0562                 1.0498
 Frc consts  --      1.4145                 1.4286                 1.4283
 IR Inten    --      2.9063                 0.2882                 2.3189

                     40                     41                     42
                      A                      A                      A
 Frequencies --   1522.4602              1525.1636              1532.7397
 Red. masses --      1.0494                 1.0459                 1.0426
 Frc consts  --      1.4331                 1.4335                 1.4432
 IR Inten    --      3.9941                 0.4290                 2.7277

                     43                     44                     45
                      A                      A                      A
 Frequencies --   1540.2934              1543.3140              1550.3889
 Red. masses --      1.0675                 1.0718                 1.1013
 Frc consts  --      1.4922                 1.5040                 1.5597
 IR Inten    --      0.2558                 8.1350                 5.6026

                     46                     47                     48
                      A                      A                      A
 Frequencies --   2907.1158              2917.0875              3010.2300
 Red. masses --      1.0736                 1.0744                 1.0588
 Frc consts  --      5.3457                 5.3864                 5.6530
 IR Inten    --     25.9082               162.0361                46.1472

                     49                     50                     51
                      A                      A                      A
 Frequencies --   3043.9577              3046.3337              3050.6537
 Red. masses --      1.1034                 1.0377                 1.0364
 Frc consts  --      6.0239                 5.6736                 5.6828
 IR Inten    --     25.8545                27.4355                47.4155

                     52                     53                     54
                      A                      A                      A
 Frequencies --   3051.4980              3062.0070              3073.5776
 Red. masses --      1.0355                 1.0877                 1.0863
 Frc consts  --      5.6812                 6.0086                 6.0460
 IR Inten    --     10.1693                 2.7255                39.6145

                     55                     56                     57
                      A                      A                      A
 Frequencies --   3113.7960              3115.4467              3117.3735
 Red. masses --      1.0993                 1.1016                 1.1005
 Frc consts  --      6.2800                 6.2997                 6.3012
 IR Inten    --     62.4874                23.2721                53.7886

                     58                     59                     60
                      A                      A                      A
 Frequencies --   3126.7598              3127.4090              3130.2221
 Red. masses --      1.1033                 1.1031                 1.1032
 Frc consts  --      6.3550                 6.3568                 6.3687
 IR Inten    --      7.6218                62.3946                32.0251

 - Thermochemistry -
 -------------------
 Temperature   298.150 Kelvin.  Pressure   1.00000 Atm.
 Atom     1 has atomic number  6 and mass  12.00000

 Molecular mass:   101.12045 amu.
 Principal axes and moments of inertia in atomic units:
                           1         2         3
     Eigenvalues --   592.75755 940.592981351.87034
           X            1.00000   0.00000   0.00000
           Y           -0.00000   0.99998  -0.00569
           Z           -0.00000   0.00569   0.99998
 This molecule is an asymmetric top.
 Rotational symmetry number  1.
 Warning -- assumption of classical behavior for rotation
           may cause significant error
 Rotational temperatures (Kelvin)      0.14612     0.09208     0.06407
 Rotational constants (GHZ):           3.04465     1.91873     1.33500
 Zero-point vibrational energy     543326.8 (Joules/Mol)
                                  129.85821 (Kcal/Mol)
 Warning -- explicit consideration of  12 degrees of freedom as
           vibrations may cause significant error
 Vibrational temperatures:     65.60   133.58   217.16   263.32   323.30
          (Kelvin)            344.18   396.18   489.59   496.92   583.61
                              662.87   728.30  1085.29  1124.90  1171.37
                             1183.70  1350.38  1354.37  1486.10  1568.56
                             1569.99  1590.20  1602.48  1640.77  1685.75
                             1802.54  1805.51  1896.90  1948.52  1962.83
                             2019.21  2021.24  2055.89  2065.15  2069.83
                             2100.55  2173.47  2180.02  2186.37  2190.48
                             2194.37  2205.27  2216.14  2220.48  2230.66
                             4182.69  4197.04  4331.05  4379.58  4382.99
                             4389.21  4390.43  4405.55  4422.19  4480.06
                             4482.43  4485.21  4498.71  4499.64  4503.69

 Zero-point correction=                           0.206942 (Hartree/Particle)
 Thermal correction to Energy=                    0.216313
 Thermal correction to Enthalpy=                  0.217257
 Thermal correction to Gibbs Free Energy=         0.172923
 Sum of electronic and zero-point Energies=           -292.207443
 Sum of electronic and thermal Energies=              -292.198072
 Sum of electronic and thermal Enthalpies=            -292.197128
 Sum of electronic and thermal Free Energies=         -292.241462

                     E (Thermal)             CV                S
                      KCal/Mol        Cal/Mol-Kelvin    Cal/Mol-Kelvin
 Total                  135.738             33.571             93.309
 Electronic               0.000              0.000              0.000
 Translational            0.889              2.981             39.751
 Rotational               0.889              2.981             28.113
 Vibrational            133.961             27.609             25.445
 Vibration     1          0.595              1.979              5.000
 Vibration     2          0.602              1.954              3.599
 Vibration     3          0.618              1.902              2.660
 Vibration     4          0.631              1.863              2.297
 Vibration     5          0.649              1.803              1.921
 Vibration     6          0.657              1.780              1.809
 Vibration     7          0.677              1.719              1.562
 Vibration     8          0.720              1.595              1.211
 Vibration     9          0.724              1.585              1.187
 Vibration    10          0.771              1.458              0.942
 Vibration    11          0.819              1.337              0.764
 Vibration    12          0.861              1.236              0.643

 Optimization completed.
    -- Stationary point found.
 Normal termination of Gaussian 16 at Mon Aug 24 17:11:12 2020.
 Gaussian 16:  ES64L-G16RevA.03 25-Dec-2016

 ----------------------------------------------------------------------
 # TD(NStates=10, Root=1) B3LYP/6-31G* scf=qc volume pop=NPA density=cu
 rrent Geom=AllCheck Guess=Read
 ----------------------------------------------------------------------

 Structure from the checkpoint file:  "base_4_conf93.chk"
 -------------------
 Title Card Required
 -------------------
 Charge =  0 Multiplicity = 1

                         Standard orientation:
 ---------------------------------------------------------------------
 Center     Atomic      Atomic             Coordinates (Angstroms)
 Number     Number       Type             X           Y           Z
 ---------------------------------------------------------------------
      1          6           0       -2.459699   -0.443704   -0.420590
      2          6           0       -1.217926   -1.080903    0.205624
      3          7           0        0.000126   -0.298648   -0.014480
      4          6           0       -0.000179    0.989780    0.702397
      5          6           0       -0.000672    2.200167   -0.235825
      6          6           0        1.218448   -1.080447    0.205761
      7          6           0        2.459967   -0.442965   -0.420673
      8          1           0       -3.332000   -1.091685   -0.275327
      9          1           0       -2.310702   -0.293377   -1.495112
     10          1           0       -2.694146    0.527908    0.028198
     11          1           0       -1.064626   -2.064991   -0.252979
     12          1           0       -1.403487   -1.264576    1.283987
     13          1           0        0.874709    1.044136    1.366420
     14          1           0       -0.874905    1.043595    1.366692
     15          1           0        0.882708    2.192343   -0.882798
     16          1           0       -0.000963    3.137094    0.335923
     17          1           0       -0.884126    2.191735   -0.882690
     18          1           0        1.065461   -2.064690   -0.252613
     19          1           0        1.404113   -1.263823    1.284153
     20          1           0        2.310879   -0.293016   -1.495235
     21          1           0        3.332526   -1.090560   -0.275240
     22          1           0        2.694045    0.528879    0.027808
 ---------------------------------------------------------------------

 SCF Done:  E(RB3LYP) =  -292.414384886     a.u. after    1 cycles

 Excitation energies and oscillator strengths:

 Excited State   1:      Singlet-A      6.8727 eV  180.40 nm  f=0.0102  <S**2>=0.000
      29 -> 30         0.69314
      29 -> 31        -0.11869
 This state for optimization and/or second-order correction.
 Total Energy, E(TD-HF/TD-DFT) =  -292.161816173
 Copying the excited state density for this state as the 1-particle RhoCI density.

 Excited State   2:      Singlet-A      7.4391 eV  166.67 nm  f=0.0294  <S**2>=0.000
      29 -> 30         0.12023
      29 -> 31         0.69326

 Excited State   3:      Singlet-A      7.5934 eV  163.28 nm  f=0.0778  <S**2>=0.000
      29 -> 32         0.69724
      29 -> 34        -0.10974

 Excited State   4:      Singlet-A      8.0384 eV  154.24 nm  f=0.0779  <S**2>=0.000
      29 -> 33         0.69944

 Excited State   5:      Singlet-A      8.0770 eV  153.50 nm  f=0.0130  <S**2>=0.000
      29 -> 32         0.10945
      29 -> 34         0.69287

 Excited State   6:      Singlet-A      8.5858 eV  144.41 nm  f=0.0613  <S**2>=0.000
      29 -> 35         0.69219

 Excited State   7:      Singlet-A      8.9948 eV  137.84 nm  f=0.0343  <S**2>=0.000
      29 -> 36         0.68435
      29 -> 38         0.12621

 Excited State   8:      Singlet-A      9.0662 eV  136.75 nm  f=0.0206  <S**2>=0.000
      29 -> 37         0.70528

 Excited State   9:      Singlet-A      9.0750 eV  136.62 nm  f=0.0015  <S**2>=0.000
      29 -> 36        -0.12403
      29 -> 38         0.68389

 Excited State  10:      Singlet-A      9.2952 eV  133.39 nm  f=0.0237  <S**2>=0.000
      29 -> 39         0.69461

 The electronic state is 1-A.
 Alpha  occ. eigenvalues --  -14.31245 -10.20191 -10.20191 -10.20089 -10.16989
 Alpha  occ. eigenvalues --  -10.16989 -10.16613  -0.90868  -0.75642  -0.74834
 Alpha  occ. eigenvalues --   -0.70123  -0.62280  -0.60518  -0.55948  -0.48348
 Alpha  occ. eigenvalues --   -0.46470  -0.43745  -0.43494  -0.40613  -0.40109
 Alpha  occ. eigenvalues --   -0.38454  -0.37493  -0.36279  -0.35092  -0.34598
 Alpha  occ. eigenvalues --   -0.33078  -0.32782  -0.32356  -0.20080
 Alpha virt. eigenvalues --    0.08785   0.11001   0.11294   0.13304   0.13858
 Alpha virt. eigenvalues --    0.15000   0.16390   0.16654   0.17082   0.17794
 Alpha virt. eigenvalues --    0.19131   0.19556   0.20383   0.20673   0.21693

 Mulliken charges:
               1
     1  C   -0.414961
     2  C   -0.095740
     3  N   -0.181509
     4  C   -0.074060
     5  C   -0.458395
     6  C   -0.095742
     7  C   -0.414939
     8  H    0.117163
     9  H    0.131891
    10  H    0.107963
    11  H    0.036004
    12  H    0.158993
    13  H    0.094535
    14  H    0.094596
    15  H    0.143980
    16  H    0.154274
    17  H    0.143999
    18  H    0.036012
    19  H    0.158977
    20  H    0.131870
    21  H    0.117159
    22  H    0.107931
 Sum of Mulliken charges =  -0.00000

 Dipole moment (field-independent basis, Debye):
    X=             -0.0010    Y=              0.6949    Z=              0.8311  Tot=              1.0833
 Quadrupole moment (field-independent basis, Debye-Ang):
   XX=            -52.6326   YY=            -51.6616   ZZ=            -48.8345
   XY=             -0.0009   XZ=              0.0001   YZ=             -2.0267

 Summary of Natural Population Analysis:

                                       Natural Population
                Natural  -----------------------------------------------
    Atom  No    Charge         Core      Valence    Rydberg      Total
 -----------------------------------------------------------------------
      C    1   -0.69791      1.99944     4.68733    0.01114     6.69791
      C    2   -0.31905      1.99932     4.30116    0.01857     6.31905
      N    3   -0.04827      1.99930     5.03853    0.01043     7.04827
      C    4   -0.31902      1.99930     4.30109    0.01863     6.31902
      C    5   -0.69953      1.99943     4.68630    0.01380     6.69953
      C    6   -0.31906      1.99932     4.30116    0.01857     6.31906
      C    7   -0.69791      1.99944     4.68732    0.01114     6.69791
      H    8    0.21060      0.00000     0.77569    0.01371     0.78940
      H    9    0.21835      0.00000     0.77195    0.00969     0.78165
      H   10    0.19725      0.00000     0.78123    0.02152     0.80275
      H   11    0.13724      0.00000     0.80962    0.05314     0.86276
      H   12    0.24995      0.00000     0.73370    0.01635     0.75005
      H   13    0.19507      0.00000     0.77102    0.03392     0.80493
      H   14    0.19512      0.00000     0.77098    0.03389     0.80488
      H   15    0.22156      0.00000     0.76937    0.00907     0.77844
      H   16    0.24069      0.00000     0.75578    0.00354     0.75931
      H   17    0.22157      0.00000     0.76937    0.00906     0.77843
      H   18    0.13725      0.00000     0.80961    0.05314     0.86275
      H   19    0.24993      0.00000     0.73371    0.01636     0.75007
      H   20    0.21834      0.00000     0.77196    0.00970     0.78166
      H   21    0.21060      0.00000     0.77570    0.01371     0.78940
      H   22    0.19723      0.00000     0.78123    0.02154     0.80277
 =======================================================================
   * Total *    0.00000     13.99556    43.58382    0.42062    58.00000

 Normal termination of Gaussian 16 at Mon Aug 24 17:14:47 2020.
