 Gaussian 16, Revision A.03,

 ---------------------------------
 # opt=CalcAll B3LYP/6-31G* scf=qc
 ---------------------------------

 -------------------
 Title Card Required
 -------------------
 Symbolic Z-matrix:
 Charge =  0 Multiplicity = 1

 SCF Done:  E(RB3LYP) =  -519.715503589     a.u. after    9 cycles
 SCF Done:  E(RB3LYP) =  -519.731442986     a.u. after   15 cycles
 SCF Done:  E(RB3LYP) =  -519.783127372     a.u. after   15 cycles
 SCF Done:  E(RB3LYP) =  -519.805898539     a.u. after   15 cycles
 SCF Done:  E(RB3LYP) =  -519.816787607     a.u. after   13 cycles
 SCF Done:  E(RB3LYP) =  -519.817186957     a.u. after   13 cycles
 SCF Done:  E(RB3LYP) =  -519.822077566     a.u. after   17 cycles
 SCF Done:  E(RB3LYP) =  -519.827091980     a.u. after   13 cycles
 SCF Done:  E(RB3LYP) =  -519.829040844     a.u. after   13 cycles
 SCF Done:  E(RB3LYP) =  -519.829271771     a.u. after   11 cycles
 SCF Done:  E(RB3LYP) =  -519.829448248     a.u. after    7 cycles
 SCF Done:  E(RB3LYP) =  -519.829452183     a.u. after    4 cycles
 SCF Done:  E(RB3LYP) =  -519.829452316     a.u. after    2 cycles
 Optimization completed.
    -- Stationary point found.
 Normal termination of Gaussian 16 at Mon Aug 24 14:42:00 2020.

 ----------------------------------------------------------------------
 # freq B3LYP/6-31G* scf=qc volume NMR pop=NPA density=current Geom=All
 Check Guess=Read
 ----------------------------------------------------------------------

 Structure from the checkpoint file:  "base_3_conf162.chk"
 -------------------
 Title Card Required
 -------------------
 Charge =  0 Multiplicity = 1

 SCF Done:  E(RB3LYP) =  -519.829452316     a.u. after    1 cycles

      1  N    Isotropic =   210.3036   Anisotropy =    59.8238

      2  C    Isotropic =    44.7839   Anisotropy =    69.4347

      3  N    Isotropic =    19.7626   Anisotropy =   285.3003

      4  C    Isotropic =   135.3691   Anisotropy =    31.4248

      5  C    Isotropic =   159.1534   Anisotropy =    39.1460

      6  C    Isotropic =   152.7020   Anisotropy =    46.8986

      7  C    Isotropic =   163.0950   Anisotropy =    32.4315

      8  N    Isotropic =   182.1469   Anisotropy =    82.9139

      9  C    Isotropic =   152.1312   Anisotropy =    52.2774

     10  C    Isotropic =   150.9024   Anisotropy =    45.6783

     11  C    Isotropic =   151.6448   Anisotropy =    54.7992

     12  C    Isotropic =   148.0099   Anisotropy =    53.5585

     13  H    Isotropic =    30.7495   Anisotropy =     6.9873

     14  H    Isotropic =    30.9929   Anisotropy =     5.7579

     15  H    Isotropic =    31.0562   Anisotropy =     8.2229

     16  H    Isotropic =    30.5395   Anisotropy =     6.6863

     17  H    Isotropic =    31.1937   Anisotropy =     8.2928

     18  H    Isotropic =    31.0198   Anisotropy =     6.5447

     19  H    Isotropic =    30.5618   Anisotropy =     6.0557

     20  H    Isotropic =    31.0890   Anisotropy =     5.7447

     21  H    Isotropic =    31.0452   Anisotropy =     7.8886

     22  H    Isotropic =    29.5585   Anisotropy =     4.5828

     23  H    Isotropic =    29.9831   Anisotropy =     9.2609

     24  H    Isotropic =    29.8826   Anisotropy =     9.0931

     25  H    Isotropic =    29.3314   Anisotropy =     7.0954

     26  H    Isotropic =    30.2728   Anisotropy =     9.0328

     27  H    Isotropic =    29.7973   Anisotropy =     8.4005

     28  H    Isotropic =    29.2326   Anisotropy =     6.8429

     29  H    Isotropic =    29.7706   Anisotropy =     9.6429

     30  H    Isotropic =    29.8845   Anisotropy =     8.3724

     31  H    Isotropic =    29.2968   Anisotropy =     6.0193

     32  H    Isotropic =    29.8056   Anisotropy =     9.4492

     33  H    Isotropic =    29.5097   Anisotropy =     7.9148

  Exact polarizability: 143.960   1.395 121.708   0.484   0.838  96.882
 Approx polarizability: 189.279   5.904 166.670   4.470   1.900 139.884

                      1                      2                      3
                      A                      A                      A
 Frequencies --     31.8262                67.1785                88.9128
 Red. masses --      2.5931                 2.7504                 2.5790
 Frc consts  --      0.0015                 0.0073                 0.0120
 IR Inten    --      0.2111                 0.4464                 2.2014

                      4                      5                      6
                      A                      A                      A
 Frequencies --    129.0820               133.7832               148.0806
 Red. masses --      1.7438                 2.1758                 2.0223
 Frc consts  --      0.0171                 0.0229                 0.0261
 IR Inten    --      2.0580                 1.3488                 0.6941

                      7                      8                      9
                      A                      A                      A
 Frequencies --    184.7983               201.6892               215.0780
 Red. masses --      1.7102                 1.2831                 1.1393
 Frc consts  --      0.0344                 0.0308                 0.0311
 IR Inten    --      0.2897                 0.5180                 0.1763

                     10                     11                     12
                      A                      A                      A
 Frequencies --    218.4621               226.4095               248.9293
 Red. masses --      1.1539                 1.5802                 1.3238
 Frc consts  --      0.0324                 0.0477                 0.0483
 IR Inten    --      0.9378                 1.0784                 2.4282

                     13                     14                     15
                      A                      A                      A
 Frequencies --    266.0841               271.3599               292.0535
 Red. masses --      1.1292                 1.9214                 1.3848
 Frc consts  --      0.0471                 0.0834                 0.0696
 IR Inten    --      1.3228                 0.8393                 3.1107

                     16                     17                     18
                      A                      A                      A
 Frequencies --    304.3018               329.7917               351.0135
 Red. masses --      2.2063                 2.7736                 2.4069
 Frc consts  --      0.1204                 0.1777                 0.1747
 IR Inten    --      4.3785                 2.8888                 1.3159

                     19                     20                     21
                      A                      A                      A
 Frequencies --    371.9909               379.3934               408.7303
 Red. masses --      2.6638                 2.4103                 2.4175
 Frc consts  --      0.2172                 0.2044                 0.2380
 IR Inten    --      5.5095                 1.3786                 1.9087

                     22                     23                     24
                      A                      A                      A
 Frequencies --    454.5649               503.9122               532.4400
 Red. masses --      2.4208                 3.5029                 3.2033
 Frc consts  --      0.2947                 0.5241                 0.5350
 IR Inten    --      0.7047                 8.1116                 0.1375

                     25                     26                     27
                      A                      A                      A
 Frequencies --    589.1318               694.2554               761.2621
 Red. masses --      3.4184                 5.2933                 7.6822
 Frc consts  --      0.6990                 1.5032                 2.6230
 IR Inten    --      9.8783                 2.2513                 9.2784

                     28                     29                     30
                      A                      A                      A
 Frequencies --    783.5309               909.7937               919.7470
 Red. masses --      3.6162                 2.3097                 2.3661
 Frc consts  --      1.3080                 1.1264                 1.1793
 IR Inten    --      1.0963                 8.5232                 5.7990

                     31                     32                     33
                      A                      A                      A
 Frequencies --    927.0423               953.3965               967.3187
 Red. masses --      1.7093                 3.0533                 1.2051
 Frc consts  --      0.8655                 1.6352                 0.6644
 IR Inten    --      0.4797                 5.8451                 0.2340

                     34                     35                     36
                      A                      A                      A
 Frequencies --   1045.2731              1056.1381              1065.6213
 Red. masses --      1.7837                 1.3961                 1.5136
 Frc consts  --      1.1482                 0.9175                 1.0126
 IR Inten    --     59.4380                 3.1555                18.5697

                     37                     38                     39
                      A                      A                      A
 Frequencies --   1081.0691              1096.9081              1131.7294
 Red. masses --      1.4302                 1.3800                 1.5510
 Frc consts  --      0.9848                 0.9783                 1.1704
 IR Inten    --     11.5096                 3.4037                83.8525

                     40                     41                     42
                      A                      A                      A
 Frequencies --   1135.6530              1149.6514              1182.1960
 Red. masses --      1.4486                 1.3522                 1.3499
 Frc consts  --      1.1007                 1.0530                 1.1116
 IR Inten    --     71.9812                32.6623                 3.4730

                     43                     44                     45
                      A                      A                      A
 Frequencies --   1184.2236              1246.4793              1248.4680
 Red. masses --      1.4159                 2.5045                 2.7358
 Frc consts  --      1.1699                 2.2927                 2.5124
 IR Inten    --     20.8367                79.1392                12.1312

                     46                     47                     48
                      A                      A                      A
 Frequencies --   1256.1551              1268.9132              1284.0615
 Red. masses --      2.8664                 4.4968                 4.9236
 Frc consts  --      2.6648                 4.2659                 4.7830
 IR Inten    --     14.1434                41.0935                18.1509

                     49                     50                     51
                      A                      A                      A
 Frequencies --   1361.3939              1396.7917              1416.9265
 Red. masses --      2.9649                 3.0558                 1.2428
 Frc consts  --      3.2376                 3.5127                 1.4701
 IR Inten    --     14.4486               206.3681                 3.5016

                     52                     53                     54
                      A                      A                      A
 Frequencies --   1419.9493              1448.5214              1460.9491
 Red. masses --      1.2393                 1.2243                 1.1539
 Frc consts  --      1.4722                 1.5135                 1.4511
 IR Inten    --      6.5734                 4.6921                 0.6102

                     55                     56                     57
                      A                      A                      A
 Frequencies --   1466.6275              1483.2100              1494.6130
 Red. masses --      1.1374                 1.1681                 1.1628
 Frc consts  --      1.4414                 1.5140                 1.5305
 IR Inten    --      2.7359                15.0575                13.8239

                     58                     59                     60
                      A                      A                      A
 Frequencies --   1503.5523              1505.1979              1509.5959
 Red. masses --      1.0581                 1.0730                 1.0572
 Frc consts  --      1.4093                 1.4322                 1.4194
 IR Inten    --      3.0755                 5.2881                 4.6195

                     61                     62                     63
                      A                      A                      A
 Frequencies --   1511.9103              1514.8560              1516.3335
 Red. masses --      1.0471                 1.0523                 1.0466
 Frc consts  --      1.4102                 1.4228                 1.4178
 IR Inten    --      0.7641                 7.8741                 0.7286

                     64                     65                     66
                      A                      A                      A
 Frequencies --   1518.9793              1529.4281              1530.7231
 Red. masses --      1.0656                 1.0538                 1.0552
 Frc consts  --      1.4486                 1.4523                 1.4567
 IR Inten    --      8.2334                11.0304                 7.2161

                     67                     68                     69
                      A                      A                      A
 Frequencies --   1532.5359              1542.1423              1545.6615
 Red. masses --      1.0560                 1.0552                 1.0546
 Frc consts  --      1.4612                 1.4785                 1.4845
 IR Inten    --      2.0750                 9.9899                11.1070

                     70                     71                     72
                      A                      A                      A
 Frequencies --   1550.5526              1566.2826              1702.2070
 Red. masses --      1.0768                 1.1168                 9.2280
 Frc consts  --      1.5253                 1.6142                15.7537
 IR Inten    --      6.8168                30.5577               472.4477

                     73                     74                     75
                      A                      A                      A
 Frequencies --   2977.6122              2984.0241              2988.8032
 Red. masses --      1.0497                 1.0557                 1.0574
 Frc consts  --      5.4836                 5.5388                 5.5654
 IR Inten    --     39.8277               130.0446               103.5540

                     76                     77                     78
                      A                      A                      A
 Frequencies --   3015.9071              3025.4724              3033.8924
 Red. masses --      1.0490                 1.0905                 1.0906
 Frc consts  --      5.6215                 5.8809                 5.9143
 IR Inten    --     79.8688                63.2831                35.9423

                     79                     80                     81
                      A                      A                      A
 Frequencies --   3041.6381              3047.7718              3055.0875
 Red. masses --      1.0357                 1.0376                 1.0387
 Frc consts  --      5.6457                 5.6786                 5.7119
 IR Inten    --     23.1739                29.1468                36.2062

                     82                     83                     84
                      A                      A                      A
 Frequencies --   3078.1936              3081.6688              3104.8585
 Red. masses --      1.0852                 1.0917                 1.1015
 Frc consts  --      6.0582                 6.1082                 6.2563
 IR Inten    --     27.4596                64.6347                 1.5131

                     85                     86                     87
                      A                      A                      A
 Frequencies --   3110.6821              3116.9766              3126.3836
 Red. masses --      1.1010                 1.1007                 1.1027
 Frc consts  --      6.2769                 6.3005                 6.3502
 IR Inten    --     29.0859                82.1101                15.0798

                     88                     89                     90
                      A                      A                      A
 Frequencies --   3130.3678              3154.6654              3163.2885
 Red. masses --      1.1019                 1.0964                 1.0940
 Frc consts  --      6.3618                 6.4290                 6.4496
 IR Inten    --     49.6231                29.9886                 9.0077

                     91                     92                     93
                      A                      A                      A
 Frequencies --   3167.7695              3168.4561              3170.2478
 Red. masses --      1.0968                 1.0947                 1.0924
 Frc consts  --      6.4844                 6.4749                 6.4686
 IR Inten    --     13.4234                20.0543                 8.4793

 - Thermochemistry -
 -------------------
 Temperature   298.150 Kelvin.  Pressure   1.00000 Atm.
 Atom     1 has atomic number  7 and mass  14.00307

 Molecular mass:   171.17355 amu.
 Principal axes and moments of inertia in atomic units:
                           1         2         3
     Eigenvalues --  1507.466822533.602323285.71961
           X            1.00000   0.00072  -0.00244
           Y           -0.00074   0.99999  -0.00429
           Z            0.00243   0.00429   0.99999
 This molecule is an asymmetric top.
 Rotational symmetry number  1.
 Warning -- assumption of classical behavior for rotation
           may cause significant error
 Rotational temperatures (Kelvin)      0.05746     0.03419     0.02636
 Rotational constants (GHZ):           1.19720     0.71232     0.54927
 Zero-point vibrational energy     789957.6 (Joules/Mol)
                                  188.80439 (Kcal/Mol)
 Warning -- explicit consideration of  25 degrees of freedom as
           vibrations may cause significant error
 Vibrational temperatures:     45.79    96.65   127.93   185.72   192.48
          (Kelvin)            213.05   265.88   290.19   309.45   314.32
                              325.75   358.15   382.84   390.43   420.20
                              437.82   474.50   505.03   535.21   545.86
                              588.07   654.02   725.02   766.06   847.63
                              998.88  1095.29  1127.33  1308.99  1323.31
                             1333.81  1371.72  1391.76  1503.91  1519.55
                             1533.19  1555.42  1578.21  1628.31  1633.95
                             1654.09  1700.92  1703.83  1793.41  1796.27
                             1807.33  1825.68  1847.48  1958.74  2009.67
                             2038.64  2042.99  2084.10  2101.98  2110.15
                             2134.01  2150.41  2163.28  2165.64  2171.97
                             2175.30  2179.54  2181.67  2185.47  2200.51
                             2202.37  2204.98  2218.80  2223.86  2230.90
                             2253.53  2449.10  4284.12  4293.35  4300.22
                             4339.22  4352.98  4365.09  4376.24  4385.06
                             4395.59  4428.83  4433.83  4467.20  4475.58
                             4484.63  4498.17  4503.90  4538.86  4551.27
                             4557.71  4558.70  4561.28

 Zero-point correction=                           0.300879 (Hartree/Particle)
 Thermal correction to Energy=                    0.316643
 Thermal correction to Enthalpy=                  0.317587
 Thermal correction to Gibbs Free Energy=         0.259207
 Sum of electronic and zero-point Energies=           -519.528573
 Sum of electronic and thermal Energies=              -519.512810
 Sum of electronic and thermal Enthalpies=            -519.511866
 Sum of electronic and thermal Free Energies=         -519.570245

                     E (Thermal)             CV                S
                      KCal/Mol        Cal/Mol-Kelvin    Cal/Mol-Kelvin
 Total                  198.696             57.741            122.871
 Electronic               0.000              0.000              0.000
 Translational            0.889              2.981             41.320
 Rotational               0.889              2.981             30.907
 Vibrational            196.919             51.780             50.644
 Vibration     1          0.594              1.983              5.712
 Vibration     2          0.598              1.970              4.234
 Vibration     3          0.602              1.957              3.684
 Vibration     4          0.612              1.924              2.960
 Vibration     5          0.613              1.920              2.891
 Vibration     6          0.617              1.905              2.697
 Vibration     7          0.631              1.861              2.279
 Vibration     8          0.639              1.837              2.118
 Vibration     9          0.645              1.818              2.000
 Vibration    10          0.646              1.813              1.972
 Vibration    11          0.650              1.801              1.907
 Vibration    12          0.662              1.765              1.738
 Vibration    13          0.672              1.735              1.622
 Vibration    14          0.675              1.726              1.588
 Vibration    15          0.687              1.689              1.462
 Vibration    16          0.695              1.666              1.393
 Vibration    17          0.713              1.616              1.261
 Vibration    18          0.728              1.573              1.162
 Vibration    19          0.744              1.530              1.072
 Vibration    20          0.749              1.514              1.042
 Vibration    21          0.773              1.451              0.931
 Vibration    22          0.813              1.351              0.782
 Vibration    23          0.859              1.241              0.648
 Vibration    24          0.887              1.178              0.582
 Vibration    25          0.946              1.055              0.469

                           ! Non-Optimized Parameters !
 Normal termination of Gaussian 16 at Mon Aug 24 14:48:33 2020.
 Gaussian 16:  ES64L-G16RevA.03 25-Dec-2016

 ----------------------------------------------------------------------
 # TD(NStates=10, Root=1) B3LYP/6-31G* scf=qc volume pop=NPA density=cu
 rrent Geom=AllCheck Guess=Read
 ----------------------------------------------------------------------

 Structure from the checkpoint file:  "base_3_conf163.chk"
 -------------------
 Title Card Required
 -------------------
 Charge =  0 Multiplicity = 1

                         Standard orientation:
 ---------------------------------------------------------------------
 Center     Atomic      Atomic             Coordinates (Angstroms)
 Number     Number       Type             X           Y           Z
 ---------------------------------------------------------------------
      1          7           0        0.844987    1.214557    0.137590
      2          6           0        0.568655   -0.158501   -0.030172
      3          7           0       -0.561703   -0.724377   -0.241792
      4          6           0       -1.910677   -0.200801    0.003596
      5          6           0       -2.558928    0.206884   -1.336664
      6          6           0       -2.696546   -1.411414    0.561969
      7          6           0       -2.024039    0.948511    1.028730
      8          7           0        1.707693   -0.975529    0.093185
      9          6           0        2.889425   -0.652013   -0.699336
     10          6           0        1.484230   -2.407799    0.226395
     11          6           0        1.762263    1.690002    1.155531
     12          6           0        0.486073    2.182390   -0.877841
     13          1           0       -2.449787   -0.600539   -2.068366
     14          1           0       -2.101928    1.109745   -1.754276
     15          1           0       -3.628514    0.408398   -1.201946
     16          1           0       -2.632876   -2.254446   -0.133148
     17          1           0       -3.752941   -1.161292    0.719440
     18          1           0       -2.272505   -1.732576    1.520289
     19          1           0       -1.611306    1.891067    0.663924
     20          1           0       -1.508318    0.688446    1.960036
     21          1           0       -3.080559    1.120885    1.268130
     22          1           0        2.987000    0.427562   -0.817594
     23          1           0        2.841751   -1.104449   -1.704415
     24          1           0        3.790552   -1.028774   -0.201186
     25          1           0        0.675633   -2.587678    0.935387
     26          1           0        2.406321   -2.873254    0.594399
     27          1           0        1.204382   -2.880542   -0.727309
     28          1           0        1.991505    0.879902    1.849097
     29          1           0        1.304239    2.517103    1.717943
     30          1           0        2.711120    2.063875    0.734128
     31          1           0       -0.080290    1.693952   -1.671180
     32          1           0        1.388393    2.631065   -1.327491
     33          1           0       -0.121445    3.005436   -0.471982
 ---------------------------------------------------------------------

 SCF Done:  E(RB3LYP) =  -519.829452316     a.u. after    1 cycles

 Excitation energies and oscillator strengths:

 Excited State   1:      Singlet-A      5.4516 eV  227.43 nm  f=0.0042  <S**2>=0.000
      46 -> 49         0.30874
      47 -> 49         0.51888
      48 -> 49         0.36041
 This state for optimization and/or second-order correction.
 Total Energy, E(TD-HF/TD-DFT) =  -519.629108967
 Copying the excited state density for this state as the 1-particle RhoCI density.

 Excited State   2:      Singlet-A      5.9982 eV  206.70 nm  f=0.1131  <S**2>=0.000
      46 -> 49         0.57328
      48 -> 49        -0.39111

 Excited State   3:      Singlet-A      6.2845 eV  197.29 nm  f=0.2790  <S**2>=0.000
      46 -> 49        -0.25396
      47 -> 49         0.45895
      48 -> 49        -0.44169

 Excited State   4:      Singlet-A      6.4979 eV  190.81 nm  f=0.0069  <S**2>=0.000
      47 -> 50         0.10265
      48 -> 50         0.68361

 Excited State   5:      Singlet-A      6.9192 eV  179.19 nm  f=0.0290  <S**2>=0.000
      46 -> 50        -0.24385
      47 -> 50         0.64077
      48 -> 50        -0.12554

 Excited State   6:      Singlet-A      7.0576 eV  175.68 nm  f=0.0037  <S**2>=0.000
      46 -> 50         0.64316
      47 -> 50         0.26101

 Excited State   7:      Singlet-A      7.4159 eV  167.19 nm  f=0.0077  <S**2>=0.000
      48 -> 51         0.68246
      48 -> 53        -0.11755

 Excited State   8:      Singlet-A      7.6909 eV  161.21 nm  f=0.0148  <S**2>=0.000
      48 -> 52         0.68147

 Excited State   9:      Singlet-A      7.8206 eV  158.54 nm  f=0.0223  <S**2>=0.000
      47 -> 51         0.67147

 Excited State  10:      Singlet-A      7.9408 eV  156.14 nm  f=0.0096  <S**2>=0.000
      46 -> 51         0.58442
      46 -> 52         0.13126
      47 -> 52        -0.13923
      47 -> 53         0.10872
      48 -> 51         0.10687
      48 -> 53         0.27319

 The electronic state is 1-A.
 Alpha  occ. eigenvalues --  -14.33743 -14.33695 -14.27854 -10.26425 -10.21164
 Alpha  occ. eigenvalues --  -10.20867 -10.20857 -10.20810 -10.19424 -10.16069
 Alpha  occ. eigenvalues --  -10.15853 -10.15373  -0.96889  -0.89944  -0.86532
 Alpha  occ. eigenvalues --   -0.77042  -0.71591  -0.70451  -0.68211  -0.67181
 Alpha  occ. eigenvalues --   -0.66538  -0.63323  -0.56681  -0.52425  -0.50150
 Alpha  occ. eigenvalues --   -0.47227  -0.46454  -0.45260  -0.44300  -0.43263
 Alpha  occ. eigenvalues --   -0.42362  -0.41918  -0.40387  -0.39514  -0.38973
 Alpha  occ. eigenvalues --   -0.38247  -0.37734  -0.37450  -0.37225  -0.36394
 Alpha  occ. eigenvalues --   -0.35384  -0.34810  -0.32836  -0.31470  -0.29727
 Alpha  occ. eigenvalues --   -0.22026  -0.21456  -0.20157
 Alpha virt. eigenvalues --    0.04031   0.07084   0.10340   0.11253   0.12771
 Alpha virt. eigenvalues --    0.13209   0.13952   0.14385   0.15221   0.15692
 Alpha virt. eigenvalues --    0.16176   0.16817   0.17106   0.17445   0.18035

 Mulliken charges:
               1
     1  N   -0.398664
     2  C    0.525266
     3  N   -0.425575
     4  C    0.189180
     5  C   -0.426078
     6  C   -0.432080
     7  C   -0.441556
     8  N   -0.405441
     9  C   -0.293801
    10  C   -0.296462
    11  C   -0.300364
    12  C   -0.307228
    13  H    0.146012
    14  H    0.136481
    15  H    0.125519
    16  H    0.147215
    17  H    0.129685
    18  H    0.144885
    19  H    0.159994
    20  H    0.156971
    21  H    0.145297
    22  H    0.152109
    23  H    0.113183
    24  H    0.135135
    25  H    0.159808
    26  H    0.140097
    27  H    0.122869
    28  H    0.180812
    29  H    0.134889
    30  H    0.139294
    31  H    0.174951
    32  H    0.129730
    33  H    0.137866
 Sum of Mulliken charges =  -0.00000

 Dipole moment (field-independent basis, Debye):
    X=             -0.0412    Y=              1.1416    Z=              0.3635  Tot=              1.1988
 Quadrupole moment (field-independent basis, Debye-Ang):
   XX=            -74.9254   YY=            -74.9293   ZZ=            -77.9256
   XY=              0.2955   XZ=             -0.3580   YZ=             -0.3652

 Summary of Natural Population Analysis:

                                       Natural Population
                Natural  -----------------------------------------------
    Atom  No    Charge         Core      Valence    Rydberg      Total
 -----------------------------------------------------------------------
      N    1   -0.45648      1.99935     5.44455    0.01258     7.45648
      C    2    0.37822      1.99913     3.58838    0.03427     5.62178
      N    3   -0.33348      1.99898     5.31535    0.01914     7.33348
      C    4    0.09788      1.99908     3.88404    0.01901     5.90212
      C    5   -0.67641      1.99935     4.66659    0.01047     6.67641
      C    6   -0.66529      1.99935     4.65562    0.01032     6.66529
      C    7   -0.66113      1.99931     4.65235    0.00947     6.66113
      N    8   -0.49701      1.99939     5.48375    0.01386     7.49701
      C    9   -0.46048      1.99946     4.44880    0.01222     6.46048
      C   10   -0.46739      1.99949     4.45525    0.01265     6.46739
      C   11   -0.46967      1.99946     4.45746    0.01275     6.46967
      C   12   -0.46581      1.99946     4.45405    0.01230     6.46581
      H   13    0.23745      0.00000     0.76112    0.00143     0.76255
      H   14    0.22196      0.00000     0.77712    0.00092     0.77804
      H   15    0.22114      0.00000     0.77709    0.00177     0.77886
      H   16    0.23511      0.00000     0.76368    0.00121     0.76489
      H   17    0.22188      0.00000     0.77654    0.00158     0.77812
      H   18    0.23363      0.00000     0.76517    0.00120     0.76637
      H   19    0.23573      0.00000     0.76320    0.00107     0.76427
      H   20    0.24185      0.00000     0.75710    0.00105     0.75815
      H   21    0.23710      0.00000     0.76153    0.00137     0.76290
      H   22    0.22287      0.00000     0.77623    0.00090     0.77713
      H   23    0.18702      0.00000     0.80647    0.00651     0.81298
      H   24    0.21400      0.00000     0.78374    0.00226     0.78600
      H   25    0.23468      0.00000     0.76444    0.00088     0.76532
      H   26    0.22149      0.00000     0.77753    0.00097     0.77851
      H   27    0.19238      0.00000     0.80293    0.00469     0.80762
      H   28    0.25077      0.00000     0.74822    0.00102     0.74923
      H   29    0.20938      0.00000     0.78807    0.00255     0.79062
      H   30    0.21064      0.00000     0.78733    0.00203     0.78936
      H   31    0.23569      0.00000     0.76341    0.00090     0.76431
      H   32    0.20605      0.00000     0.79018    0.00378     0.79395
      H   33    0.20623      0.00000     0.79191    0.00186     0.79377
 =======================================================================
   * Total *   -0.00000     23.99182    71.78920    0.21898    96.00000

 Normal termination of Gaussian 16 at Mon Aug 24 14:56:09 2020.
