 Gaussian 16, Revision A.03,

 ---------------------------------
 # opt=CalcAll B3LYP/6-31G* scf=qc
 ---------------------------------

 -------------------
 Title Card Required
 -------------------
 Symbolic Z-matrix:
 Charge =  0 Multiplicity = 1

 SCF Done:  E(RB3LYP) =  -519.768235293     a.u. after    9 cycles
 SCF Done:  E(RB3LYP) =  -519.761500825     a.u. after   15 cycles
 SCF Done:  E(RB3LYP) =  -519.794846417     a.u. after   14 cycles
 SCF Done:  E(RB3LYP) =  -519.816407573     a.u. after   15 cycles
 SCF Done:  E(RB3LYP) =  -519.821609017     a.u. after   15 cycles
 SCF Done:  E(RB3LYP) =  -519.826598435     a.u. after   15 cycles
 SCF Done:  E(RB3LYP) =  -519.815072089     a.u. after   17 cycles
 SCF Done:  E(RB3LYP) =  -519.823468687     a.u. after   11 cycles
 SCF Done:  E(RB3LYP) =  -519.827570142     a.u. after    5 cycles
 SCF Done:  E(RB3LYP) =  -519.829110817     a.u. after   11 cycles
 SCF Done:  E(RB3LYP) =  -519.829433184     a.u. after   11 cycles
 SCF Done:  E(RB3LYP) =  -519.829450862     a.u. after    7 cycles
 SCF Done:  E(RB3LYP) =  -519.829452348     a.u. after    3 cycles
 Optimization completed.
    -- Stationary point found.
 Normal termination of Gaussian 16 at Mon Aug 24 17:39:46 2020.

 ----------------------------------------------------------------------
 # freq B3LYP/6-31G* scf=qc volume NMR pop=NPA density=current Geom=All
 Check Guess=Read
 ----------------------------------------------------------------------

 Structure from the checkpoint file:  "base_3_conf82.chk"
 -------------------
 Title Card Required
 -------------------
 Charge =  0 Multiplicity = 1

 SCF Done:  E(RB3LYP) =  -519.829452348     a.u. after    1 cycles

      1  N    Isotropic =   210.3089   Anisotropy =    59.8427

      2  C    Isotropic =    44.7772   Anisotropy =    69.4502

      3  N    Isotropic =    19.7158   Anisotropy =   285.3764

      4  C    Isotropic =   135.3671   Anisotropy =    31.4258

      5  C    Isotropic =   163.0953   Anisotropy =    32.4386

      6  C    Isotropic =   152.7020   Anisotropy =    46.8978

      7  C    Isotropic =   159.1549   Anisotropy =    39.1436

      8  N    Isotropic =   182.1497   Anisotropy =    82.9055

      9  C    Isotropic =   152.1223   Anisotropy =    52.2911

     10  C    Isotropic =   150.8956   Anisotropy =    45.6706

     11  C    Isotropic =   148.0115   Anisotropy =    53.5523

     12  C    Isotropic =   151.6487   Anisotropy =    54.8064

     13  H    Isotropic =    31.0889   Anisotropy =     5.7440

     14  H    Isotropic =    30.5618   Anisotropy =     6.0573

     15  H    Isotropic =    31.0453   Anisotropy =     7.8895

     16  H    Isotropic =    31.0197   Anisotropy =     6.5447

     17  H    Isotropic =    31.1936   Anisotropy =     8.2924

     18  H    Isotropic =    30.5395   Anisotropy =     6.6864

     19  H    Isotropic =    30.9931   Anisotropy =     5.7582

     20  H    Isotropic =    30.7496   Anisotropy =     6.9874

     21  H    Isotropic =    31.0562   Anisotropy =     8.2229

     22  H    Isotropic =    29.5582   Anisotropy =     4.5846

     23  H    Isotropic =    29.8830   Anisotropy =     9.0932

     24  H    Isotropic =    29.9834   Anisotropy =     9.2589

     25  H    Isotropic =    29.3334   Anisotropy =     7.1003

     26  H    Isotropic =    29.7962   Anisotropy =     8.3967

     27  H    Isotropic =    30.2734   Anisotropy =     9.0310

     28  H    Isotropic =    29.2974   Anisotropy =     6.0202

     29  H    Isotropic =    29.5093   Anisotropy =     7.9120

     30  H    Isotropic =    29.8058   Anisotropy =     9.4494

     31  H    Isotropic =    29.2319   Anisotropy =     6.8425

     32  H    Isotropic =    29.8847   Anisotropy =     8.3756

     33  H    Isotropic =    29.7705   Anisotropy =     9.6429

  Exact polarizability: 143.948  -1.400 121.708   0.483  -0.836  96.884
 Approx polarizability: 189.266  -5.913 166.671   4.471  -1.898 139.888

                      1                      2                      3
                      A                      A                      A
 Frequencies --     31.7482                67.1734                88.9535
 Red. masses --      2.5924                 2.7500                 2.5805
 Frc consts  --      0.0015                 0.0073                 0.0120
 IR Inten    --      0.2104                 0.4455                 2.1954

                      4                      5                      6
                      A                      A                      A
 Frequencies --    129.0098               133.8047               148.2089
 Red. masses --      1.7521                 2.1667                 2.0187
 Frc consts  --      0.0172                 0.0229                 0.0261
 IR Inten    --      2.0591                 1.3528                 0.6988

                      7                      8                      9
                      A                      A                      A
 Frequencies --    184.7652               201.6943               215.1378
 Red. masses --      1.7134                 1.2793                 1.1420
 Frc consts  --      0.0345                 0.0307                 0.0311
 IR Inten    --      0.2914                 0.5198                 0.1789

                     10                     11                     12
                      A                      A                      A
 Frequencies --    218.4350               226.3837               248.8741
 Red. masses --      1.1536                 1.5810                 1.3230
 Frc consts  --      0.0324                 0.0477                 0.0483
 IR Inten    --      0.9483                 1.0670                 2.4289

                     13                     14                     15
                      A                      A                      A
 Frequencies --    266.0485               271.3481               292.0312
 Red. masses --      1.1289                 1.9212                 1.3844
 Frc consts  --      0.0471                 0.0833                 0.0696
 IR Inten    --      1.3116                 0.8391                 3.1119

                     16                     17                     18
                      A                      A                      A
 Frequencies --    304.3217               329.7872               351.0155
 Red. masses --      2.2060                 2.7737                 2.4064
 Frc consts  --      0.1204                 0.1777                 0.1747
 IR Inten    --      4.3747                 2.8939                 1.3137

                     19                     20                     21
                      A                      A                      A
 Frequencies --    372.0069               379.4447               408.7370
 Red. masses --      2.6631                 2.4113                 2.4178
 Frc consts  --      0.2171                 0.2046                 0.2380
 IR Inten    --      5.5103                 1.3938                 1.9089

                     22                     23                     24
                      A                      A                      A
 Frequencies --    454.6021               503.9255               532.4319
 Red. masses --      2.4206                 3.5029                 3.2036
 Frc consts  --      0.2947                 0.5241                 0.5351
 IR Inten    --      0.7066                 8.1058                 0.1372

                     25                     26                     27
                      A                      A                      A
 Frequencies --    589.1760               694.2624               761.2883
 Red. masses --      3.4185                 5.2932                 7.6797
 Frc consts  --      0.6992                 1.5032                 2.6224
 IR Inten    --      9.8866                 2.2553                 9.2655

                     28                     29                     30
                      A                      A                      A
 Frequencies --    783.5472               909.7983               919.7507
 Red. masses --      3.6164                 2.3089                 2.3672
 Frc consts  --      1.3081                 1.1260                 1.1798
 IR Inten    --      1.1020                 8.5097                 5.8098

                     31                     32                     33
                      A                      A                      A
 Frequencies --    927.0509               953.3798               967.3170
 Red. masses --      1.7093                 3.0534                 1.2051
 Frc consts  --      0.8655                 1.6352                 0.6644
 IR Inten    --      0.4802                 5.8400                 0.2336

                     34                     35                     36
                      A                      A                      A
 Frequencies --   1045.2546              1056.1408              1065.6138
 Red. masses --      1.7843                 1.3961                 1.5133
 Frc consts  --      1.1486                 0.9175                 1.0125
 IR Inten    --     59.4584                 3.1452                18.5369

                     37                     38                     39
                      A                      A                      A
 Frequencies --   1081.0468              1096.9072              1131.7249
 Red. masses --      1.4305                 1.3799                 1.5504
 Frc consts  --      0.9850                 0.9782                 1.1700
 IR Inten    --     11.5285                 3.4019                83.6721

                     40                     41                     42
                      A                      A                      A
 Frequencies --   1135.6542              1149.6350              1182.1731
 Red. masses --      1.4492                 1.3521                 1.3499
 Frc consts  --      1.1012                 1.0529                 1.1115
 IR Inten    --     72.1085                32.6822                 3.4333

                     43                     44                     45
                      A                      A                      A
 Frequencies --   1184.2464              1246.4731              1248.4715
 Red. masses --      1.4161                 2.5045                 2.7358
 Frc consts  --      1.1701                 2.2926                 2.5124
 IR Inten    --     20.8914                79.1160                12.1283

                     46                     47                     48
                      A                      A                      A
 Frequencies --   1256.1578              1268.9011              1284.0415
 Red. masses --      2.8664                 4.4946                 4.9218
 Frc consts  --      2.6648                 4.2638                 4.7811
 IR Inten    --     14.1624                41.0749                18.1470

                     49                     50                     51
                      A                      A                      A
 Frequencies --   1361.3223              1396.7425              1416.9297
 Red. masses --      2.9648                 3.0560                 1.2428
 Frc consts  --      3.2371                 3.5127                 1.4701
 IR Inten    --     14.5284               206.2541                 3.5037

                     52                     53                     54
                      A                      A                      A
 Frequencies --   1419.9537              1448.5253              1460.9593
 Red. masses --      1.2393                 1.2243                 1.1540
 Frc consts  --      1.4722                 1.5135                 1.4512
 IR Inten    --      6.5691                 4.6959                 0.6061

                     55                     56                     57
                      A                      A                      A
 Frequencies --   1466.6191              1483.2158              1494.6225
 Red. masses --      1.1374                 1.1680                 1.1628
 Frc consts  --      1.4414                 1.5140                 1.5305
 IR Inten    --      2.7345                15.0139                13.8099

                     58                     59                     60
                      A                      A                      A
 Frequencies --   1503.5523              1505.1996              1509.6020
 Red. masses --      1.0581                 1.0730                 1.0572
 Frc consts  --      1.4094                 1.4323                 1.4195
 IR Inten    --      3.0720                 5.2899                 4.6260

                     61                     62                     63
                      A                      A                      A
 Frequencies --   1511.9171              1514.8558              1516.3320
 Red. masses --      1.0471                 1.0523                 1.0466
 Frc consts  --      1.4102                 1.4228                 1.4178
 IR Inten    --      0.7677                 7.9037                 0.7298

                     64                     65                     66
                      A                      A                      A
 Frequencies --   1518.9824              1529.4229              1530.7173
 Red. masses --      1.0655                 1.0538                 1.0552
 Frc consts  --      1.4485                 1.4523                 1.4568
 IR Inten    --      8.2031                11.1072                 7.1811

                     67                     68                     69
                      A                      A                      A
 Frequencies --   1532.5270              1542.1331              1545.6618
 Red. masses --      1.0560                 1.0552                 1.0546
 Frc consts  --      1.4612                 1.4785                 1.4845
 IR Inten    --      2.0646                10.0149                11.0874

                     70                     71                     72
                      A                      A                      A
 Frequencies --   1550.5369              1566.2715              1702.2129
 Red. masses --      1.0767                 1.1167                 9.2282
 Frc consts  --      1.5252                 1.6141                15.7542
 IR Inten    --      6.8365                30.5345               472.1900

                     73                     74                     75
                      A                      A                      A
 Frequencies --   2977.7136              2984.1316              2988.7649
 Red. masses --      1.0497                 1.0557                 1.0574
 Frc consts  --      5.4836                 5.5388                 5.5653
 IR Inten    --     39.8898               129.1262               104.3625

                     76                     77                     78
                      A                      A                      A
 Frequencies --   3015.8993              3025.4375              3033.8564
 Red. masses --      1.0490                 1.0905                 1.0906
 Frc consts  --      5.6216                 5.8811                 5.9145
 IR Inten    --     79.7348                63.4003                35.8636

                     79                     80                     81
                      A                      A                      A
 Frequencies --   3041.6433              3047.7833              3055.0968
 Red. masses --      1.0357                 1.0376                 1.0387
 Frc consts  --      5.6457                 5.6787                 5.7119
 IR Inten    --     23.1605                29.1536                36.2102

                     82                     83                     84
                      A                      A                      A
 Frequencies --   3078.2947              3081.7539              3104.8612
 Red. masses --      1.0852                 1.0916                 1.1015
 Frc consts  --      6.0586                 6.1083                 6.2563
 IR Inten    --     27.1900                64.8812                 1.5126

                     85                     86                     87
                      A                      A                      A
 Frequencies --   3110.6943              3116.9922              3126.4068
 Red. masses --      1.1010                 1.1007                 1.1027
 Frc consts  --      6.2769                 6.3006                 6.3503
 IR Inten    --     29.1725                81.9172                15.1675

                     88                     89                     90
                      A                      A                      A
 Frequencies --   3130.3806              3154.6919              3163.2969
 Red. masses --      1.1019                 1.0964                 1.0940
 Frc consts  --      6.3618                 6.4291                 6.4497
 IR Inten    --     49.6071                29.9751                 9.0039

                     91                     92                     93
                      A                      A                      A
 Frequencies --   3167.7326              3168.4220              3170.1539
 Red. masses --      1.0968                 1.0947                 1.0924
 Frc consts  --      6.4843                 6.4748                 6.4683
 IR Inten    --     13.4744                20.0504                 8.4912

 - Thermochemistry -
 -------------------
 Temperature   298.150 Kelvin.  Pressure   1.00000 Atm.
 Atom     1 has atomic number  7 and mass  14.00307

 Molecular mass:   171.17355 amu.
 Principal axes and moments of inertia in atomic units:
                           1         2         3
     Eigenvalues --  1507.585442533.428113285.52726
           X            1.00000  -0.00072  -0.00244
           Y            0.00073   0.99999   0.00428
           Z            0.00244  -0.00428   0.99999
 This molecule is an asymmetric top.
 Rotational symmetry number  1.
 Warning -- assumption of classical behavior for rotation
           may cause significant error
 Rotational temperatures (Kelvin)      0.05745     0.03419     0.02636
 Rotational constants (GHZ):           1.19711     0.71237     0.54930
 Zero-point vibrational energy     789958.4 (Joules/Mol)
                                  188.80458 (Kcal/Mol)
 Warning -- explicit consideration of  25 degrees of freedom as
           vibrations may cause significant error
 Vibrational temperatures:     45.68    96.65   127.98   185.62   192.52
          (Kelvin)            213.24   265.84   290.19   309.54   314.28
                              325.72   358.07   382.78   390.41   420.17
                              437.85   474.49   505.03   535.24   545.94
                              588.08   654.07   725.04   766.05   847.69
                              998.89  1095.32  1127.35  1309.00  1323.32
                             1333.82  1371.70  1391.75  1503.89  1519.55
                             1533.18  1555.39  1578.20  1628.30  1633.95
                             1654.07  1700.88  1703.87  1793.40  1796.27
                             1807.33  1825.67  1847.45  1958.64  2009.60
                             2038.65  2043.00  2084.10  2101.99  2110.14
                             2134.02  2150.43  2163.28  2165.65  2171.98
                             2175.31  2179.54  2181.66  2185.48  2200.50
                             2202.36  2204.96  2218.79  2223.86  2230.88
                             2253.52  2449.10  4284.27  4293.50  4300.17
                             4339.21  4352.93  4365.04  4376.25  4385.08
                             4395.60  4428.98  4433.96  4467.20  4475.60
                             4484.66  4498.20  4503.92  4538.90  4551.28
                             4557.66  4558.65  4561.14

 Zero-point correction=                           0.300879 (Hartree/Particle)
 Thermal correction to Energy=                    0.316643
 Thermal correction to Enthalpy=                  0.317587
 Thermal correction to Gibbs Free Energy=         0.259206
 Sum of electronic and zero-point Energies=           -519.528573
 Sum of electronic and thermal Energies=              -519.512809
 Sum of electronic and thermal Enthalpies=            -519.511865
 Sum of electronic and thermal Free Energies=         -519.570247

                     E (Thermal)             CV                S
                      KCal/Mol        Cal/Mol-Kelvin    Cal/Mol-Kelvin
 Total                  198.696             57.741            122.874
 Electronic               0.000              0.000              0.000
 Translational            0.889              2.981             41.320
 Rotational               0.889              2.981             30.907
 Vibrational            196.919             51.780             50.647
 Vibration     1          0.594              1.983              5.717
 Vibration     2          0.598              1.970              4.235
 Vibration     3          0.602              1.957              3.683
 Vibration     4          0.611              1.924              2.961
 Vibration     5          0.613              1.920              2.891
 Vibration     6          0.618              1.905              2.695
 Vibration     7          0.631              1.861              2.280
 Vibration     8          0.639              1.837              2.118
 Vibration     9          0.645              1.818              2.000
 Vibration    10          0.646              1.813              1.972
 Vibration    11          0.650              1.801              1.907
 Vibration    12          0.662              1.765              1.739
 Vibration    13          0.672              1.735              1.622
 Vibration    14          0.675              1.726              1.588
 Vibration    15          0.687              1.689              1.462
 Vibration    16          0.695              1.666              1.393
 Vibration    17          0.713              1.616              1.261
 Vibration    18          0.728              1.573              1.162
 Vibration    19          0.744              1.530              1.072
 Vibration    20          0.749              1.514              1.041
 Vibration    21          0.773              1.451              0.931
 Vibration    22          0.813              1.351              0.782
 Vibration    23          0.859              1.241              0.648
 Vibration    24          0.887              1.178              0.582
 Vibration    25          0.946              1.055              0.469

                           ! Non-Optimized Parameters !
 Normal termination of Gaussian 16 at Mon Aug 24 17:46:08 2020.
 Gaussian 16:  ES64L-G16RevA.03 25-Dec-2016

 ----------------------------------------------------------------------
 # TD(NStates=10, Root=1) B3LYP/6-31G* scf=qc volume pop=NPA density=cu
 rrent Geom=AllCheck Guess=Read
 ----------------------------------------------------------------------

 Structure from the checkpoint file:  "base_3_conf83.chk"
 -------------------
 Title Card Required
 -------------------
 Charge =  0 Multiplicity = 1

                         Standard orientation:
 ---------------------------------------------------------------------
 Center     Atomic      Atomic             Coordinates (Angstroms)
 Number     Number       Type             X           Y           Z
 ---------------------------------------------------------------------
      1          7           0        0.845177   -1.214618    0.137430
      2          6           0        0.568767    0.158475   -0.030052
      3          7           0       -0.561557    0.724422   -0.241619
      4          6           0       -1.910565    0.200823    0.003571
      5          6           0       -2.023975   -0.948627    1.028550
      6          6           0       -2.696469    1.411360    0.562062
      7          6           0       -2.558724   -0.206646   -1.336787
      8          7           0        1.707824    0.975473    0.093579
      9          6           0        2.889189    0.652301   -0.699668
     10          6           0        1.484053    2.407722    0.226585
     11          6           0        0.485988   -2.182381   -0.877981
     12          6           0        1.762010   -1.690262    1.155695
     13          1           0       -1.508383   -0.688622    1.959945
     14          1           0       -1.611127   -1.891119    0.663714
     15          1           0       -3.080508   -1.121106    1.267813
     16          1           0       -2.272481    1.732407    1.520442
     17          1           0       -3.752869    1.161205    0.719446
     18          1           0       -2.632777    2.254481   -0.132944
     19          1           0       -2.101550   -1.109295   -1.754645
     20          1           0       -2.449748    0.601000   -2.068268
     21          1           0       -3.628268   -0.408401   -1.202101
     22          1           0        2.987304   -0.427271   -0.817518
     23          1           0        3.790401    1.029789   -0.202242
     24          1           0        2.840602    1.104301   -1.704905
     25          1           0        0.676127    2.587603    0.936343
     26          1           0        1.203109    2.880140   -0.726963
     27          1           0        2.406388    2.873495    0.593549
     28          1           0       -0.079631   -1.693659   -1.671688
     29          1           0       -0.122323   -3.004944   -0.472319
     30          1           0        1.388208   -2.631748   -1.327108
     31          1           0        1.991447   -0.880121    1.849149
     32          1           0        2.710777   -2.064599    0.734535
     33          1           0        1.303539   -2.517067    1.718187
 ---------------------------------------------------------------------

 SCF Done:  E(RB3LYP) =  -519.829452348     a.u. after    1 cycles

 Excitation energies and oscillator strengths:

 Excited State   1:      Singlet-A      5.4512 eV  227.44 nm  f=0.0042  <S**2>=0.000
      46 -> 49         0.30919
      47 -> 49         0.51818
      48 -> 49        -0.36103
 This state for optimization and/or second-order correction.
 Total Energy, E(TD-HF/TD-DFT) =  -519.629125243
 Copying the excited state density for this state as the 1-particle RhoCI density.

 Excited State   2:      Singlet-A      5.9976 eV  206.72 nm  f=0.1129  <S**2>=0.000
      46 -> 49         0.57342
      48 -> 49         0.39085

 Excited State   3:      Singlet-A      6.2846 eV  197.28 nm  f=0.2791  <S**2>=0.000
      46 -> 49        -0.25315
      47 -> 49         0.45970
      48 -> 49         0.44149

 Excited State   4:      Singlet-A      6.4981 eV  190.80 nm  f=0.0068  <S**2>=0.000
      47 -> 50        -0.10261
      48 -> 50         0.68370

 Excited State   5:      Singlet-A      6.9194 eV  179.18 nm  f=0.0289  <S**2>=0.000
      46 -> 50        -0.24314
      47 -> 50         0.64107
      48 -> 50         0.12549

 Excited State   6:      Singlet-A      7.0578 eV  175.67 nm  f=0.0037  <S**2>=0.000
      46 -> 50         0.64344
      47 -> 50         0.26031

 Excited State   7:      Singlet-A      7.4163 eV  167.18 nm  f=0.0078  <S**2>=0.000
      48 -> 51         0.68241
      48 -> 53        -0.11785

 Excited State   8:      Singlet-A      7.6919 eV  161.19 nm  f=0.0148  <S**2>=0.000
      48 -> 52         0.68147

 Excited State   9:      Singlet-A      7.8209 eV  158.53 nm  f=0.0223  <S**2>=0.000
      47 -> 51         0.67147

 Excited State  10:      Singlet-A      7.9410 eV  156.13 nm  f=0.0096  <S**2>=0.000
      46 -> 51         0.58458
      46 -> 52         0.13067
      47 -> 52        -0.13839
      47 -> 53         0.10867
      48 -> 51        -0.10698
      48 -> 53        -0.27374

 The electronic state is 1-A.
 Alpha  occ. eigenvalues --  -14.33742 -14.33695 -14.27856 -10.26424 -10.21165
 Alpha  occ. eigenvalues --  -10.20867 -10.20858 -10.20809 -10.19422 -10.16069
 Alpha  occ. eigenvalues --  -10.15854 -10.15374  -0.96888  -0.89943  -0.86533
 Alpha  occ. eigenvalues --   -0.77042  -0.71591  -0.70449  -0.68210  -0.67182
 Alpha  occ. eigenvalues --   -0.66538  -0.63322  -0.56682  -0.52425  -0.50148
 Alpha  occ. eigenvalues --   -0.47227  -0.46454  -0.45260  -0.44299  -0.43262
 Alpha  occ. eigenvalues --   -0.42363  -0.41918  -0.40387  -0.39513  -0.38972
 Alpha  occ. eigenvalues --   -0.38246  -0.37734  -0.37450  -0.37225  -0.36393
 Alpha  occ. eigenvalues --   -0.35384  -0.34810  -0.32836  -0.31471  -0.29726
 Alpha  occ. eigenvalues --   -0.22027  -0.21457  -0.20159
 Alpha virt. eigenvalues --    0.04029   0.07084   0.10341   0.11254   0.12770
 Alpha virt. eigenvalues --    0.13209   0.13952   0.14386   0.15221   0.15692
 Alpha virt. eigenvalues --    0.16176   0.16816   0.17106   0.17444   0.18035

 Mulliken charges:
               1
     1  N   -0.398631
     2  C    0.525196
     3  N   -0.425560
     4  C    0.189175
     5  C   -0.441585
     6  C   -0.432075
     7  C   -0.426071
     8  N   -0.405442
     9  C   -0.293801
    10  C   -0.296450
    11  C   -0.307235
    12  C   -0.300370
    13  H    0.156965
    14  H    0.159974
    15  H    0.145298
    16  H    0.144884
    17  H    0.129681
    18  H    0.147214
    19  H    0.136473
    20  H    0.146008
    21  H    0.125518
    22  H    0.152083
    23  H    0.135125
    24  H    0.113176
    25  H    0.159786
    26  H    0.122876
    27  H    0.140098
    28  H    0.174959
    29  H    0.137890
    30  H    0.129783
    31  H    0.180847
    32  H    0.139335
    33  H    0.134875
 Sum of Mulliken charges =  -0.00000

 Dipole moment (field-independent basis, Debye):
    X=             -0.0413    Y=             -1.1433    Z=              0.3628  Tot=              1.2002
 Quadrupole moment (field-independent basis, Debye-Ang):
   XX=            -74.9277   YY=            -74.9263   ZZ=            -77.9250
   XY=             -0.2970   XZ=             -0.3593   YZ=              0.3652

 Summary of Natural Population Analysis:

                                       Natural Population
                Natural  -----------------------------------------------
    Atom  No    Charge         Core      Valence    Rydberg      Total
 -----------------------------------------------------------------------
      N    1   -0.45636      1.99935     5.44443    0.01258     7.45636
      C    2    0.37819      1.99913     3.58840    0.03428     5.62181
      N    3   -0.33357      1.99898     5.31544    0.01914     7.33357
      C    4    0.09789      1.99908     3.88403    0.01901     5.90211
      C    5   -0.66113      1.99931     4.65236    0.00946     6.66113
      C    6   -0.66529      1.99935     4.65562    0.01032     6.66529
      C    7   -0.67641      1.99935     4.66659    0.01047     6.67641
      N    8   -0.49703      1.99939     5.48378    0.01386     7.49703
      C    9   -0.46049      1.99946     4.44881    0.01222     6.46049
      C   10   -0.46741      1.99949     4.45527    0.01265     6.46741
      C   11   -0.46581      1.99946     4.45405    0.01230     6.46581
      C   12   -0.46968      1.99946     4.45747    0.01275     6.46968
      H   13    0.24184      0.00000     0.75710    0.00105     0.75816
      H   14    0.23571      0.00000     0.76322    0.00107     0.76429
      H   15    0.23710      0.00000     0.76153    0.00137     0.76290
      H   16    0.23363      0.00000     0.76517    0.00120     0.76637
      H   17    0.22188      0.00000     0.77655    0.00157     0.77812
      H   18    0.23511      0.00000     0.76368    0.00121     0.76489
      H   19    0.22196      0.00000     0.77712    0.00092     0.77804
      H   20    0.23744      0.00000     0.76112    0.00143     0.76256
      H   21    0.22114      0.00000     0.77709    0.00177     0.77886
      H   22    0.22286      0.00000     0.77624    0.00090     0.77714
      H   23    0.21400      0.00000     0.78374    0.00226     0.78600
      H   24    0.18701      0.00000     0.80648    0.00651     0.81299
      H   25    0.23467      0.00000     0.76445    0.00088     0.76533
      H   26    0.19239      0.00000     0.80292    0.00469     0.80761
      H   27    0.22151      0.00000     0.77752    0.00097     0.77849
      H   28    0.23571      0.00000     0.76340    0.00090     0.76429
      H   29    0.20622      0.00000     0.79192    0.00185     0.79378
      H   30    0.20610      0.00000     0.79013    0.00377     0.79390
      H   31    0.25078      0.00000     0.74820    0.00102     0.74922
      H   32    0.21069      0.00000     0.78729    0.00202     0.78931
      H   33    0.20935      0.00000     0.78809    0.00255     0.79065
 =======================================================================
   * Total *   -0.00000     23.99182    71.78920    0.21898    96.00000

 Normal termination of Gaussian 16 at Mon Aug 24 17:53:27 2020.
