 Gaussian 16, Revision A.03,

 ---------------------------------
 # opt=CalcAll B3LYP/6-31G* scf=qc
 ---------------------------------

 -------------------
 Title Card Required
 -------------------
 Symbolic Z-matrix:
 Charge =  0 Multiplicity = 1

 SCF Done:  E(RB3LYP) =  -292.407254894     a.u. after    7 cycles
 SCF Done:  E(RB3LYP) =  -292.413619829     a.u. after   13 cycles
 SCF Done:  E(RB3LYP) =  -292.415517395     a.u. after   11 cycles
 SCF Done:  E(RB3LYP) =  -292.415885080     a.u. after   11 cycles
 SCF Done:  E(RB3LYP) =  -292.416124635     a.u. after    9 cycles
 SCF Done:  E(RB3LYP) =  -292.416134978     a.u. after    5 cycles
 SCF Done:  E(RB3LYP) =  -292.416136092     a.u. after    2 cycles
 Optimization completed.
    -- Stationary point found.
 Normal termination of Gaussian 16 at Mon Aug 24 17:03:51 2020.

 ----------------------------------------------------------------------
 # freq B3LYP/6-31G* scf=qc volume NMR pop=NPA density=current Geom=All
 Check Guess=Read
 ----------------------------------------------------------------------

 Structure from the checkpoint file:  "base_4_conf212.chk"
 -------------------
 Title Card Required
 -------------------
 Charge =  0 Multiplicity = 1

 SCF Done:  E(RB3LYP) =  -292.416136092     a.u. after    1 cycles

      1  C    Isotropic =   174.0923   Anisotropy =    22.7790

      2  C    Isotropic =   142.0798   Anisotropy =    47.1684

      3  N    Isotropic =   200.5734   Anisotropy =    11.0414

      4  C    Isotropic =   142.0749   Anisotropy =    47.1675

      5  C    Isotropic =   174.0866   Anisotropy =    22.7790

      6  C    Isotropic =   142.0843   Anisotropy =    47.1596

      7  C    Isotropic =   174.0886   Anisotropy =    22.7811

      8  H    Isotropic =    31.3376   Anisotropy =     9.9662

      9  H    Isotropic =    31.0143   Anisotropy =     6.5980

     10  H    Isotropic =    31.0982   Anisotropy =     7.8359

     11  H    Isotropic =    30.0832   Anisotropy =     7.0740

     12  H    Isotropic =    29.6391   Anisotropy =     5.6446

     13  H    Isotropic =    29.6409   Anisotropy =     5.6406

     14  H    Isotropic =    30.0843   Anisotropy =     7.0711

     15  H    Isotropic =    31.0983   Anisotropy =     7.8380

     16  H    Isotropic =    31.3376   Anisotropy =     9.9654

     17  H    Isotropic =    31.0142   Anisotropy =     6.5968

     18  H    Isotropic =    29.6401   Anisotropy =     5.6422

     19  H    Isotropic =    30.0838   Anisotropy =     7.0740

     20  H    Isotropic =    31.0982   Anisotropy =     7.8368

     21  H    Isotropic =    31.3376   Anisotropy =     9.9665

     22  H    Isotropic =    31.0145   Anisotropy =     6.5966

  Exact polarizability:  77.326   0.000  77.325   0.000   0.000  64.628
 Approx polarizability:  97.941   0.000  97.942   0.000   0.000  92.491

                      1                      2                      3
                      A                      A                      A
 Frequencies --     88.9490                89.0697                91.5348
 Red. masses --      1.9646                 1.9659                 2.0028
 Frc consts  --      0.0092                 0.0092                 0.0099
 IR Inten    --      0.1950                 0.1952                 0.0133

                      4                      5                      6
                      A                      A                      A
 Frequencies --    193.0650               219.7842               220.1945
 Red. masses --      1.2778                 1.1952                 1.1937
 Frc consts  --      0.0281                 0.0340                 0.0341
 IR Inten    --      0.6476                 0.0346                 0.0350

                      7                      8                      9
                      A                      A                      A
 Frequencies --    303.5467               315.3645               315.6117
 Red. masses --      1.8011                 1.9962                 1.9967
 Frc consts  --      0.0978                 0.1170                 0.1172
 IR Inten    --      1.1577                 0.3256                 0.3230

                     10                     11                     12
                      A                      A                      A
 Frequencies --    437.9258               475.1693               475.3883
 Red. masses --      2.8353                 2.5132                 2.5142
 Frc consts  --      0.3204                 0.3343                 0.3348
 IR Inten    --      3.3481                 2.2704                 2.2712

                     13                     14                     15
                      A                      A                      A
 Frequencies --    753.0136               808.6752               808.7401
 Red. masses --      2.2401                 1.1536                 1.1537
 Frc consts  --      0.7484                 0.4445                 0.4446
 IR Inten    --     11.6154                 3.6198                 3.6224

                     16                     17                     18
                      A                      A                      A
 Frequencies --    819.2134               935.7849               935.8204
 Red. masses --      1.1890                 1.9301                 1.9304
 Frc consts  --      0.4702                 0.9958                 0.9961
 IR Inten    --      0.0485                 1.3183                 1.3123

                     19                     20                     21
                      A                      A                      A
 Frequencies --   1030.5893              1093.3150              1093.3303
 Red. masses --      2.5588                 2.5881                 2.5881
 Frc consts  --      1.6013                 1.8227                 1.8228
 IR Inten    --      4.8125                28.1698                28.1010

                     22                     23                     24
                      A                      A                      A
 Frequencies --   1102.0459              1113.8118              1113.8742
 Red. masses --      1.6511                 1.6687                 1.6685
 Frc consts  --      1.1815                 1.2197                 1.2197
 IR Inten    --      3.7667                 8.2974                 8.3369

                     25                     26                     27
                      A                      A                      A
 Frequencies --   1184.7760              1249.4867              1249.5235
 Red. masses --      1.7407                 2.2342                 2.2347
 Frc consts  --      1.4396                 2.0551                 2.0557
 IR Inten    --      9.2830                20.7549                20.7885

                     28                     29                     30
                      A                      A                      A
 Frequencies --   1336.4421              1344.6484              1344.6951
 Red. masses --      1.1074                 1.2107                 1.2105
 Frc consts  --      1.1653                 1.2897                 1.2897
 IR Inten    --      2.6413                24.7633                24.8288

                     31                     32                     33
                      A                      A                      A
 Frequencies --   1415.1208              1415.1676              1428.9120
 Red. masses --      1.2913                 1.2906                 1.2449
 Frc consts  --      1.5236                 1.5228                 1.4977
 IR Inten    --      9.0080                 8.8550                 0.1591

                     34                     35                     36
                      A                      A                      A
 Frequencies --   1443.5438              1443.6837              1445.6672
 Red. masses --      1.3022                 1.3019                 1.3916
 Frc consts  --      1.5987                 1.5988                 1.7136
 IR Inten    --     18.2471                18.2396                13.9917

                     37                     38                     39
                      A                      A                      A
 Frequencies --   1515.5405              1515.5877              1516.3153
 Red. masses --      1.0556                 1.0556                 1.0562
 Frc consts  --      1.4285                 1.4286                 1.4308
 IR Inten    --      1.6731                 1.6694                 1.1186

                     40                     41                     42
                      A                      A                      A
 Frequencies --   1522.7027              1530.0496              1530.0706
 Red. masses --      1.0465                 1.0429                 1.0430
 Frc consts  --      1.4297                 1.4385                 1.4387
 IR Inten    --      1.3237                 1.2888                 1.2965

                     43                     44                     45
                      A                      A                      A
 Frequencies --   1541.3992              1541.4598              1546.6684
 Red. masses --      1.0755                 1.0754                 1.0860
 Frc consts  --      1.5055                 1.5056                 1.5307
 IR Inten    --      2.8416                 2.8352                 7.1335

                     46                     47                     48
                      A                      A                      A
 Frequencies --   2923.6158              2923.6914              2935.8230
 Red. masses --      1.0746                 1.0746                 1.0742
 Frc consts  --      5.4120                 5.4123                 5.4550
 IR Inten    --     18.5552                18.5776               203.7549

                     49                     50                     51
                      A                      A                      A
 Frequencies --   3051.2487              3051.2785              3051.5711
 Red. masses --      1.0361                 1.0361                 1.0361
 Frc consts  --      5.6832                 5.6833                 5.6848
 IR Inten    --     28.3582                28.3176                 8.3534

                     52                     53                     54
                      A                      A                      A
 Frequencies --   3087.2385              3087.3630              3089.9047
 Red. masses --      1.0889                 1.0889                 1.0844
 Frc consts  --      6.1147                 6.1151                 6.0999
 IR Inten    --     21.9557                21.8596                 0.1864

                     55                     56                     57
                      A                      A                      A
 Frequencies --   3113.8346              3117.7071              3117.7320
 Red. masses --      1.1014                 1.0993                 1.0993
 Frc consts  --      6.2920                 6.2957                 6.2957
 IR Inten    --      3.4207                64.1714                64.3188

                     58                     59                     60
                      A                      A                      A
 Frequencies --   3129.1840              3129.9325              3129.9601
 Red. masses --      1.1030                 1.1026                 1.1026
 Frc consts  --      6.3632                 6.3641                 6.3642
 IR Inten    --     60.2766                32.4974                32.6769

 - Thermochemistry -
 -------------------
 Temperature   298.150 Kelvin.  Pressure   1.00000 Atm.
 Atom     1 has atomic number  6 and mass  12.00000

 Molecular mass:   101.12045 amu.
 Principal axes and moments of inertia in atomic units:
                           1         2         3
     Eigenvalues --   787.50034 787.562741370.34339
           X            0.99991   0.01374  -0.00000
           Y           -0.01374   0.99991   0.00000
           Z            0.00000  -0.00000   1.00000
 This molecule is an asymmetric top.
 Rotational symmetry number  1.
 Warning -- assumption of classical behavior for rotation
           may cause significant error
 Rotational temperatures (Kelvin)      0.10999     0.10998     0.06321
 Rotational constants (GHZ):           2.29173     2.29155     1.31700
 Zero-point vibrational energy     543316.1 (Joules/Mol)
                                  129.85567 (Kcal/Mol)
 Warning -- explicit consideration of  12 degrees of freedom as
           vibrations may cause significant error
 Vibrational temperatures:    127.98   128.15   131.70   277.78   316.22
          (Kelvin)            316.81   436.74   453.74   454.09   630.08
                              683.66   683.98  1083.42  1163.50  1163.60
                             1178.67  1346.39  1346.44  1482.79  1573.04
                             1573.06  1585.60  1602.53  1602.62  1704.63
                             1797.73  1797.79  1922.84  1934.65  1934.72
                             2036.04  2036.11  2055.89  2076.94  2077.14
                             2079.99  2180.52  2180.59  2181.64  2190.83
                             2201.40  2201.43  2217.73  2217.82  2225.31
                             4206.43  4206.54  4223.99  4390.07  4390.11
                             4390.53  4441.85  4442.03  4445.68  4480.11
                             4485.69  4485.72  4502.20  4503.27  4503.31

 Zero-point correction=                           0.206938 (Hartree/Particle)
 Thermal correction to Energy=                    0.216364
 Thermal correction to Enthalpy=                  0.217308
 Thermal correction to Gibbs Free Energy=         0.172989
 Sum of electronic and zero-point Energies=           -292.209198
 Sum of electronic and thermal Energies=              -292.199772
 Sum of electronic and thermal Enthalpies=            -292.198828
 Sum of electronic and thermal Free Energies=         -292.243147

                     E (Thermal)             CV                S
                      KCal/Mol        Cal/Mol-Kelvin    Cal/Mol-Kelvin
 Total                  135.770             33.647             93.276
 Electronic               0.000              0.000              0.000
 Translational            0.889              2.981             39.751
 Rotational               0.889              2.981             28.232
 Vibrational            133.993             27.686             25.293
 Vibration     1          0.602              1.957              3.683
 Vibration     2          0.602              1.957              3.680
 Vibration     3          0.602              1.955              3.627
 Vibration     4          0.635              1.849              2.198
 Vibration     5          0.647              1.811              1.961
 Vibration     6          0.647              1.810              1.957
 Vibration     7          0.695              1.667              1.397
 Vibration     8          0.703              1.644              1.334
 Vibration     9          0.703              1.644              1.333
 Vibration    10          0.798              1.388              0.833
 Vibration    11          0.832              1.305              0.723
 Vibration    12          0.832              1.305              0.723

                           ! Non-Optimized Parameters !
 Normal termination of Gaussian 16 at Mon Aug 24 17:06:34 2020.
 Gaussian 16:  ES64L-G16RevA.03 25-Dec-2016

 ----------------------------------------------------------------------
 # TD(NStates=10, Root=1) B3LYP/6-31G* scf=qc volume pop=NPA density=cu
 rrent Geom=AllCheck Guess=Read
 ----------------------------------------------------------------------

 Structure from the checkpoint file:  "base_4_conf213.chk"
 -------------------
 Title Card Required
 -------------------
 Charge =  0 Multiplicity = 1

                         Standard orientation:
 ---------------------------------------------------------------------
 Center     Atomic      Atomic             Coordinates (Angstroms)
 Number     Number       Type             X           Y           Z
 ---------------------------------------------------------------------
      1          6           0       -1.879873    1.584538   -0.439338
      2          6           0       -0.685211    1.226481    0.447052
      3          7           0       -0.000003    0.000022    0.020076
      4          6           0        1.404713   -0.019710    0.447182
      5          6           0        2.312314    0.835531   -0.439385
      6          6           0       -0.719521   -1.206581    0.447119
      7          6           0       -0.432434   -2.420265   -0.439310
      8          1           0       -2.336812    2.522679   -0.102730
      9          1           0       -2.658473    0.814045   -0.417358
     10          1           0       -1.557441    1.705423   -1.478641
     11          1           0       -1.003607    1.160897    1.506641
     12          1           0        0.035261    2.049320    0.398411
     13          1           0        1.757084   -1.055095    0.398965
     14          1           0        1.507001    0.289235    1.506657
     15          1           0        2.256702    0.494975   -1.478447
     16          1           0        3.353048    0.762942   -0.102022
     17          1           0        2.033858    1.894963   -0.418509
     18          1           0       -1.792354   -0.994026    0.398546
     19          1           0       -0.503414   -1.449568    1.506684
     20          1           0       -0.699060   -2.201745   -1.478482
     21          1           0       -1.015937   -3.285185   -0.102206
     22          1           0        0.624234   -2.708979   -0.417963
 ---------------------------------------------------------------------

 SCF Done:  E(RB3LYP) =  -292.416136092     a.u. after    1 cycles

 Excitation energies and oscillator strengths:

 Excited State   1:      Singlet-A      7.0775 eV  175.18 nm  f=0.0126  <S**2>=0.000
      29 -> 30         0.70386
 This state for optimization and/or second-order correction.
 Total Energy, E(TD-HF/TD-DFT) =  -292.156043466
 Copying the excited state density for this state as the 1-particle RhoCI density.

 Excited State   2:      Singlet-A      7.5159 eV  164.96 nm  f=0.0275  <S**2>=0.000
      29 -> 31         0.70342

 Excited State   3:      Singlet-A      7.5161 eV  164.96 nm  f=0.0275  <S**2>=0.000
      29 -> 32         0.70341

 Excited State   4:      Singlet-A      8.1035 eV  153.00 nm  f=0.0940  <S**2>=0.000
      29 -> 33         0.70174

 Excited State   5:      Singlet-A      8.5695 eV  144.68 nm  f=0.0576  <S**2>=0.000
      29 -> 34         0.68975

 Excited State   6:      Singlet-A      8.5698 eV  144.68 nm  f=0.0576  <S**2>=0.000
      29 -> 35         0.68972

 Excited State   7:      Singlet-A      8.9278 eV  138.87 nm  f=0.0308  <S**2>=0.000
      29 -> 36         0.69181
      29 -> 42         0.11225

 Excited State   8:      Singlet-A      9.2424 eV  134.15 nm  f=0.0237  <S**2>=0.000
      29 -> 37         0.69591

 Excited State   9:      Singlet-A      9.2429 eV  134.14 nm  f=0.0237  <S**2>=0.000
      29 -> 38         0.69594

 Excited State  10:      Singlet-A      9.5178 eV  130.27 nm  f=0.0027  <S**2>=0.000
      29 -> 39         0.69896

 The electronic state is 1-A.
 Alpha  occ. eigenvalues --  -14.31322 -10.20091 -10.20091 -10.20090 -10.16943
 Alpha  occ. eigenvalues --  -10.16943 -10.16943  -0.90992  -0.75288  -0.75288
 Alpha  occ. eigenvalues --   -0.69976  -0.61619  -0.61618  -0.55681  -0.47065
 Alpha  occ. eigenvalues --   -0.47064  -0.44615  -0.42748  -0.42748  -0.39222
 Alpha  occ. eigenvalues --   -0.37625  -0.36848  -0.36848  -0.34705  -0.34705
 Alpha  occ. eigenvalues --   -0.34591  -0.32130  -0.32130  -0.20409
 Alpha virt. eigenvalues --    0.09208   0.10912   0.10913   0.13030   0.14881
 Alpha virt. eigenvalues --    0.14883   0.16114   0.17138   0.17140   0.18083
 Alpha virt. eigenvalues --    0.18085   0.19361   0.19894   0.22216   0.22349

 Mulliken charges:
               1
     1  C   -0.433421
     2  C   -0.086683
     3  N   -0.177178
     4  C   -0.086713
     5  C   -0.433417
     6  C   -0.086679
     7  C   -0.433429
     8  H    0.126856
     9  H    0.114474
    10  H    0.132903
    11  H    0.138622
    12  H    0.066286
    13  H    0.066328
    14  H    0.138609
    15  H    0.132863
    16  H    0.126901
    17  H    0.114511
    18  H    0.066278
    19  H    0.138628
    20  H    0.132877
    21  H    0.126884
    22  H    0.114499
 Sum of Mulliken charges =  -0.00000

 Dipole moment (field-independent basis, Debye):
    X=              0.0010    Y=             -0.0002    Z=              0.7731  Tot=              0.7731
 Quadrupole moment (field-independent basis, Debye-Ang):
   XX=            -52.6323   YY=            -52.6318   ZZ=            -48.3270
   XY=              0.0007   XZ=              0.0001   YZ=              0.0001

 Summary of Natural Population Analysis:

                                       Natural Population
                Natural  -----------------------------------------------
    Atom  No    Charge         Core      Valence    Rydberg      Total
 -----------------------------------------------------------------------
      C    1   -0.70514      1.99944     4.69211    0.01359     6.70514
      C    2   -0.32019      1.99931     4.30299    0.01789     6.32019
      N    3   -0.03952      1.99928     5.03017    0.01007     7.03952
      C    4   -0.32020      1.99931     4.30300    0.01789     6.32020
      C    5   -0.70513      1.99944     4.69210    0.01359     6.70513
      C    6   -0.32020      1.99931     4.30300    0.01789     6.32020
      C    7   -0.70513      1.99944     4.69210    0.01359     6.70513
      H    8    0.21827      0.00000     0.77079    0.01094     0.78173
      H    9    0.19868      0.00000     0.78084    0.02048     0.80132
      H   10    0.21849      0.00000     0.77184    0.00968     0.78151
      H   11    0.23545      0.00000     0.73964    0.02491     0.76455
      H   12    0.16759      0.00000     0.78815    0.04425     0.83241
      H   13    0.16763      0.00000     0.78813    0.04425     0.83237
      H   14    0.23544      0.00000     0.73964    0.02491     0.76456
      H   15    0.21845      0.00000     0.77186    0.00969     0.78155
      H   16    0.21831      0.00000     0.77077    0.01092     0.78169
      H   17    0.19871      0.00000     0.78082    0.02047     0.80129
      H   18    0.16758      0.00000     0.78816    0.04426     0.83242
      H   19    0.23547      0.00000     0.73963    0.02490     0.76453
      H   20    0.21846      0.00000     0.77185    0.00969     0.78154
      H   21    0.21829      0.00000     0.77078    0.01093     0.78171
      H   22    0.19870      0.00000     0.78083    0.02047     0.80130
 =======================================================================
   * Total *   -0.00000     13.99553    43.56919    0.43528    58.00000

 Normal termination of Gaussian 16 at Mon Aug 24 17:10:46 2020.
