 Gaussian 16, Revision A.03,

 ---------------------------------
 # opt=CalcAll B3LYP/6-31G* scf=qc
 ---------------------------------

 -------------------
 Title Card Required
 -------------------
 Symbolic Z-matrix:
 Charge =  0 Multiplicity = 1

 SCF Done:  E(RB3LYP) =  -462.086202651     a.u. after    7 cycles
 SCF Done:  E(RB3LYP) =  -462.092132139     a.u. after    9 cycles
 SCF Done:  E(RB3LYP) =  -462.093762789     a.u. after   11 cycles
 SCF Done:  E(RB3LYP) =  -462.094232206     a.u. after   13 cycles
 SCF Done:  E(RB3LYP) =  -462.094299093     a.u. after    5 cycles
 SCF Done:  E(RB3LYP) =  -462.094332896     a.u. after    4 cycles
 SCF Done:  E(RB3LYP) =  -462.094333176     a.u. after    2 cycles
 SCF Done:  E(RB3LYP) =  -462.094333238     a.u. after    2 cycles
 Optimization completed.
    -- Stationary point found.
 Normal termination of Gaussian 16 at Mon Aug 24 16:39:40 2020.

 ----------------------------------------------------------------------
 # freq B3LYP/6-31G* scf=qc volume NMR pop=NPA density=current Geom=All
 Check Guess=Read
 ----------------------------------------------------------------------

 Structure from the checkpoint file:  "base_7_conf12.chk"
 -------------------
 Title Card Required
 -------------------
 Charge =  0 Multiplicity = 1

 SCF Done:  E(RB3LYP) =  -462.094333238     a.u. after    1 cycles

      1  C    Isotropic =    40.8002   Anisotropy =   116.5332

      2  N    Isotropic =    37.2931   Anisotropy =   307.7945

      3  C    Isotropic =   144.8573   Anisotropy =    25.8677

      4  C    Isotropic =   165.5589   Anisotropy =     7.1256

      5  C    Isotropic =   140.9433   Anisotropy =    35.3310

      6  N    Isotropic =   162.2058   Anisotropy =    65.4933

      7  C    Isotropic =   136.0742   Anisotropy =    39.8407

      8  C    Isotropic =   159.7293   Anisotropy =     8.5394

      9  C    Isotropic =   158.7171   Anisotropy =     3.2491

     10  C    Isotropic =   162.0348   Anisotropy =     7.4369

     11  C    Isotropic =   152.0679   Anisotropy =    20.5107

     12  H    Isotropic =    28.8256   Anisotropy =     7.4362

     13  H    Isotropic =    28.9617   Anisotropy =     7.3371

     14  H    Isotropic =    30.3515   Anisotropy =     7.6214

     15  H    Isotropic =    30.8180   Anisotropy =     8.6660

     16  H    Isotropic =    29.5110   Anisotropy =     6.1294

     17  H    Isotropic =    28.7527   Anisotropy =     7.6735

     18  H    Isotropic =    28.6141   Anisotropy =     5.5069

     19  H    Isotropic =    29.6919   Anisotropy =     5.5128

     20  H    Isotropic =    30.6965   Anisotropy =     8.9493

     21  H    Isotropic =    30.6392   Anisotropy =     5.9142

     22  H    Isotropic =    30.7524   Anisotropy =     7.5020

     23  H    Isotropic =    30.3832   Anisotropy =     9.1290

     24  H    Isotropic =    30.4436   Anisotropy =     9.2739

     25  H    Isotropic =    30.6121   Anisotropy =     6.4523

     26  H    Isotropic =    29.8601   Anisotropy =     4.2804

     27  H    Isotropic =    29.9510   Anisotropy =     7.1215

  Exact polarizability: 124.584   4.039 104.095  -5.389  -0.865  82.277
 Approx polarizability: 157.064  12.580 153.455 -12.273  -4.460 128.459

                      1                      2                      3
                      A                      A                      A
 Frequencies --     60.1566                76.2617               156.9531
 Red. masses --      2.6842                 3.1316                 2.5309
 Frc consts  --      0.0057                 0.0107                 0.0367
 IR Inten    --      0.0223                 1.3741                 0.9475

                      4                      5                      6
                      A                      A                      A
 Frequencies --    230.7777               238.6565               284.5196
 Red. masses --      2.7865                 2.1757                 2.0904
 Frc consts  --      0.0874                 0.0730                 0.0997
 IR Inten    --      1.2818                 2.6549                 1.0915

                      7                      8                      9
                      A                      A                      A
 Frequencies --    357.6944               359.9054               375.0371
 Red. masses --      2.7742                 2.5772                 2.6163
 Frc consts  --      0.2091                 0.1967                 0.2168
 IR Inten    --      1.9876                 0.1813                 4.8716

                     10                     11                     12
                      A                      A                      A
 Frequencies --    414.7389               498.5511               500.1068
 Red. masses --      2.2146                 1.5401                 2.7120
 Frc consts  --      0.2244                 0.2255                 0.3996
 IR Inten    --      1.7684                 1.2795                 2.1239

                     13                     14                     15
                      A                      A                      A
 Frequencies --    524.0401               616.3469               689.4452
 Red. masses --      3.3091                 2.4424                 3.8014
 Frc consts  --      0.5354                 0.5467                 1.0646
 IR Inten    --      1.1877                 4.0263                 0.7426

                     16                     17                     18
                      A                      A                      A
 Frequencies --    712.3169               803.0673               846.6731
 Red. masses --      3.1282                 2.8827                 1.8777
 Frc consts  --      0.9352                 1.0954                 0.7931
 IR Inten    --      6.1927                 1.1427                 1.3433

                     19                     20                     21
                      A                      A                      A
 Frequencies --    857.2520               872.9966               891.6935
 Red. masses --      1.4780                 2.2995                 1.8265
 Frc consts  --      0.6399                 1.0326                 0.8557
 IR Inten    --      3.2715                 0.8665                 0.9813

                     22                     23                     24
                      A                      A                      A
 Frequencies --    906.3293               930.0541               970.7657
 Red. masses --      1.8285                 1.8907                 2.4106
 Frc consts  --      0.8849                 0.9636                 1.3384
 IR Inten    --      0.6748                 6.6686                14.1044

                     25                     26                     27
                      A                      A                      A
 Frequencies --    997.4084              1011.9892              1022.6970
 Red. masses --      2.2467                 1.7789                 2.1836
 Frc consts  --      1.3169                 1.0734                 1.3456
 IR Inten    --      6.1747                 8.1041                 1.2186

                     28                     29                     30
                      A                      A                      A
 Frequencies --   1077.5107              1107.8023              1112.8048
 Red. masses --      2.1734                 2.0066                 2.1038
 Frc consts  --      1.4867                 1.4509                 1.5349
 IR Inten    --      9.9801                 0.6703                 3.7854

                     31                     32                     33
                      A                      A                      A
 Frequencies --   1133.1811              1143.9687              1182.6873
 Red. masses --      1.8959                 2.2423                 1.5422
 Frc consts  --      1.4344                 1.7289                 1.2710
 IR Inten    --     15.0195                21.3966                 1.7587

                     34                     35                     36
                      A                      A                      A
 Frequencies --   1211.2744              1227.4656              1251.2556
 Red. masses --      1.4514                 1.4048                 1.5821
 Frc consts  --      1.2546                 1.2470                 1.4594
 IR Inten    --     22.4054                17.2770                21.2309

                     37                     38                     39
                      A                      A                      A
 Frequencies --   1263.4414              1274.0289              1299.5204
 Red. masses --      1.4113                 1.5512                 1.2450
 Frc consts  --      1.3273                 1.4835                 1.2388
 IR Inten    --      7.0266                24.1436                 9.2483

                     40                     41                     42
                      A                      A                      A
 Frequencies --   1321.6178              1329.9338              1361.4848
 Red. masses --      1.2535                 1.3045                 1.3705
 Frc consts  --      1.2900                 1.3595                 1.4968
 IR Inten    --      1.0726                 6.6852                50.0937

                     43                     44                     45
                      A                      A                      A
 Frequencies --   1373.0662              1386.3527              1390.2198
 Red. masses --      1.4540                 1.3494                 1.3993
 Frc consts  --      1.6151                 1.5280                 1.5935
 IR Inten    --      6.2805                 3.8841                 2.8792

                     46                     47                     48
                      A                      A                      A
 Frequencies --   1403.4032              1407.4401              1413.5936
 Red. masses --      1.4527                 1.3647                 1.4721
 Frc consts  --      1.6858                 1.5927                 1.7331
 IR Inten    --     16.4330                15.9639                26.3555

                     49                     50                     51
                      A                      A                      A
 Frequencies --   1415.5594              1462.2951              1505.3097
 Red. masses --      1.5905                 1.6748                 1.0918
 Frc consts  --      1.8778                 2.1101                 1.4576
 IR Inten    --     36.0096                30.9684                 2.1647

                     52                     53                     54
                      A                      A                      A
 Frequencies --   1507.9003              1511.9119              1515.0606
 Red. masses --      1.1130                 1.0977                 1.0861
 Frc consts  --      1.4910                 1.4783                 1.4688
 IR Inten    --     15.2874                 6.1296                 3.8071

                     55                     56                     57
                      A                      A                      A
 Frequencies --   1521.8378              1526.3377              1532.8467
 Red. masses --      1.1014                 1.1119                 1.0894
 Frc consts  --      1.5029                 1.5263                 1.5081
 IR Inten    --      2.4200                 6.7894                 6.1239

                     58                     59                     60
                      A                      A                      A
 Frequencies --   1548.9496              1706.0501              2979.9360
 Red. masses --      1.1289                 7.1428                 1.0720
 Frc consts  --      1.5958                12.2490                 5.6089
 IR Inten    --      5.9466               249.0079                40.7654

                     61                     62                     63
                      A                      A                      A
 Frequencies --   3001.9914              3014.7627              3023.5632
 Red. masses --      1.0720                 1.0672                 1.0705
 Frc consts  --      5.6921                 5.7149                 5.7659
 IR Inten    --     68.6996                18.6789                15.7826

                     64                     65                     66
                      A                      A                      A
 Frequencies --   3030.4927              3035.3924              3039.2346
 Red. masses --      1.0620                 1.0659                 1.0666
 Frc consts  --      5.7462                 5.7861                 5.8049
 IR Inten    --     24.2508                16.4950                41.1334

                     67                     68                     69
                      A                      A                      A
 Frequencies --   3045.8200              3057.8522              3063.6688
 Red. masses --      1.0690                 1.0882                 1.0929
 Frc consts  --      5.8430                 5.9950                 6.0441
 IR Inten    --      5.7393                71.4720                64.9239

                     70                     71                     72
                      A                      A                      A
 Frequencies --   3066.5744              3071.3944              3079.3404
 Red. masses --      1.0852                 1.1034                 1.1031
 Frc consts  --      6.0128                 6.1327                 6.1629
 IR Inten    --     48.3997                27.4495                86.4581

                     73                     74                     75
                      A                      A                      A
 Frequencies --   3094.7466              3095.4106              3134.3513
 Red. masses --      1.1059                 1.0946                 1.0928
 Frc consts  --      6.2402                 6.1792                 6.3255
 IR Inten    --     50.0664                41.1840                10.4916

 - Thermochemistry -
 -------------------
 Temperature   298.150 Kelvin.  Pressure   1.00000 Atm.
 Atom     1 has atomic number  6 and mass  12.00000

 Molecular mass:   152.13135 amu.
 Principal axes and moments of inertia in atomic units:
                           1         2         3
     Eigenvalues --   884.793642052.637692658.69324
           X            0.99992  -0.01277  -0.00251
           Y            0.01277   0.99992   0.00156
           Z            0.00249  -0.00159   1.00000
 This molecule is an asymmetric top.
 Rotational symmetry number  1.
 Warning -- assumption of classical behavior for rotation
           may cause significant error
 Rotational temperatures (Kelvin)      0.09789     0.04220     0.03258
 Rotational constants (GHZ):           2.03973     0.87923     0.67881
 Zero-point vibrational energy     648777.2 (Joules/Mol)
                                  155.06147 (Kcal/Mol)
 Warning -- explicit consideration of  14 degrees of freedom as
           vibrations may cause significant error
 Vibrational temperatures:     86.55   109.72   225.82   332.04   343.37
          (Kelvin)            409.36   514.64   517.82   539.59   596.72
                              717.30   719.54   753.98   886.79   991.96
                             1024.87  1155.43  1218.17  1233.39  1256.05
                             1282.95  1304.01  1338.14  1396.72  1435.05
                             1456.03  1471.43  1550.30  1593.88  1601.08
                             1630.39  1645.92  1701.62  1742.75  1766.05
                             1800.28  1817.81  1833.04  1869.72  1901.51
                             1913.48  1958.87  1975.54  1994.65  2000.22
                             2019.18  2024.99  2033.85  2036.67  2103.92
                             2165.80  2169.53  2175.30  2179.83  2189.59
                             2196.06  2205.42  2228.59  2454.63  4287.46
                             4319.20  4337.57  4350.23  4360.20  4367.25
                             4372.78  4382.26  4399.57  4407.94  4412.12
                             4419.05  4430.48  4452.65  4453.61  4509.63

 Zero-point correction=                           0.247106 (Hartree/Particle)
 Thermal correction to Energy=                    0.256900
 Thermal correction to Enthalpy=                  0.257844
 Thermal correction to Gibbs Free Energy=         0.211929
 Sum of electronic and zero-point Energies=           -461.847227
 Sum of electronic and thermal Energies=              -461.837434
 Sum of electronic and thermal Enthalpies=            -461.836489
 Sum of electronic and thermal Free Energies=         -461.882404

                     E (Thermal)             CV                S
                      KCal/Mol        Cal/Mol-Kelvin    Cal/Mol-Kelvin
 Total                  161.207             39.203             96.636
 Electronic               0.000              0.000              0.000
 Translational            0.889              2.981             40.969
 Rotational               0.889              2.981             29.958
 Vibrational            159.430             33.241             25.709
 Vibration     1          0.597              1.973              4.452
 Vibration     2          0.599              1.965              3.985
 Vibration     3          0.621              1.895              2.586
 Vibration     4          0.652              1.794              1.873
 Vibration     5          0.657              1.781              1.813
 Vibration     6          0.683              1.702              1.506
 Vibration     7          0.733              1.559              1.132
 Vibration     8          0.734              1.555              1.123
 Vibration     9          0.746              1.523              1.059
 Vibration    10          0.778              1.438              0.910
 Vibration    11          0.854              1.253              0.662
 Vibration    12          0.856              1.250              0.658
 Vibration    13          0.879              1.197              0.601
 Vibration    14          0.976              0.997              0.422

 Optimization completed.
    -- Stationary point found.
 Normal termination of Gaussian 16 at Mon Aug 24 16:44:47 2020.
 Gaussian 16:  ES64L-G16RevA.03 25-Dec-2016

 ----------------------------------------------------------------------
 # TD(NStates=10, Root=1) B3LYP/6-31G* scf=qc volume pop=NPA density=cu
 rrent Geom=AllCheck Guess=Read
 ----------------------------------------------------------------------

 Structure from the checkpoint file:  "base_7_conf13.chk"
 -------------------
 Title Card Required
 -------------------
 Charge =  0 Multiplicity = 1

                         Standard orientation:
 ---------------------------------------------------------------------
 Center     Atomic      Atomic             Coordinates (Angstroms)
 Number     Number       Type             X           Y           Z
 ---------------------------------------------------------------------
      1          6           0        0.355096    0.726431    0.298329
      2          7           0        1.336898    1.478637   -0.062911
      3          6           0        2.585579    0.855512   -0.484188
      4          6           0        2.789283   -0.556787    0.071827
      5          6           0        1.525504   -1.378231   -0.171622
      6          7           0        0.357438   -0.662550    0.341984
      7          6           0       -0.855567   -1.443394    0.579743
      8          6           0       -1.962564   -1.292105   -0.481412
      9          6           0       -2.825752   -0.035947   -0.300994
     10          6           0       -2.062715    1.294905   -0.348965
     11          6           0       -0.930009    1.432282    0.692006
     12          1           0        3.413238    1.506553   -0.174484
     13          1           0        2.617187    0.832164   -1.585206
     14          1           0        2.977946   -0.503170    1.151287
     15          1           0        3.653068   -1.049068   -0.390862
     16          1           0        1.590888   -2.345139    0.341770
     17          1           0        1.415308   -1.591978   -1.248208
     18          1           0       -1.267830   -1.206951    1.571019
     19          1           0       -0.540537   -2.490668    0.625448
     20          1           0       -2.614753   -2.174596   -0.426634
     21          1           0       -1.502236   -1.303911   -1.478976
     22          1           0       -3.343590   -0.109562    0.667600
     23          1           0       -3.612833   -0.027062   -1.066597
     24          1           0       -2.780874    2.108978   -0.186819
     25          1           0       -1.639161    1.453736   -1.349979
     26          1           0       -1.283789    1.087966    1.674243
     27          1           0       -0.655512    2.484098    0.794546
 ---------------------------------------------------------------------

 SCF Done:  E(RB3LYP) =  -462.094333238     a.u. after    1 cycles

 Excitation energies and oscillator strengths:

 Excited State   1:      Singlet-A      5.7019 eV  217.44 nm  f=0.0154  <S**2>=0.000
      41 -> 43         0.64848
      42 -> 43        -0.26949
 This state for optimization and/or second-order correction.
 Total Energy, E(TD-HF/TD-DFT) =  -461.884791948
 Copying the excited state density for this state as the 1-particle RhoCI density.

 Excited State   2:      Singlet-A      6.0859 eV  203.72 nm  f=0.1165  <S**2>=0.000
      41 -> 43         0.26615
      42 -> 43         0.63170

 Excited State   3:      Singlet-A      6.7362 eV  184.06 nm  f=0.0596  <S**2>=0.000
      42 -> 44         0.68281
      42 -> 45         0.11744

 Excited State   4:      Singlet-A      7.1489 eV  173.43 nm  f=0.0016  <S**2>=0.000
      42 -> 44        -0.12197
      42 -> 45         0.68803

 Excited State   5:      Singlet-A      7.4390 eV  166.67 nm  f=0.0013  <S**2>=0.000
      42 -> 46         0.70000

 Excited State   6:      Singlet-A      7.4985 eV  165.35 nm  f=0.0112  <S**2>=0.000
      41 -> 44         0.68530
      41 -> 45         0.13053

 Excited State   7:      Singlet-A      7.6907 eV  161.21 nm  f=0.0121  <S**2>=0.000
      42 -> 47         0.68697

 Excited State   8:      Singlet-A      7.8919 eV  157.10 nm  f=0.0019  <S**2>=0.000
      40 -> 43         0.10519
      41 -> 44        -0.12889
      41 -> 45         0.66670

 Excited State   9:      Singlet-A      8.0294 eV  154.41 nm  f=0.0096  <S**2>=0.000
      40 -> 43        -0.19588
      42 -> 48         0.65997

 Excited State  10:      Singlet-A      8.1909 eV  151.37 nm  f=0.0179  <S**2>=0.000
      40 -> 43         0.15430
      41 -> 46         0.67808

 The electronic state is 1-A.
 Alpha  occ. eigenvalues --  -14.34429 -14.27757 -10.23566 -10.21985 -10.21719
 Alpha  occ. eigenvalues --  -10.19134 -10.18562 -10.18253 -10.18047 -10.17952
 Alpha  occ. eigenvalues --  -10.17664  -0.95546  -0.86477  -0.80792  -0.77208
 Alpha  occ. eigenvalues --   -0.74911  -0.68282  -0.65864  -0.64333  -0.58949
 Alpha  occ. eigenvalues --   -0.56815  -0.51023  -0.50143  -0.47636  -0.46285
 Alpha  occ. eigenvalues --   -0.44191  -0.43394  -0.42782  -0.41295  -0.40864
 Alpha  occ. eigenvalues --   -0.39291  -0.38501  -0.36820  -0.35733  -0.35594
 Alpha  occ. eigenvalues --   -0.33208  -0.32788  -0.32141  -0.31611  -0.28556
 Alpha  occ. eigenvalues --   -0.22069  -0.19700
 Alpha virt. eigenvalues --    0.04229   0.08281   0.09846   0.10907   0.11991
 Alpha virt. eigenvalues --    0.13053   0.14059   0.14581   0.15866   0.16311
 Alpha virt. eigenvalues --    0.17052   0.17519   0.17824   0.18816   0.19380

 Mulliken charges:
               1
     1  C    0.454646
     2  N   -0.424182
     3  C   -0.123187
     4  C   -0.286950
     5  C   -0.115265
     6  N   -0.414830
     7  C   -0.142772
     8  C   -0.256138
     9  C   -0.258709
    10  C   -0.231540
    11  C   -0.338934
    12  H    0.155321
    13  H    0.110536
    14  H    0.155791
    15  H    0.151748
    16  H    0.145781
    17  H    0.107909
    18  H    0.145028
    19  H    0.141208
    20  H    0.127294
    21  H    0.138480
    22  H    0.123799
    23  H    0.129677
    24  H    0.108261
    25  H    0.129846
    26  H    0.124691
    27  H    0.142489
 Sum of Mulliken charges =  -0.00000

 Dipole moment (field-independent basis, Debye):
    X=              0.7509    Y=             -1.9094    Z=              0.1847  Tot=              2.0600
 Quadrupole moment (field-independent basis, Debye-Ang):
   XX=            -64.0728   YY=            -67.7628   ZZ=            -70.1793
   XY=             -0.7135   XZ=             -0.4289   YZ=             -0.3192

 Summary of Natural Population Analysis:

                                       Natural Population
                Natural  -----------------------------------------------
    Atom  No    Charge         Core      Valence    Rydberg      Total
 -----------------------------------------------------------------------
      C    1    0.21532      1.99917     3.75331    0.03219     5.78468
      N    2   -0.27525      1.99889     5.25985    0.01652     7.27525
      C    3   -0.29718      1.99928     4.28080    0.01710     6.29718
      C    4   -0.47269      1.99927     4.46188    0.01154     6.47269
      C    5   -0.24648      1.99933     4.23196    0.01520     6.24648
      N    6   -0.46240      1.99932     5.44869    0.01439     7.46240
      C    7   -0.25064      1.99931     4.23411    0.01722     6.25064
      C    8   -0.47474      1.99931     4.46320    0.01223     6.47474
      C    9   -0.45977      1.99932     4.44837    0.01209     6.45977
      C   10   -0.45865      1.99931     4.44702    0.01232     6.45865
      C   11   -0.48671      1.99927     4.47265    0.01479     6.48671
      H   12    0.24990      0.00000     0.74855    0.00155     0.75010
      H   13    0.18713      0.00000     0.79940    0.01347     0.81287
      H   14    0.24040      0.00000     0.75523    0.00437     0.75960
      H   15    0.25452      0.00000     0.74225    0.00323     0.74548
      H   16    0.23886      0.00000     0.75985    0.00129     0.76114
      H   17    0.18864      0.00000     0.79890    0.01246     0.81136
      H   18    0.22543      0.00000     0.77240    0.00217     0.77457
      H   19    0.23855      0.00000     0.76027    0.00118     0.76145
      H   20    0.23577      0.00000     0.76278    0.00145     0.76423
      H   21    0.23199      0.00000     0.76583    0.00218     0.76801
      H   22    0.22088      0.00000     0.77686    0.00225     0.77912
      H   23    0.23790      0.00000     0.76075    0.00135     0.76210
      H   24    0.22213      0.00000     0.77248    0.00539     0.77787
      H   25    0.22975      0.00000     0.76746    0.00278     0.77025
      H   26    0.21865      0.00000     0.77752    0.00383     0.78135
      H   27    0.24870      0.00000     0.74912    0.00217     0.75130
 =======================================================================
   * Total *   -0.00000     21.99180    61.77149    0.23671    84.00000

 Normal termination of Gaussian 16 at Mon Aug 24 16:51:02 2020.
