 Gaussian 16, Revision A.03,

 ---------------------------------
 # opt=CalcAll B3LYP/6-31G* scf=qc
 ---------------------------------

 -------------------
 Title Card Required
 -------------------
 Symbolic Z-matrix:
 Charge =  0 Multiplicity = 1

 SCF Done:  E(RB3LYP) =  -292.406106541     a.u. after    7 cycles
 SCF Done:  E(RB3LYP) =  -292.413458468     a.u. after   13 cycles
 SCF Done:  E(RB3LYP) =  -292.414826607     a.u. after    9 cycles
 SCF Done:  E(RB3LYP) =  -292.415017322     a.u. after    7 cycles
 SCF Done:  E(RB3LYP) =  -292.415024120     a.u. after    3 cycles
 SCF Done:  E(RB3LYP) =  -292.415024220     a.u. after    2 cycles
 Optimization completed.
    -- Stationary point found.
 Normal termination of Gaussian 16 at Mon Aug 24 16:42:08 2020.

 ----------------------------------------------------------------------
 # freq B3LYP/6-31G* scf=qc volume NMR pop=NPA density=current Geom=All
 Check Guess=Read
 ----------------------------------------------------------------------

 Structure from the checkpoint file:  "base_4_conf202.chk"
 -------------------
 Title Card Required
 -------------------
 Charge =  0 Multiplicity = 1

 SCF Done:  E(RB3LYP) =  -292.415024220     a.u. after    1 cycles

      1  C    Isotropic =   174.2604   Anisotropy =    22.6587

      2  C    Isotropic =   140.3237   Anisotropy =    50.0960

      3  N    Isotropic =   209.4850   Anisotropy =    51.2896

      4  C    Isotropic =   142.7773   Anisotropy =    45.7150

      5  C    Isotropic =   183.5693   Anisotropy =     9.3496

      6  C    Isotropic =   148.8028   Anisotropy =    38.4524

      7  C    Isotropic =   175.1361   Anisotropy =    21.4840

      8  H    Isotropic =    31.3728   Anisotropy =     9.7877

      9  H    Isotropic =    31.0256   Anisotropy =     6.5906

     10  H    Isotropic =    31.1520   Anisotropy =     8.1397

     11  H    Isotropic =    29.4679   Anisotropy =     6.1096

     12  H    Isotropic =    29.7384   Anisotropy =     6.4264

     13  H    Isotropic =    29.5520   Anisotropy =     7.4605

     14  H    Isotropic =    29.0016   Anisotropy =     6.3254

     15  H    Isotropic =    31.2848   Anisotropy =     7.4133

     16  H    Isotropic =    31.8907   Anisotropy =     9.8891

     17  H    Isotropic =    30.9216   Anisotropy =     6.9679

     18  H    Isotropic =    29.7202   Anisotropy =     5.7255

     19  H    Isotropic =    29.5674   Anisotropy =     6.1803

     20  H    Isotropic =    31.2102   Anisotropy =     8.4081

     21  H    Isotropic =    31.2847   Anisotropy =     9.6549

     22  H    Isotropic =    30.9048   Anisotropy =     6.7902

  Exact polarizability:  78.758   0.508  74.538   0.991  -1.426  63.602
 Approx polarizability:  97.553   0.964  96.056   1.569  -2.953  92.751

                      1                      2                      3
                      A                      A                      A
 Frequencies --     49.0508                83.9549               116.2703
 Red. masses --      2.1816                 1.7928                 1.9789
 Frc consts  --      0.0031                 0.0074                 0.0158
 IR Inten    --      0.0683                 0.2011                 0.2123

                      4                      5                      6
                      A                      A                      A
 Frequencies --    187.2777               222.6009               236.1362
 Red. masses --      1.5327                 1.1241                 1.1527
 Frc consts  --      0.0317                 0.0328                 0.0379
 IR Inten    --      1.3849                 0.0432                 0.0170

                      7                      8                      9
                      A                      A                      A
 Frequencies --    283.7917               305.1281               340.5744
 Red. masses --      2.0344                 1.6582                 2.4757
 Frc consts  --      0.0965                 0.0910                 0.1692
 IR Inten    --      0.1959                 1.1288                 0.6801

                     10                     11                     12
                      A                      A                      A
 Frequencies --    420.0361               477.4445               531.3163
 Red. masses --      2.1484                 2.4631                 2.5680
 Frc consts  --      0.2233                 0.3308                 0.4271
 IR Inten    --      1.9927                 2.2799                 6.3040

                     13                     14                     15
                      A                      A                      A
 Frequencies --    742.3980               789.6164               808.7358
 Red. masses --      2.5633                 1.1458                 1.1511
 Frc consts  --      0.8324                 0.4209                 0.4436
 IR Inten    --      8.3264                 4.0501                 2.4145

                     16                     17                     18
                      A                      A                      A
 Frequencies --    820.5721               915.2315               934.5012
 Red. masses --      1.1452                 2.0605                 1.9385
 Frc consts  --      0.4543                 1.0169                 0.9974
 IR Inten    --      1.7267                 1.4864                 1.1572

                     19                     20                     21
                      A                      A                      A
 Frequencies --   1012.9212              1070.8670              1093.9109
 Red. masses --      2.5856                 2.3143                 2.5746
 Frc consts  --      1.5630                 1.5636                 1.8152
 IR Inten    --      8.3743                 7.2670                32.4180

                     22                     23                     24
                      A                      A                      A
 Frequencies --   1097.9169              1116.9686              1127.6953
 Red. masses --      1.6640                 1.7090                 1.7625
 Frc consts  --      1.1818                 1.2563                 1.3205
 IR Inten    --      1.7466                 6.9878                28.5103

                     25                     26                     27
                      A                      A                      A
 Frequencies --   1168.8177              1246.0632              1254.7902
 Red. masses --      1.7039                 2.0724                 2.3188
 Frc consts  --      1.3715                 1.8958                 2.1511
 IR Inten    --      9.6273                15.4099                24.6755

                     28                     29                     30
                      A                      A                      A
 Frequencies --   1329.9706              1340.1599              1385.1551
 Red. masses --      1.1067                 1.1972                 1.2758
 Frc consts  --      1.1534                 1.2669                 1.4422
 IR Inten    --      1.1205                26.2297                12.4337

                     31                     32                     33
                      A                      A                      A
 Frequencies --   1400.1320              1415.3928              1427.9517
 Red. masses --      1.2718                 1.3082                 1.2325
 Frc consts  --      1.4690                 1.5442                 1.4807
 IR Inten    --     18.7322                11.3403                 0.1102

                     34                     35                     36
                      A                      A                      A
 Frequencies --   1430.8022              1442.0527              1445.6526
 Red. masses --      1.2590                 1.3137                 1.3722
 Frc consts  --      1.5186                 1.6096                 1.6897
 IR Inten    --     14.6268                19.2744                15.7456

                     37                     38                     39
                      A                      A                      A
 Frequencies --   1509.2944              1517.5470              1519.8797
 Red. masses --      1.0618                 1.0508                 1.0524
 Frc consts  --      1.4251                 1.4258                 1.4323
 IR Inten    --      2.7207                 3.8744                 0.9540

                     40                     41                     42
                      A                      A                      A
 Frequencies --   1524.5552              1527.5741              1531.3012
 Red. masses --      1.0511                 1.0434                 1.0470
 Frc consts  --      1.4394                 1.4346                 1.4466
 IR Inten    --      1.4935                 3.0336                 0.8130

                     43                     44                     45
                      A                      A                      A
 Frequencies --   1538.1713              1541.3282              1553.5493
 Red. masses --      1.0545                 1.0810                 1.0858
 Frc consts  --      1.4699                 1.5131                 1.5440
 IR Inten    --      2.2626                 8.2871                 0.8356

                     46                     47                     48
                      A                      A                      A
 Frequencies --   2930.0938              2938.1166              3044.9914
 Red. masses --      1.0743                 1.0734                 1.0626
 Frc consts  --      5.4344                 5.4593                 5.8050
 IR Inten    --     23.9367               123.5840                27.2244

                     49                     50                     51
                      A                      A                      A
 Frequencies --   3049.1747              3051.3279              3053.5694
 Red. masses --      1.0357                 1.0363                 1.0391
 Frc consts  --      5.6736                 5.6850                 5.7086
 IR Inten    --     24.5220                19.7856                21.5220

                     52                     53                     54
                      A                      A                      A
 Frequencies --   3066.7064              3082.9837              3085.0976
 Red. masses --      1.0865                 1.0934                 1.0919
 Frc consts  --      6.0203                 6.1230                 6.1233
 IR Inten    --     22.4118                25.2888                13.1105

                     55                     56                     57
                      A                      A                      A
 Frequencies --   3112.9878              3115.0196              3118.8847
 Red. masses --      1.1011                 1.1010                 1.1002
 Frc consts  --      6.2870                 6.2943                 6.3057
 IR Inten    --     33.1694                22.6449                77.4106

                     58                     59                     60
                      A                      A                      A
 Frequencies --   3122.1660              3128.5674              3129.9304
 Red. masses --      1.1027                 1.1032                 1.1030
 Frc consts  --      6.3331                 6.3619                 6.3663
 IR Inten    --     39.2700                47.0199                36.2050

 - Thermochemistry -
 -------------------
 Temperature   298.150 Kelvin.  Pressure   1.00000 Atm.
 Atom     1 has atomic number  6 and mass  12.00000

 Molecular mass:   101.12045 amu.
 Principal axes and moments of inertia in atomic units:
                           1         2         3
     Eigenvalues --   665.88206 879.869751349.77642
           X            0.99999  -0.00362   0.00020
           Y            0.00362   0.99998   0.00428
           Z           -0.00021  -0.00428   0.99999
 This molecule is an asymmetric top.
 Rotational symmetry number  1.
 Warning -- assumption of classical behavior for rotation
           may cause significant error
 Rotational temperatures (Kelvin)      0.13007     0.09844     0.06417
 Rotational constants (GHZ):           2.71030     2.05115     1.33707
 Zero-point vibrational energy     543491.5 (Joules/Mol)
                                  129.89757 (Kcal/Mol)
 Warning -- explicit consideration of  12 degrees of freedom as
           vibrations may cause significant error
 Vibrational temperatures:     70.57   120.79   167.29   269.45   320.27
          (Kelvin)            339.75   408.31   439.01   490.01   604.34
                              686.94   764.45  1068.15  1136.08  1163.59
                             1180.62  1316.81  1344.54  1457.37  1540.74
                             1573.89  1579.66  1607.07  1622.50  1681.67
                             1792.81  1805.36  1913.53  1928.19  1992.93
                             2014.48  2036.43  2054.50  2058.61  2074.79
                             2079.97  2171.54  2183.41  2186.77  2193.49
                             2197.84  2203.20  2213.09  2217.63  2235.21
                             4215.75  4227.29  4381.06  4387.08  4390.18
                             4393.41  4412.31  4435.73  4438.77  4478.90
                             4481.82  4487.38  4492.10  4501.31  4503.27

 Zero-point correction=                           0.207005 (Hartree/Particle)
 Thermal correction to Energy=                    0.216455
 Thermal correction to Enthalpy=                  0.217399
 Thermal correction to Gibbs Free Energy=         0.172765
 Sum of electronic and zero-point Energies=           -292.208019
 Sum of electronic and thermal Energies=              -292.198569
 Sum of electronic and thermal Enthalpies=            -292.197625
 Sum of electronic and thermal Free Energies=         -292.242260

                     E (Thermal)             CV                S
                      KCal/Mol        Cal/Mol-Kelvin    Cal/Mol-Kelvin
 Total                  135.828             33.660             93.941
 Electronic               0.000              0.000              0.000
 Translational            0.889              2.981             39.751
 Rotational               0.889              2.981             28.160
 Vibrational            134.050             27.699             26.030
 Vibration     1          0.595              1.978              4.855
 Vibration     2          0.601              1.960              3.796
 Vibration     3          0.608              1.936              3.161
 Vibration     4          0.632              1.857              2.255
 Vibration     5          0.648              1.807              1.938
 Vibration     6          0.655              1.785              1.832
 Vibration     7          0.682              1.704              1.511
 Vibration     8          0.696              1.664              1.389
 Vibration     9          0.720              1.594              1.209
 Vibration    10          0.783              1.427              0.892
 Vibration    11          0.834              1.300              0.717
 Vibration    12          0.886              1.181              0.584

 Optimization completed.
    -- Stationary point found.
 Normal termination of Gaussian 16 at Mon Aug 24 16:44:58 2020.
 Gaussian 16:  ES64L-G16RevA.03 25-Dec-2016

 ----------------------------------------------------------------------
 # TD(NStates=10, Root=1) B3LYP/6-31G* scf=qc volume pop=NPA density=cu
 rrent Geom=AllCheck Guess=Read
 ----------------------------------------------------------------------

 Structure from the checkpoint file:  "base_4_conf203.chk"
 -------------------
 Title Card Required
 -------------------
 Charge =  0 Multiplicity = 1

                         Standard orientation:
 ---------------------------------------------------------------------
 Center     Atomic      Atomic             Coordinates (Angstroms)
 Number     Number       Type             X           Y           Z
 ---------------------------------------------------------------------
      1          6           0       -2.634494    0.054356    0.087381
      2          6           0       -1.327476   -0.698360   -0.179583
      3          7           0       -0.147235    0.008046    0.328877
      4          6           0        0.944746   -0.893260    0.711357
      5          6           0        1.621633   -1.698052   -0.413699
      6          6           0        0.255926    1.122786   -0.531685
      7          6           0        1.221501    2.099149    0.143818
      8          1           0       -3.490798   -0.539153   -0.254477
      9          1           0       -2.674389    1.015972   -0.435727
     10          1           0       -2.748417    0.248879    1.158795
     11          1           0       -1.247208   -0.925843   -1.260151
     12          1           0       -1.377300   -1.666603    0.333034
     13          1           0        0.538603   -1.591018    1.454834
     14          1           0        1.703988   -0.303481    1.237309
     15          1           0        0.904837   -2.337660   -0.941152
     16          1           0        2.400624   -2.346295    0.005006
     17          1           0        2.098355   -1.046927   -1.154836
     18          1           0       -0.653235    1.672772   -0.796243
     19          1           0        0.689380    0.776993   -1.490723
     20          1           0        0.812910    2.437653    1.101954
     21          1           0        1.377817    2.974856   -0.496422
     22          1           0        2.204465    1.653809    0.331127
 ---------------------------------------------------------------------

 SCF Done:  E(RB3LYP) =  -292.415024220     a.u. after    1 cycles

 Excitation energies and oscillator strengths:

 Excited State   1:      Singlet-A      6.6343 eV  186.88 nm  f=0.0158  <S**2>=0.000
      29 -> 30         0.70442
 This state for optimization and/or second-order correction.
 Total Energy, E(TD-HF/TD-DFT) =  -292.171216653
 Copying the excited state density for this state as the 1-particle RhoCI density.

 Excited State   2:      Singlet-A      7.2810 eV  170.28 nm  f=0.0146  <S**2>=0.000
      29 -> 31         0.69937

 Excited State   3:      Singlet-A      7.6215 eV  162.68 nm  f=0.0026  <S**2>=0.000
      29 -> 32         0.68338
      29 -> 33        -0.15852

 Excited State   4:      Singlet-A      7.8992 eV  156.96 nm  f=0.0230  <S**2>=0.000
      29 -> 32         0.16315
      29 -> 33         0.68280

 Excited State   5:      Singlet-A      8.4659 eV  146.45 nm  f=0.0098  <S**2>=0.000
      29 -> 34         0.68241
      29 -> 36         0.14523

 Excited State   6:      Singlet-A      8.5419 eV  145.15 nm  f=0.0300  <S**2>=0.000
      29 -> 35         0.59943
      29 -> 36        -0.35253

 Excited State   7:      Singlet-A      8.6085 eV  144.02 nm  f=0.0277  <S**2>=0.000
      29 -> 34        -0.14529
      29 -> 35         0.35541
      29 -> 36         0.57330

 Excited State   8:      Singlet-A      8.9287 eV  138.86 nm  f=0.0007  <S**2>=0.000
      29 -> 36         0.10655
      29 -> 37         0.66826
      29 -> 38        -0.15517

 Excited State   9:      Singlet-A      9.0626 eV  136.81 nm  f=0.0456  <S**2>=0.000
      29 -> 37         0.14524
      29 -> 38         0.68240

 Excited State  10:      Singlet-A      9.3869 eV  132.08 nm  f=0.0251  <S**2>=0.000
      29 -> 39         0.65680
      29 -> 40        -0.22681

 The electronic state is 1-A.
 Alpha  occ. eigenvalues --  -14.31156 -10.20078 -10.20004 -10.19986 -10.17003
 Alpha  occ. eigenvalues --  -10.16970 -10.16844  -0.90779  -0.75315  -0.74949
 Alpha  occ. eigenvalues --   -0.69921  -0.62911  -0.61327  -0.54657  -0.48009
 Alpha  occ. eigenvalues --   -0.46738  -0.44427  -0.43130  -0.40893  -0.39265
 Alpha  occ. eigenvalues --   -0.38730  -0.36998  -0.36430  -0.35690  -0.34626
 Alpha  occ. eigenvalues --   -0.33710  -0.32751  -0.31909  -0.19849
 Alpha virt. eigenvalues --    0.08284   0.10653   0.11980   0.12922   0.15086
 Alpha virt. eigenvalues --    0.15517   0.15748   0.16379   0.16847   0.18091
 Alpha virt. eigenvalues --    0.18534   0.19455   0.20530   0.21226   0.21831

 Mulliken charges:
               1
     1  C   -0.448890
     2  C   -0.091159
     3  N   -0.194339
     4  C   -0.096188
     5  C   -0.352587
     6  C   -0.073942
     7  C   -0.423040
     8  H    0.139782
     9  H    0.144061
    10  H    0.150609
    11  H    0.143427
    12  H    0.098438
    13  H    0.071737
    14  H    0.119632
    15  H    0.089530
    16  H    0.094674
    17  H    0.072297
    18  H    0.073244
    19  H    0.124437
    20  H    0.130561
    21  H    0.124371
    22  H    0.103345
 Sum of Mulliken charges =  -0.00000

 Dipole moment (field-independent basis, Debye):
    X=             -1.4329    Y=              0.4081    Z=              0.2302  Tot=              1.5075
 Quadrupole moment (field-independent basis, Debye-Ang):
   XX=            -51.6249   YY=            -52.9861   ZZ=            -49.5792
   XY=              1.0340   XZ=              0.7669   YZ=              0.2601

 Summary of Natural Population Analysis:

                                       Natural Population
                Natural  -----------------------------------------------
    Atom  No    Charge         Core      Valence    Rydberg      Total
 -----------------------------------------------------------------------
      C    1   -0.69629      1.99944     4.68573    0.01112     6.69629
      C    2   -0.31586      1.99931     4.29946    0.01709     6.31586
      N    3   -0.03194      1.99932     5.02339    0.00923     7.03194
      C    4   -0.31561      1.99933     4.29682    0.01947     6.31561
      C    5   -0.68868      1.99940     4.67775    0.01153     6.68868
      C    6   -0.31794      1.99929     4.30078    0.01787     6.31794
      C    7   -0.70337      1.99945     4.69215    0.01178     6.70337
      H    8    0.22614      0.00000     0.76532    0.00854     0.77386
      H    9    0.21850      0.00000     0.77063    0.01087     0.78150
      H   10    0.23020      0.00000     0.76501    0.00479     0.76980
      H   11    0.23160      0.00000     0.74214    0.02626     0.76840
      H   12    0.19671      0.00000     0.76876    0.03453     0.80329
      H   13    0.17465      0.00000     0.78777    0.03758     0.82535
      H   14    0.21056      0.00000     0.76438    0.02507     0.78944
      H   15    0.18685      0.00000     0.78804    0.02511     0.81315
      H   16    0.19708      0.00000     0.78084    0.02208     0.80292
      H   17    0.17321      0.00000     0.79116    0.03563     0.82679
      H   18    0.17463      0.00000     0.79128    0.03409     0.82537
      H   19    0.21947      0.00000     0.74397    0.03656     0.78053
      H   20    0.22036      0.00000     0.77207    0.00757     0.77964
      H   21    0.21925      0.00000     0.76966    0.01109     0.78075
      H   22    0.19049      0.00000     0.78326    0.02625     0.80951
 =======================================================================
   * Total *   -0.00000     13.99553    43.56036    0.44411    58.00000

 Normal termination of Gaussian 16 at Mon Aug 24 16:49:02 2020.
