 Gaussian 16, Revision A.03,

 ---------------------------------
 # opt=CalcAll B3LYP/6-31G* scf=qc
 ---------------------------------

 -------------------
 Title Card Required
 -------------------
 Symbolic Z-matrix:
 Charge =  0 Multiplicity = 1

 SCF Done:  E(RB3LYP) =  -292.404834547     a.u. after    7 cycles
 SCF Done:  E(RB3LYP) =  -292.413381083     a.u. after   13 cycles
 SCF Done:  E(RB3LYP) =  -292.414771250     a.u. after    9 cycles
 SCF Done:  E(RB3LYP) =  -292.414990813     a.u. after   11 cycles
 SCF Done:  E(RB3LYP) =  -292.415023541     a.u. after    7 cycles
 SCF Done:  E(RB3LYP) =  -292.415024204     a.u. after    3 cycles
 Optimization completed.
    -- Stationary point found.
 Normal termination of Gaussian 16 at Mon Aug 24 16:42:22 2020.

 ----------------------------------------------------------------------
 # freq B3LYP/6-31G* scf=qc volume NMR pop=NPA density=current Geom=All
 Check Guess=Read
 ----------------------------------------------------------------------

 Structure from the checkpoint file:  "base_4_conf192.chk"
 -------------------
 Title Card Required
 -------------------
 Charge =  0 Multiplicity = 1

 SCF Done:  E(RB3LYP) =  -292.415024204     a.u. after    1 cycles

      1  C    Isotropic =   183.5650   Anisotropy =     9.3576

      2  C    Isotropic =   142.7798   Anisotropy =    45.7141

      3  N    Isotropic =   209.4960   Anisotropy =    51.2915

      4  C    Isotropic =   140.3252   Anisotropy =    50.0976

      5  C    Isotropic =   174.2591   Anisotropy =    22.6582

      6  C    Isotropic =   148.8037   Anisotropy =    38.4523

      7  C    Isotropic =   175.1350   Anisotropy =    21.4879

      8  H    Isotropic =    31.8906   Anisotropy =     9.8890

      9  H    Isotropic =    31.2850   Anisotropy =     7.4129

     10  H    Isotropic =    30.9215   Anisotropy =     6.9683

     11  H    Isotropic =    29.5518   Anisotropy =     7.4605

     12  H    Isotropic =    29.0018   Anisotropy =     6.3256

     13  H    Isotropic =    29.4680   Anisotropy =     6.1116

     14  H    Isotropic =    29.7382   Anisotropy =     6.4251

     15  H    Isotropic =    31.0258   Anisotropy =     6.5893

     16  H    Isotropic =    31.3731   Anisotropy =     9.7884

     17  H    Isotropic =    31.1520   Anisotropy =     8.1394

     18  H    Isotropic =    29.5668   Anisotropy =     6.1820

     19  H    Isotropic =    29.7204   Anisotropy =     5.7246

     20  H    Isotropic =    30.9049   Anisotropy =     6.7904

     21  H    Isotropic =    31.2848   Anisotropy =     9.6547

     22  H    Isotropic =    31.2103   Anisotropy =     8.4075

  Exact polarizability:  78.758   0.509  74.540  -0.991   1.426  63.603
 Approx polarizability:  97.554   0.965  96.056  -1.570   2.954  92.750

                      1                      2                      3
                      A                      A                      A
 Frequencies --     49.0016                83.9575               116.2508
 Red. masses --      2.1818                 1.7928                 1.9796
 Frc consts  --      0.0031                 0.0074                 0.0158
 IR Inten    --      0.0684                 0.2006                 0.2121

                      4                      5                      6
                      A                      A                      A
 Frequencies --    187.2373               222.5665               236.0841
 Red. masses --      1.5329                 1.1241                 1.1527
 Frc consts  --      0.0317                 0.0328                 0.0379
 IR Inten    --      1.3863                 0.0431                 0.0169

                      7                      8                      9
                      A                      A                      A
 Frequencies --    283.8134               305.0666               340.5508
 Red. masses --      2.0335                 1.6578                 2.4764
 Frc consts  --      0.0965                 0.0909                 0.1692
 IR Inten    --      0.1963                 1.1281                 0.6797

                     10                     11                     12
                      A                      A                      A
 Frequencies --    420.0017               477.4235               531.2784
 Red. masses --      2.1482                 2.4628                 2.5682
 Frc consts  --      0.2233                 0.3307                 0.4271
 IR Inten    --      1.9938                 2.2789                 6.3061

                     13                     14                     15
                      A                      A                      A
 Frequencies --    742.3707               789.6018               808.7154
 Red. masses --      2.5634                 1.1458                 1.1512
 Frc consts  --      0.8324                 0.4209                 0.4436
 IR Inten    --      8.3239                 4.0485                 2.4170

                     16                     17                     18
                      A                      A                      A
 Frequencies --    820.5333               915.2254               934.4898
 Red. masses --      1.1453                 2.0606                 1.9385
 Frc consts  --      0.4543                 1.0169                 0.9974
 IR Inten    --      1.7295                 1.4866                 1.1573

                     19                     20                     21
                      A                      A                      A
 Frequencies --   1012.9040              1070.8676              1093.8969
 Red. masses --      2.5855                 2.3140                 2.5747
 Frc consts  --      1.5629                 1.5635                 1.8152
 IR Inten    --      8.3693                 7.2796                32.4433

                     22                     23                     24
                      A                      A                      A
 Frequencies --   1097.9150              1116.9651              1127.6806
 Red. masses --      1.6641                 1.7091                 1.7625
 Frc consts  --      1.1818                 1.2563                 1.3205
 IR Inten    --      1.7406                 6.9886                28.5206

                     25                     26                     27
                      A                      A                      A
 Frequencies --   1168.7789              1246.0755              1254.8000
 Red. masses --      1.7038                 2.0722                 2.3188
 Frc consts  --      1.3713                 1.8957                 2.1511
 IR Inten    --      9.6224                15.4150                24.6838

                     28                     29                     30
                      A                      A                      A
 Frequencies --   1329.9663              1340.1793              1385.1685
 Red. masses --      1.1067                 1.1973                 1.2758
 Frc consts  --      1.1533                 1.2670                 1.4422
 IR Inten    --      1.1164                26.2414                12.4404

                     31                     32                     33
                      A                      A                      A
 Frequencies --   1400.1302              1415.3908              1427.9503
 Red. masses --      1.2719                 1.3083                 1.2325
 Frc consts  --      1.4690                 1.5442                 1.4807
 IR Inten    --     18.7415                11.3561                 0.1095

                     34                     35                     36
                      A                      A                      A
 Frequencies --   1430.8005              1442.0462              1445.6472
 Red. masses --      1.2590                 1.3136                 1.3722
 Frc consts  --      1.5186                 1.6094                 1.6897
 IR Inten    --     14.6238                19.2742                15.7461

                     37                     38                     39
                      A                      A                      A
 Frequencies --   1509.2838              1517.5423              1519.8704
 Red. masses --      1.0618                 1.0508                 1.0524
 Frc consts  --      1.4251                 1.4258                 1.4323
 IR Inten    --      2.7155                 3.8878                 0.9410

                     40                     41                     42
                      A                      A                      A
 Frequencies --   1524.5529              1527.5673              1531.2985
 Red. masses --      1.0511                 1.0434                 1.0470
 Frc consts  --      1.4394                 1.4346                 1.4466
 IR Inten    --      1.4898                 3.0334                 0.8087

                     43                     44                     45
                      A                      A                      A
 Frequencies --   1538.1587              1541.3278              1553.5330
 Red. masses --      1.0545                 1.0810                 1.0858
 Frc consts  --      1.4699                 1.5131                 1.5440
 IR Inten    --      2.2677                 8.2877                 0.8359

                     46                     47                     48
                      A                      A                      A
 Frequencies --   2930.1389              2938.1740              3044.9877
 Red. masses --      1.0743                 1.0734                 1.0626
 Frc consts  --      5.4345                 5.4595                 5.8050
 IR Inten    --     24.0442               123.4974                27.2344

                     49                     50                     51
                      A                      A                      A
 Frequencies --   3049.1721              3051.3214              3053.5690
 Red. masses --      1.0357                 1.0363                 1.0391
 Frc consts  --      5.6736                 5.6850                 5.7086
 IR Inten    --     24.5326                19.7854                21.5229

                     52                     53                     54
                      A                      A                      A
 Frequencies --   3066.7171              3082.9739              3085.0875
 Red. masses --      1.0865                 1.0933                 1.0920
 Frc consts  --      6.0204                 6.1225                 6.1237
 IR Inten    --     22.4011                25.2690                13.1297

                     55                     56                     57
                      A                      A                      A
 Frequencies --   3112.9828              3115.0144              3118.8764
 Red. masses --      1.1011                 1.1010                 1.1002
 Frc consts  --      6.2870                 6.2942                 6.3056
 IR Inten    --     33.1509                22.6957                77.3318

                     58                     59                     60
                      A                      A                      A
 Frequencies --   3122.1664              3128.5780              3129.9269
 Red. masses --      1.1027                 1.1032                 1.1030
 Frc consts  --      6.3331                 6.3620                 6.3662
 IR Inten    --     39.3280                47.0669                36.1684

 - Thermochemistry -
 -------------------
 Temperature   298.150 Kelvin.  Pressure   1.00000 Atm.
 Atom     1 has atomic number  6 and mass  12.00000

 Molecular mass:   101.12045 amu.
 Principal axes and moments of inertia in atomic units:
                           1         2         3
     Eigenvalues --   666.00607 879.824311349.85509
           X            0.99999  -0.00362  -0.00019
           Y            0.00362   0.99998  -0.00429
           Z            0.00021   0.00428   0.99999
 This molecule is an asymmetric top.
 Rotational symmetry number  1.
 Warning -- assumption of classical behavior for rotation
           may cause significant error
 Rotational temperatures (Kelvin)      0.13005     0.09844     0.06417
 Rotational constants (GHZ):           2.70980     2.05125     1.33699
 Zero-point vibrational energy     543488.3 (Joules/Mol)
                                  129.89683 (Kcal/Mol)
 Warning -- explicit consideration of  12 degrees of freedom as
           vibrations may cause significant error
 Vibrational temperatures:     70.50   120.80   167.26   269.39   320.22
          (Kelvin)            339.67   408.34   438.92   489.98   604.29
                              686.91   764.39  1068.11  1136.06  1163.56
                             1180.56  1316.81  1344.52  1457.34  1540.74
                             1573.87  1579.65  1607.06  1622.48  1681.61
                             1792.82  1805.38  1913.52  1928.22  1992.95
                             2014.48  2036.43  2054.50  2058.60  2074.78
                             2079.96  2171.52  2183.40  2186.75  2193.49
                             2197.83  2203.20  2213.07  2217.63  2235.19
                             4215.82  4227.38  4381.06  4387.08  4390.17
                             4393.40  4412.32  4435.71  4438.75  4478.89
                             4481.81  4487.37  4492.10  4501.33  4503.27

 Zero-point correction=                           0.207004 (Hartree/Particle)
 Thermal correction to Energy=                    0.216454
 Thermal correction to Enthalpy=                  0.217398
 Thermal correction to Gibbs Free Energy=         0.172762
 Sum of electronic and zero-point Energies=           -292.208020
 Sum of electronic and thermal Energies=              -292.198570
 Sum of electronic and thermal Enthalpies=            -292.197626
 Sum of electronic and thermal Free Energies=         -292.242262

                     E (Thermal)             CV                S
                      KCal/Mol        Cal/Mol-Kelvin    Cal/Mol-Kelvin
 Total                  135.827             33.661             93.945
 Electronic               0.000              0.000              0.000
 Translational            0.889              2.981             39.751
 Rotational               0.889              2.981             28.161
 Vibrational            134.050             27.700             26.034
 Vibration     1          0.595              1.978              4.857
 Vibration     2          0.601              1.960              3.796
 Vibration     3          0.608              1.936              3.162
 Vibration     4          0.632              1.857              2.255
 Vibration     5          0.648              1.807              1.938
 Vibration     6          0.655              1.786              1.832
 Vibration     7          0.682              1.704              1.511
 Vibration     8          0.696              1.664              1.389
 Vibration     9          0.720              1.594              1.210
 Vibration    10          0.783              1.427              0.892
 Vibration    11          0.834              1.300              0.717
 Vibration    12          0.886              1.181              0.584

 Optimization completed.
    -- Stationary point found.
 Normal termination of Gaussian 16 at Mon Aug 24 16:44:58 2020.
 Gaussian 16:  ES64L-G16RevA.03 25-Dec-2016

 ----------------------------------------------------------------------
 # TD(NStates=10, Root=1) B3LYP/6-31G* scf=qc volume pop=NPA density=cu
 rrent Geom=AllCheck Guess=Read
 ----------------------------------------------------------------------

 Structure from the checkpoint file:  "base_4_conf193.chk"
 -------------------
 Title Card Required
 -------------------
 Charge =  0 Multiplicity = 1

                         Standard orientation:
 ---------------------------------------------------------------------
 Center     Atomic      Atomic             Coordinates (Angstroms)
 Number     Number       Type             X           Y           Z
 ---------------------------------------------------------------------
      1          6           0        1.621982   -1.698064    0.413484
      2          6           0        0.944874   -0.893138   -0.711349
      3          7           0       -0.147148    0.007982   -0.328594
      4          6           0       -1.327344   -0.698531    0.179814
      5          6           0       -2.634457    0.053870   -0.087604
      6          6           0        0.255894    1.122859    0.531852
      7          6           0        1.220842    2.099652   -0.143933
      8          1           0        2.401030   -2.346111   -0.005421
      9          1           0        0.905329   -2.337883    0.940874
     10          1           0        2.098679   -1.047021    1.154709
     11          1           0        0.538721   -1.590815   -1.454898
     12          1           0        1.704000   -0.303210   -1.237299
     13          1           0       -1.247239   -0.925685    1.260456
     14          1           0       -1.376880   -1.666937   -0.332521
     15          1           0       -2.674450    1.015778    0.434960
     16          1           0       -3.490709   -0.539536    0.254567
     17          1           0       -2.748379    0.247798   -1.159126
     18          1           0        0.689820    0.777224    1.490727
     19          1           0       -0.653391    1.672485    0.796742
     20          1           0        2.203863    1.654664   -0.331777
     21          1           0        1.377181    2.975288    0.496403
     22          1           0        0.811705    2.438196   -1.101819
 ---------------------------------------------------------------------

 SCF Done:  E(RB3LYP) =  -292.415024204     a.u. after    1 cycles

 Excitation energies and oscillator strengths:

 Excited State   1:      Singlet-A      6.6337 eV  186.90 nm  f=0.0158  <S**2>=0.000
      29 -> 30         0.70442
 This state for optimization and/or second-order correction.
 Total Energy, E(TD-HF/TD-DFT) =  -292.171238697
 Copying the excited state density for this state as the 1-particle RhoCI density.

 Excited State   2:      Singlet-A      7.2807 eV  170.29 nm  f=0.0146  <S**2>=0.000
      29 -> 31         0.69937

 Excited State   3:      Singlet-A      7.6210 eV  162.69 nm  f=0.0026  <S**2>=0.000
      29 -> 32         0.68342
      29 -> 33        -0.15837

 Excited State   4:      Singlet-A      7.8989 eV  156.96 nm  f=0.0230  <S**2>=0.000
      29 -> 32         0.16299
      29 -> 33         0.68284

 Excited State   5:      Singlet-A      8.4655 eV  146.46 nm  f=0.0098  <S**2>=0.000
      29 -> 34         0.68230
      29 -> 36         0.14610

 Excited State   6:      Singlet-A      8.5415 eV  145.16 nm  f=0.0302  <S**2>=0.000
      29 -> 35         0.59869
      29 -> 36        -0.35359

 Excited State   7:      Singlet-A      8.6081 eV  144.03 nm  f=0.0276  <S**2>=0.000
      29 -> 34        -0.14548
      29 -> 35         0.35676
      29 -> 36         0.57247

 Excited State   8:      Singlet-A      8.9282 eV  138.87 nm  f=0.0007  <S**2>=0.000
      29 -> 36         0.10606
      29 -> 37         0.66839
      29 -> 38        -0.15489

 Excited State   9:      Singlet-A      9.0620 eV  136.82 nm  f=0.0457  <S**2>=0.000
      29 -> 37         0.14492
      29 -> 38         0.68244

 Excited State  10:      Singlet-A      9.3861 eV  132.09 nm  f=0.0252  <S**2>=0.000
      29 -> 39         0.65720
      29 -> 40        -0.22557

 The electronic state is 1-A.
 Alpha  occ. eigenvalues --  -14.31156 -10.20078 -10.20004 -10.19986 -10.17003
 Alpha  occ. eigenvalues --  -10.16970 -10.16844  -0.90778  -0.75315  -0.74950
 Alpha  occ. eigenvalues --   -0.69921  -0.62911  -0.61327  -0.54657  -0.48008
 Alpha  occ. eigenvalues --   -0.46739  -0.44426  -0.43129  -0.40893  -0.39265
 Alpha  occ. eigenvalues --   -0.38731  -0.36998  -0.36430  -0.35690  -0.34626
 Alpha  occ. eigenvalues --   -0.33711  -0.32752  -0.31909  -0.19847
 Alpha virt. eigenvalues --    0.08284   0.10653   0.11980   0.12923   0.15086
 Alpha virt. eigenvalues --    0.15518   0.15747   0.16379   0.16847   0.18090
 Alpha virt. eigenvalues --    0.18535   0.19455   0.20528   0.21225   0.21831

 Mulliken charges:
               1
     1  C   -0.352634
     2  C   -0.096165
     3  N   -0.194319
     4  C   -0.091157
     5  C   -0.448866
     6  C   -0.073939
     7  C   -0.423049
     8  H    0.094709
     9  H    0.089568
    10  H    0.072320
    11  H    0.071717
    12  H    0.119604
    13  H    0.143415
    14  H    0.098412
    15  H    0.144045
    16  H    0.139780
    17  H    0.150589
    18  H    0.124433
    19  H    0.073209
    20  H    0.103371
    21  H    0.124391
    22  H    0.130567
 Sum of Mulliken charges =  -0.00000

 Dipole moment (field-independent basis, Debye):
    X=             -1.4316    Y=              0.4078    Z=             -0.2294  Tot=              1.5061
 Quadrupole moment (field-independent basis, Debye-Ang):
   XX=            -51.6244   YY=            -52.9848   ZZ=            -49.5794
   XY=              1.0343   XZ=             -0.7660   YZ=             -0.2609

 Summary of Natural Population Analysis:

                                       Natural Population
                Natural  -----------------------------------------------
    Atom  No    Charge         Core      Valence    Rydberg      Total
 -----------------------------------------------------------------------
      C    1   -0.68868      1.99940     4.67775    0.01153     6.68868
      C    2   -0.31561      1.99933     4.29681    0.01947     6.31561
      N    3   -0.03195      1.99932     5.02341    0.00923     7.03195
      C    4   -0.31585      1.99931     4.29945    0.01709     6.31585
      C    5   -0.69628      1.99944     4.68572    0.01112     6.69628
      C    6   -0.31793      1.99929     4.30077    0.01787     6.31793
      C    7   -0.70336      1.99945     4.69213    0.01178     6.70336
      H    8    0.19710      0.00000     0.78083    0.02207     0.80290
      H    9    0.18687      0.00000     0.78803    0.02510     0.81313
      H   10    0.17323      0.00000     0.79115    0.03562     0.82677
      H   11    0.17464      0.00000     0.78777    0.03759     0.82536
      H   12    0.21053      0.00000     0.76439    0.02507     0.78947
      H   13    0.23159      0.00000     0.74215    0.02626     0.76841
      H   14    0.19668      0.00000     0.76878    0.03454     0.80332
      H   15    0.21850      0.00000     0.77063    0.01088     0.78150
      H   16    0.22614      0.00000     0.76532    0.00854     0.77386
      H   17    0.23018      0.00000     0.76502    0.00480     0.76982
      H   18    0.21946      0.00000     0.74397    0.03656     0.78054
      H   19    0.17459      0.00000     0.79130    0.03411     0.82541
      H   20    0.19051      0.00000     0.78325    0.02624     0.80949
      H   21    0.21926      0.00000     0.76965    0.01109     0.78074
      H   22    0.22036      0.00000     0.77207    0.00758     0.77964
 =======================================================================
   * Total *   -0.00000     13.99553    43.56034    0.44413    58.00000

 Normal termination of Gaussian 16 at Mon Aug 24 16:48:44 2020.
