 Gaussian 16, Revision A.03,

 ---------------------------------
 # opt=CalcAll B3LYP/6-31G* scf=qc
 ---------------------------------

 -------------------
 Title Card Required
 -------------------
 Symbolic Z-matrix:
 Charge =  0 Multiplicity = 1

 SCF Done:  E(RB3LYP) =  -292.380665559     a.u. after    7 cycles
 SCF Done:  E(RB3LYP) =  -292.389672585     a.u. after   13 cycles
 SCF Done:  E(RB3LYP) =  -292.407863492     a.u. after   13 cycles
 SCF Done:  E(RB3LYP) =  -292.409970435     a.u. after   13 cycles
 SCF Done:  E(RB3LYP) =  -292.412074542     a.u. after   11 cycles
 SCF Done:  E(RB3LYP) =  -292.412555469     a.u. after   11 cycles
 SCF Done:  E(RB3LYP) =  -292.412674009     a.u. after    9 cycles
 SCF Done:  E(RB3LYP) =  -292.412693272     a.u. after    4 cycles
 SCF Done:  E(RB3LYP) =  -292.412693485     a.u. after    3 cycles
 SCF Done:  E(RB3LYP) =  -292.412693546     a.u. after    2 cycles
 Optimization completed.
    -- Stationary point found.
 Normal termination of Gaussian 16 at Mon Aug 24 16:53:51 2020.

 ----------------------------------------------------------------------
 # freq B3LYP/6-31G* scf=qc volume NMR pop=NPA density=current Geom=All
 Check Guess=Read
 ----------------------------------------------------------------------

 Structure from the checkpoint file:  "base_4_conf122.chk"
 -------------------
 Title Card Required
 -------------------
 Charge =  0 Multiplicity = 1

 SCF Done:  E(RB3LYP) =  -292.412693546     a.u. after    1 cycles

      1  C    Isotropic =   174.7619   Anisotropy =    17.5915

      2  C    Isotropic =   135.4612   Anisotropy =    56.9219

      3  N    Isotropic =   217.8188   Anisotropy =    45.7592

      4  C    Isotropic =   147.4495   Anisotropy =    40.2594

      5  C    Isotropic =   175.2008   Anisotropy =    21.0229

      6  C    Isotropic =   144.3133   Anisotropy =    45.0049

      7  C    Isotropic =   176.5221   Anisotropy =    16.4566

      8  H    Isotropic =    31.6013   Anisotropy =     9.7596

      9  H    Isotropic =    30.7733   Anisotropy =     5.6980

     10  H    Isotropic =    31.1774   Anisotropy =     6.3281

     11  H    Isotropic =    29.1844   Anisotropy =     7.5720

     12  H    Isotropic =    29.2603   Anisotropy =     7.0669

     13  H    Isotropic =    28.8511   Anisotropy =     5.6084

     14  H    Isotropic =    29.8851   Anisotropy =     6.4859

     15  H    Isotropic =    30.8872   Anisotropy =     6.4134

     16  H    Isotropic =    31.2888   Anisotropy =     9.5833

     17  H    Isotropic =    31.2199   Anisotropy =     8.5539

     18  H    Isotropic =    28.9044   Anisotropy =     6.8737

     19  H    Isotropic =    29.5453   Anisotropy =     6.8013

     20  H    Isotropic =    30.6137   Anisotropy =     5.7441

     21  H    Isotropic =    31.5974   Anisotropy =     9.7750

     22  H    Isotropic =    31.2917   Anisotropy =     7.1118

  Exact polarizability:  78.225   1.329  74.022  -1.666   1.442  63.773
 Approx polarizability:  97.066   1.718  97.932  -3.115   2.473  91.075

                      1                      2                      3
                      A                      A                      A
 Frequencies --     58.7089                88.5184               117.7466
 Red. masses --      1.9108                 2.1028                 1.8668
 Frc consts  --      0.0039                 0.0097                 0.0152
 IR Inten    --      0.0272                 0.1781                 0.2633

                      4                      5                      6
                      A                      A                      A
 Frequencies --    175.2204               222.0050               244.4815
 Red. masses --      2.0613                 1.1209                 1.1732
 Frc consts  --      0.0373                 0.0326                 0.0413
 IR Inten    --      2.4979                 0.1955                 0.2093

                      7                      8                      9
                      A                      A                      A
 Frequencies --    281.2084               290.7794               346.8288
 Red. masses --      1.3574                 2.0968                 2.5191
 Frc consts  --      0.0632                 0.1045                 0.1785
 IR Inten    --      0.5310                 0.3686                 0.4747

                     10                     11                     12
                      A                      A                      A
 Frequencies --    433.2103               466.6832               536.4646
 Red. masses --      2.0184                 2.3757                 2.5964
 Frc consts  --      0.2232                 0.3048                 0.4403
 IR Inten    --      1.0771                 2.9910                10.6269

                     13                     14                     15
                      A                      A                      A
 Frequencies --    728.3151               782.0103               795.7637
 Red. masses --      2.6127                 1.1299                 1.1676
 Frc consts  --      0.8165                 0.4071                 0.4356
 IR Inten    --      2.5126                 1.6183                 6.2436

                     16                     17                     18
                      A                      A                      A
 Frequencies --    817.9467               905.1826               923.8824
 Red. masses --      1.1384                 2.1315                 1.9855
 Frc consts  --      0.4487                 1.0290                 0.9985
 IR Inten    --      2.4791                 0.4331                 1.9582

                     19                     20                     21
                      A                      A                      A
 Frequencies --   1003.5507              1065.4337              1084.5316
 Red. masses --      2.6852                 2.2603                 2.1924
 Frc consts  --      1.5933                 1.5117                 1.5193
 IR Inten    --     10.3361                 4.7100                14.8521

                     22                     23                     24
                      A                      A                      A
 Frequencies --   1102.4063              1121.9029              1129.9771
 Red. masses --      1.6782                 1.7371                 1.8004
 Frc consts  --      1.2016                 1.2882                 1.3544
 IR Inten    --      2.0844                26.6104                36.1002

                     25                     26                     27
                      A                      A                      A
 Frequencies --   1159.0556              1256.7291              1261.3257
 Red. masses --      1.6937                 2.0075                 2.2452
 Frc consts  --      1.3406                 1.8681                 2.1046
 IR Inten    --     11.6604                22.3110                27.6841

                     28                     29                     30
                      A                      A                      A
 Frequencies --   1325.7763              1375.0179              1401.6997
 Red. masses --      1.1082                 1.3041                 1.2775
 Frc consts  --      1.1476                 1.4527                 1.4788
 IR Inten    --      1.9820                24.0139                12.2483

                     31                     32                     33
                      A                      A                      A
 Frequencies --   1403.4474              1411.8739              1428.9876
 Red. masses --      1.2462                 1.3107                 1.2402
 Frc consts  --      1.4462                 1.5394                 1.4921
 IR Inten    --     16.3870                18.3852                16.6069

                     34                     35                     36
                      A                      A                      A
 Frequencies --   1429.4059              1436.3962              1445.8841
 Red. masses --      1.2485                 1.2440                 1.3894
 Frc consts  --      1.5029                 1.5123                 1.7113
 IR Inten    --      3.9525                15.8099                18.3727

                     37                     38                     39
                      A                      A                      A
 Frequencies --   1500.7062              1511.6625              1514.8263
 Red. masses --      1.0677                 1.0659                 1.0461
 Frc consts  --      1.4168                 1.4351                 1.4144
 IR Inten    --      1.6010                 5.3927                 1.4043

                     40                     41                     42
                      A                      A                      A
 Frequencies --   1525.1563              1526.2292              1531.2663
 Red. masses --      1.0475                 1.0528                 1.0495
 Frc consts  --      1.4356                 1.4449                 1.4499
 IR Inten    --      3.8498                 3.5236                 1.6763

                     43                     44                     45
                      A                      A                      A
 Frequencies --   1534.9172              1537.9173              1552.7890
 Red. masses --      1.0499                 1.0626                 1.0893
 Frc consts  --      1.4574                 1.4807                 1.5475
 IR Inten    --      3.3808                 3.4119                 1.1882

                     46                     47                     48
                      A                      A                      A
 Frequencies --   2938.3176              3018.3535              3033.2788
 Red. masses --      1.0737                 1.0630                 1.0629
 Frc consts  --      5.4615                 5.7060                 5.7618
 IR Inten    --     70.9746                45.6409                42.5683

                     49                     50                     51
                      A                      A                      A
 Frequencies --   3046.8194              3050.4400              3052.1815
 Red. masses --      1.0365                 1.0382                 1.0622
 Frc consts  --      5.6691                 5.6918                 5.8301
 IR Inten    --     20.9842                27.4359                26.8027

                     52                     53                     54
                      A                      A                      A
 Frequencies --   3053.5271              3060.8407              3071.8089
 Red. masses --      1.0599                 1.1002                 1.1005
 Frc consts  --      5.8227                 6.0727                 6.1185
 IR Inten    --     15.2764                22.5694                32.3638

                     55                     56                     57
                      A                      A                      A
 Frequencies --   3108.5144              3110.8253              3117.4782
 Red. masses --      1.1007                 1.0999                 1.1014
 Frc consts  --      6.2664                 6.2711                 6.3070
 IR Inten    --     42.9575                64.6822                31.1569

                     58                     59                     60
                      A                      A                      A
 Frequencies --   3124.6424              3126.6861              3137.1179
 Red. masses --      1.1030                 1.1034                 1.1005
 Frc consts  --      6.3449                 6.3556                 6.3812
 IR Inten    --     42.3739                39.5441                42.4339

 - Thermochemistry -
 -------------------
 Temperature   298.150 Kelvin.  Pressure   1.00000 Atm.
 Atom     1 has atomic number  6 and mass  12.00000

 Molecular mass:   101.12045 amu.
 Principal axes and moments of inertia in atomic units:
                           1         2         3
     Eigenvalues --   625.79319 903.387471232.98344
           X            0.99999   0.00141   0.00301
           Y           -0.00141   1.00000   0.00151
           Z           -0.00301  -0.00152   0.99999
 This molecule is an asymmetric top.
 Rotational symmetry number  1.
 Warning -- assumption of classical behavior for rotation
           may cause significant error
 Rotational temperatures (Kelvin)      0.13841     0.09588     0.07025
 Rotational constants (GHZ):           2.88393     1.99775     1.46372
 Zero-point vibrational energy     543371.7 (Joules/Mol)
                                  129.86896 (Kcal/Mol)
 Warning -- explicit consideration of  12 degrees of freedom as
           vibrations may cause significant error
 Vibrational temperatures:     84.47   127.36   169.41   252.10   319.42
          (Kelvin)            351.75   404.60   418.37   499.01   623.29
                              671.45   771.85  1047.88  1125.14  1144.93
                             1176.84  1302.36  1329.26  1443.89  1532.92
                             1560.40  1586.12  1614.17  1625.79  1667.62
                             1808.15  1814.77  1907.50  1978.34  2016.73
                             2019.25  2031.37  2055.99  2056.60  2066.65
                             2080.30  2159.18  2174.95  2179.50  2194.36
                             2195.90  2203.15  2208.40  2212.72  2234.12
                             4227.58  4342.74  4364.21  4383.69  4388.90
                             4391.41  4393.34  4403.87  4419.65  4472.46
                             4475.78  4485.36  4495.66  4498.60  4513.61

 Zero-point correction=                           0.206959 (Hartree/Particle)
 Thermal correction to Energy=                    0.216410
 Thermal correction to Enthalpy=                  0.217354
 Thermal correction to Gibbs Free Energy=         0.172935
 Sum of electronic and zero-point Energies=           -292.205734
 Sum of electronic and thermal Energies=              -292.196284
 Sum of electronic and thermal Enthalpies=            -292.195339
 Sum of electronic and thermal Free Energies=         -292.239759

                     E (Thermal)             CV                S
                      KCal/Mol        Cal/Mol-Kelvin    Cal/Mol-Kelvin
 Total                  135.799             33.750             93.488
 Electronic               0.000              0.000              0.000
 Translational            0.889              2.981             39.751
 Rotational               0.889              2.981             28.035
 Vibrational            134.022             27.789             25.702
 Vibration     1          0.596              1.974              4.500
 Vibration     2          0.601              1.957              3.693
 Vibration     3          0.608              1.935              3.137
 Vibration     4          0.627              1.873              2.379
 Vibration     5          0.648              1.808              1.943
 Vibration     6          0.660              1.772              1.770
 Vibration     7          0.681              1.708              1.526
 Vibration     8          0.687              1.691              1.469
 Vibration     9          0.725              1.582              1.181
 Vibration    10          0.794              1.398              0.848
 Vibration    11          0.824              1.324              0.747
 Vibration    12          0.891              1.169              0.573

 Optimization completed.
    -- Stationary point found.
 Normal termination of Gaussian 16 at Mon Aug 24 16:56:56 2020.
 Gaussian 16:  ES64L-G16RevA.03 25-Dec-2016

 ----------------------------------------------------------------------
 # TD(NStates=10, Root=1) B3LYP/6-31G* scf=qc volume pop=NPA density=cu
 rrent Geom=AllCheck Guess=Read
 ----------------------------------------------------------------------

 Structure from the checkpoint file:  "base_4_conf123.chk"
 -------------------
 Title Card Required
 -------------------
 Charge =  0 Multiplicity = 1

                         Standard orientation:
 ---------------------------------------------------------------------
 Center     Atomic      Atomic             Coordinates (Angstroms)
 Number     Number       Type             X           Y           Z
 ---------------------------------------------------------------------
      1          6           0       -2.248907   -0.590369   -0.580077
      2          6           0       -1.326862   -0.769085    0.642670
      3          7           0        0.042337   -0.270056    0.564128
      4          6           0        0.878289   -0.933032   -0.430695
      5          6           0        2.376647   -0.810361   -0.138025
      6          6           0        0.234613    1.169488    0.724738
      7          6           0        0.056633    2.074846   -0.510307
      8          1           0       -3.204590   -1.099900   -0.404046
      9          1           0       -1.805710   -1.022650   -1.484429
     10          1           0       -2.467472    0.463063   -0.782022
     11          1           0       -1.264888   -1.843633    0.867888
     12          1           0       -1.797773   -0.300436    1.516784
     13          1           0        0.686226   -0.586812   -1.464111
     14          1           0        0.606457   -1.996510   -0.414855
     15          1           0        2.734514    0.220448   -0.235414
     16          1           0        2.948676   -1.422589   -0.844536
     17          1           0        2.597918   -1.152651    0.878638
     18          1           0        1.245170    1.334380    1.121884
     19          1           0       -0.453114    1.498234    1.513839
     20          1           0        0.736097    1.790218   -1.321840
     21          1           0        0.283639    3.114230   -0.242636
     22          1           0       -0.963983    2.046080   -0.903867
 ---------------------------------------------------------------------

 SCF Done:  E(RB3LYP) =  -292.412693546     a.u. after    1 cycles

 Excitation energies and oscillator strengths:

 Excited State   1:      Singlet-A      6.3207 eV  196.16 nm  f=0.0122  <S**2>=0.000
      29 -> 30         0.70416
 This state for optimization and/or second-order correction.
 Total Energy, E(TD-HF/TD-DFT) =  -292.180412982
 Copying the excited state density for this state as the 1-particle RhoCI density.

 Excited State   2:      Singlet-A      7.2064 eV  172.05 nm  f=0.0057  <S**2>=0.000
      29 -> 31         0.65332
      29 -> 32         0.21843
      29 -> 33         0.13681

 Excited State   3:      Singlet-A      7.4267 eV  166.94 nm  f=0.0051  <S**2>=0.000
      29 -> 31        -0.21628
      29 -> 32         0.66610

 Excited State   4:      Singlet-A      7.4997 eV  165.32 nm  f=0.0183  <S**2>=0.000
      29 -> 31        -0.14372
      29 -> 33         0.68827

 Excited State   5:      Singlet-A      8.0747 eV  153.55 nm  f=0.0205  <S**2>=0.000
      29 -> 34         0.67550
      29 -> 36         0.16728

 Excited State   6:      Singlet-A      8.2531 eV  150.23 nm  f=0.0056  <S**2>=0.000
      29 -> 35         0.65520
      29 -> 36        -0.22197

 Excited State   7:      Singlet-A      8.4778 eV  146.25 nm  f=0.0121  <S**2>=0.000
      29 -> 34        -0.18146
      29 -> 35         0.21151
      29 -> 36         0.62620
      29 -> 39         0.10126

 Excited State   8:      Singlet-A      8.6424 eV  143.46 nm  f=0.0103  <S**2>=0.000
      29 -> 37         0.69458

 Excited State   9:      Singlet-A      8.8985 eV  139.33 nm  f=0.0685  <S**2>=0.000
      29 -> 38         0.69197

 Excited State  10:      Singlet-A      9.0186 eV  137.48 nm  f=0.0317  <S**2>=0.000
      29 -> 36        -0.10386
      29 -> 39         0.69413

 The electronic state is 1-A.
 Alpha  occ. eigenvalues --  -14.30963 -10.20151 -10.20089 -10.20083 -10.16956
 Alpha  occ. eigenvalues --  -10.16870 -10.16838  -0.90612  -0.75241  -0.74827
 Alpha  occ. eigenvalues --   -0.70150  -0.62986  -0.61590  -0.54627  -0.48097
 Alpha  occ. eigenvalues --   -0.46876  -0.44318  -0.41159  -0.41052  -0.40382
 Alpha  occ. eigenvalues --   -0.38530  -0.37753  -0.36706  -0.35835  -0.34552
 Alpha  occ. eigenvalues --   -0.33424  -0.32890  -0.32043  -0.19109
 Alpha virt. eigenvalues --    0.07830   0.11160   0.12019   0.12274   0.14449
 Alpha virt. eigenvalues --    0.15226   0.15774   0.16226   0.17042   0.17569
 Alpha virt. eigenvalues --    0.19069   0.20343   0.20632   0.21488   0.22328

 Mulliken charges:
               1
     1  C   -0.405067
     2  C   -0.114691
     3  N   -0.201723
     4  C   -0.056901
     5  C   -0.412269
     6  C   -0.093715
     7  C   -0.375391
     8  H    0.130462
     9  H    0.129900
    10  H    0.127730
    11  H    0.111200
    12  H    0.138821
    13  H    0.104799
    14  H    0.062588
    15  H    0.103723
    16  H    0.115984
    17  H    0.120768
    18  H    0.124112
    19  H    0.094085
    20  H    0.081419
    21  H    0.112746
    22  H    0.101421
 Sum of Mulliken charges =  -0.00000

 Dipole moment (field-independent basis, Debye):
    X=             -0.7489    Y=             -0.5363    Z=              1.1379  Tot=              1.4640
 Quadrupole moment (field-independent basis, Debye-Ang):
   XX=            -51.3777   YY=            -52.2454   ZZ=            -49.6610
   XY=              0.8786   XZ=             -0.0423   YZ=              0.5693

 Summary of Natural Population Analysis:

                                       Natural Population
                Natural  -----------------------------------------------
    Atom  No    Charge         Core      Valence    Rydberg      Total
 -----------------------------------------------------------------------
      C    1   -0.68505      1.99940     4.67556    0.01009     6.68505
      C    2   -0.30884      1.99933     4.29113    0.01838     6.30884
      N    3   -0.03814      1.99937     5.02939    0.00939     7.03814
      C    4   -0.31673      1.99930     4.30003    0.01740     6.31673
      C    5   -0.69953      1.99944     4.68877    0.01132     6.69953
      C    6   -0.31288      1.99932     4.29496    0.01860     6.31288
      C    7   -0.69277      1.99940     4.68132    0.01206     6.69277
      H    8    0.22134      0.00000     0.76743    0.01123     0.77866
      H    9    0.21266      0.00000     0.77163    0.01571     0.78734
      H   10    0.20441      0.00000     0.77456    0.02102     0.79559
      H   11    0.20429      0.00000     0.76691    0.02880     0.79571
      H   12    0.22753      0.00000     0.75666    0.01581     0.77247
      H   13    0.20064      0.00000     0.75859    0.04077     0.79936
      H   14    0.17215      0.00000     0.78834    0.03951     0.82785
      H   15    0.19175      0.00000     0.78276    0.02549     0.80825
      H   16    0.21299      0.00000     0.77311    0.01390     0.78701
      H   17    0.21393      0.00000     0.77530    0.01078     0.78607
      H   18    0.21868      0.00000     0.75660    0.02472     0.78132
      H   19    0.19561      0.00000     0.77664    0.02776     0.80439
      H   20    0.17756      0.00000     0.78963    0.03280     0.82244
      H   21    0.21254      0.00000     0.77254    0.01492     0.78746
      H   22    0.18786      0.00000     0.78822    0.02392     0.81214
 =======================================================================
   * Total *   -0.00000     13.99557    43.56008    0.44436    58.00000

 Normal termination of Gaussian 16 at Mon Aug 24 17:01:23 2020.
