 Gaussian 16, Revision A.03,

 ---------------------------------
 # opt=CalcAll B3LYP/6-31G* scf=qc
 ---------------------------------

 -------------------
 Title Card Required
 -------------------
 Symbolic Z-matrix:
 Charge =  0 Multiplicity = 1

 SCF Done:  E(RB3LYP) =  -292.408071497     a.u. after    7 cycles
 SCF Done:  E(RB3LYP) =  -292.414512424     a.u. after   13 cycles
 SCF Done:  E(RB3LYP) =  -292.415890277     a.u. after   11 cycles
 SCF Done:  E(RB3LYP) =  -292.416128533     a.u. after    9 cycles
 SCF Done:  E(RB3LYP) =  -292.416135017     a.u. after    3 cycles
 SCF Done:  E(RB3LYP) =  -292.416134938     a.u. after    2 cycles
 Optimization completed.
    -- Stationary point found.
 Normal termination of Gaussian 16 at Mon Aug 24 16:42:06 2020.

 ----------------------------------------------------------------------
 # freq B3LYP/6-31G* scf=qc volume NMR pop=NPA density=current Geom=All
 Check Guess=Read
 ----------------------------------------------------------------------

 Structure from the checkpoint file:  "base_4_conf172.chk"
 -------------------
 Title Card Required
 -------------------
 Charge =  0 Multiplicity = 1

 SCF Done:  E(RB3LYP) =  -292.416134938     a.u. after    1 cycles

      1  C    Isotropic =   174.0881   Anisotropy =    22.7850

      2  C    Isotropic =   142.0898   Anisotropy =    47.1377

      3  N    Isotropic =   200.5694   Anisotropy =    11.0568

      4  C    Isotropic =   142.0977   Anisotropy =    47.1353

      5  C    Isotropic =   174.0975   Anisotropy =    22.7768

      6  C    Isotropic =   142.1104   Anisotropy =    47.1286

      7  C    Isotropic =   174.0937   Anisotropy =    22.7817

      8  H    Isotropic =    31.3369   Anisotropy =     9.9641

      9  H    Isotropic =    31.1002   Anisotropy =     7.8360

     10  H    Isotropic =    31.0143   Anisotropy =     6.5987

     11  H    Isotropic =    29.6388   Anisotropy =     5.6425

     12  H    Isotropic =    30.0831   Anisotropy =     7.0732

     13  H    Isotropic =    30.0837   Anisotropy =     7.0752

     14  H    Isotropic =    29.6392   Anisotropy =     5.6436

     15  H    Isotropic =    31.0134   Anisotropy =     6.5994

     16  H    Isotropic =    31.3368   Anisotropy =     9.9640

     17  H    Isotropic =    31.0991   Anisotropy =     7.8390

     18  H    Isotropic =    30.0844   Anisotropy =     7.0767

     19  H    Isotropic =    29.6384   Anisotropy =     5.6424

     20  H    Isotropic =    31.0143   Anisotropy =     6.5974

     21  H    Isotropic =    31.3376   Anisotropy =     9.9654

     22  H    Isotropic =    31.0989   Anisotropy =     7.8403

  Exact polarizability:  77.327   0.000  77.327   0.000  -0.000  64.626
 Approx polarizability:  97.941   0.001  97.942   0.001  -0.001  92.491

                      1                      2                      3
                      A                      A                      A
 Frequencies --     89.1676                89.7347                92.0156
 Red. masses --      1.9623                 1.9648                 2.0035
 Frc consts  --      0.0092                 0.0093                 0.0100
 IR Inten    --      0.1954                 0.1960                 0.0134

                      4                      5                      6
                      A                      A                      A
 Frequencies --    192.5970               219.3171               220.0072
 Red. masses --      1.2763                 1.1940                 1.1934
 Frc consts  --      0.0279                 0.0338                 0.0340
 IR Inten    --      0.6482                 0.0347                 0.0350

                      7                      8                      9
                      A                      A                      A
 Frequencies --    304.2196               315.4919               315.5389
 Red. masses --      1.8036                 1.9990                 2.0026
 Frc consts  --      0.0983                 0.1172                 0.1175
 IR Inten    --      1.1716                 0.3224                 0.3252

                     10                     11                     12
                      A                      A                      A
 Frequencies --    437.5146               475.2943               475.4373
 Red. masses --      2.8350                 2.5140                 2.5150
 Frc consts  --      0.3197                 0.3346                 0.3349
 IR Inten    --      3.3424                 2.2722                 2.2743

                     13                     14                     15
                      A                      A                      A
 Frequencies --    752.9448               808.7884               808.8277
 Red. masses --      2.2411                 1.1535                 1.1535
 Frc consts  --      0.7486                 0.4446                 0.4446
 IR Inten    --     11.6111                 3.6251                 3.6142

                     16                     17                     18
                      A                      A                      A
 Frequencies --    819.3054               935.7858               935.8313
 Red. masses --      1.1889                 1.9301                 1.9300
 Frc consts  --      0.4702                 0.9958                 0.9959
 IR Inten    --      0.0488                 1.3184                 1.3118

                     19                     20                     21
                      A                      A                      A
 Frequencies --   1030.4138              1093.2108              1093.3518
 Red. masses --      2.5597                 2.5930                 2.5885
 Frc consts  --      1.6012                 1.8258                 1.8232
 IR Inten    --      4.8042                28.2088                28.0792

                     22                     23                     24
                      A                      A                      A
 Frequencies --   1102.0286              1113.7661              1113.8508
 Red. masses --      1.6505                 1.6678                 1.6684
 Frc consts  --      1.1810                 1.2190                 1.2196
 IR Inten    --      3.7742                 8.4166                 8.2823

                     25                     26                     27
                      A                      A                      A
 Frequencies --   1184.8150              1249.3602              1249.5339
 Red. masses --      1.7406                 2.2347                 2.2345
 Frc consts  --      1.4396                 2.0551                 2.0555
 IR Inten    --      9.2990                20.7575                20.8222

                     28                     29                     30
                      A                      A                      A
 Frequencies --   1336.3878              1344.6333              1344.9499
 Red. masses --      1.1074                 1.2106                 1.2099
 Frc consts  --      1.1653                 1.2897                 1.2894
 IR Inten    --      2.6480                24.7729                24.6793

                     31                     32                     33
                      A                      A                      A
 Frequencies --   1415.0281              1415.1308              1428.9688
 Red. masses --      1.2915                 1.2908                 1.2453
 Frc consts  --      1.5237                 1.5230                 1.4982
 IR Inten    --      9.0197                 8.9497                 0.1665

                     34                     35                     36
                      A                      A                      A
 Frequencies --   1443.7013              1443.7360              1445.7296
 Red. masses --      1.3017                 1.3016                 1.3911
 Frc consts  --      1.5985                 1.5984                 1.7131
 IR Inten    --     18.2339                18.1443                13.9980

                     37                     38                     39
                      A                      A                      A
 Frequencies --   1515.4788              1515.5622              1516.2433
 Red. masses --      1.0556                 1.0556                 1.0561
 Frc consts  --      1.4284                 1.4286                 1.4305
 IR Inten    --      1.6778                 1.6806                 1.1415

                     40                     41                     42
                      A                      A                      A
 Frequencies --   1522.7117              1529.9962              1530.0915
 Red. masses --      1.0466                 1.0429                 1.0427
 Frc consts  --      1.4297                 1.4384                 1.4383
 IR Inten    --      1.3096                 1.2702                 1.2504

                     43                     44                     45
                      A                      A                      A
 Frequencies --   1541.4199              1541.5444              1546.6549
 Red. masses --      1.0756                 1.0757                 1.0861
 Frc consts  --      1.5057                 1.5061                 1.5308
 IR Inten    --      2.8512                 2.8791                 7.1156

                     46                     47                     48
                      A                      A                      A
 Frequencies --   2923.5079              2923.5526              2935.7498
 Red. masses --      1.0747                 1.0747                 1.0742
 Frc consts  --      5.4117                 5.4118                 5.4548
 IR Inten    --     18.5886                18.6030               203.8812

                     49                     50                     51
                      A                      A                      A
 Frequencies --   3051.2743              3051.2974              3051.5917
 Red. masses --      1.0361                 1.0361                 1.0361
 Frc consts  --      5.6832                 5.6834                 5.6849
 IR Inten    --     28.4556                28.3978                 8.3027

                     52                     53                     54
                      A                      A                      A
 Frequencies --   3087.3645              3087.6136              3090.0991
 Red. masses --      1.0889                 1.0889                 1.0844
 Frc consts  --      6.1151                 6.1161                 6.1007
 IR Inten    --     21.7696                21.5495                 0.2581

                     55                     56                     57
                      A                      A                      A
 Frequencies --   3113.8693              3117.7325              3117.7569
 Red. masses --      1.1014                 1.0993                 1.0993
 Frc consts  --      6.2921                 6.2957                 6.2958
 IR Inten    --      3.4245                64.2191                64.3221

                     58                     59                     60
                      A                      A                      A
 Frequencies --   3129.1954              3129.9529              3129.9721
 Red. masses --      1.1030                 1.1026                 1.1026
 Frc consts  --      6.3632                 6.3641                 6.3642
 IR Inten    --     60.3030                32.6653                32.6142

 - Thermochemistry -
 -------------------
 Temperature   298.150 Kelvin.  Pressure   1.00000 Atm.
 Atom     1 has atomic number  6 and mass  12.00000

 Molecular mass:   101.12045 amu.
 Principal axes and moments of inertia in atomic units:
                           1         2         3
     Eigenvalues --   787.45389 787.566031370.46798
           X            0.99994   0.01084  -0.00000
           Y           -0.01084   0.99994  -0.00000
           Z            0.00000   0.00000   1.00000
 This molecule is an asymmetric top.
 Rotational symmetry number  1.
 Warning -- assumption of classical behavior for rotation
           may cause significant error
 Rotational temperatures (Kelvin)      0.10999     0.10998     0.06320
 Rotational constants (GHZ):           2.29187     2.29154     1.31688
 Zero-point vibrational energy     543323.8 (Joules/Mol)
                                  129.85751 (Kcal/Mol)
 Warning -- explicit consideration of  12 degrees of freedom as
           vibrations may cause significant error
 Vibrational temperatures:    128.29   129.11   132.39   277.10   315.55
          (Kelvin)            316.54   437.70   453.92   453.99   629.49
                              683.84   684.05  1083.32  1163.67  1163.72
                             1178.80  1346.39  1346.45  1482.54  1572.89
                             1573.09  1585.57  1602.46  1602.58  1704.68
                             1797.55  1797.80  1922.76  1934.63  1935.08
                             2035.91  2036.06  2055.97  2077.16  2077.21
                             2080.08  2180.44  2180.56  2181.54  2190.84
                             2201.32  2201.46  2217.76  2217.94  2225.29
                             4206.28  4206.34  4223.89  4390.10  4390.14
                             4390.56  4442.03  4442.39  4445.96  4480.16
                             4485.72  4485.76  4502.21  4503.30  4503.33

 Zero-point correction=                           0.206941 (Hartree/Particle)
 Thermal correction to Energy=                    0.216365
 Thermal correction to Enthalpy=                  0.217309
 Thermal correction to Gibbs Free Energy=         0.173002
 Sum of electronic and zero-point Energies=           -292.209194
 Sum of electronic and thermal Energies=              -292.199770
 Sum of electronic and thermal Enthalpies=            -292.198826
 Sum of electronic and thermal Free Energies=         -292.243133

                     E (Thermal)             CV                S
                      KCal/Mol        Cal/Mol-Kelvin    Cal/Mol-Kelvin
 Total                  135.771             33.647             93.253
 Electronic               0.000              0.000              0.000
 Translational            0.889              2.981             39.751
 Rotational               0.889              2.981             28.232
 Vibrational            133.994             27.685             25.270
 Vibration     1          0.602              1.957              3.678
 Vibration     2          0.602              1.956              3.666
 Vibration     3          0.602              1.955              3.617
 Vibration     4          0.635              1.850              2.203
 Vibration     5          0.647              1.812              1.965
 Vibration     6          0.647              1.811              1.959
 Vibration     7          0.695              1.666              1.394
 Vibration     8          0.703              1.644              1.333
 Vibration     9          0.703              1.644              1.333
 Vibration    10          0.798              1.388              0.834
 Vibration    11          0.832              1.305              0.723
 Vibration    12          0.832              1.305              0.722

                           ! Non-Optimized Parameters !
 Normal termination of Gaussian 16 at Mon Aug 24 16:44:57 2020.
 Gaussian 16:  ES64L-G16RevA.03 25-Dec-2016

 ----------------------------------------------------------------------
 # TD(NStates=10, Root=1) B3LYP/6-31G* scf=qc volume pop=NPA density=cu
 rrent Geom=AllCheck Guess=Read
 ----------------------------------------------------------------------

 Structure from the checkpoint file:  "base_4_conf173.chk"
 -------------------
 Title Card Required
 -------------------
 Charge =  0 Multiplicity = 1

                         Standard orientation:
 ---------------------------------------------------------------------
 Center     Atomic      Atomic             Coordinates (Angstroms)
 Number     Number       Type             X           Y           Z
 ---------------------------------------------------------------------
      1          6           0        1.444545   -1.989554   -0.439154
      2          6           0        1.173795   -0.771941    0.447008
      3          7           0        0.000001   -0.000021    0.019995
      4          6           0       -1.255411   -0.630760    0.446681
      5          6           0       -2.445489   -0.255909   -0.438990
      6          6           0        0.081570    1.402523    0.446872
      7          6           0        1.001019    2.245665   -0.439064
      8          1           0        2.347524   -2.512722   -0.102811
      9          1           0        1.587835   -1.676950   -1.478610
     10          1           0        0.620025   -2.710671   -0.416588
     11          1           0        2.046531   -0.112809    0.398147
     12          1           0        1.085454   -1.084601    1.506655
     13          1           0       -1.481929   -0.398721    1.506528
     14          1           0       -1.120972   -1.716106    0.396993
     15          1           0       -2.657685    0.818704   -0.415946
     16          1           0       -3.349974   -0.776371   -0.102489
     17          1           0       -2.246936   -0.535979   -1.478637
     18          1           0        0.396156    1.482490    1.506615
     19          1           0       -0.925561    1.828844    0.397585
     20          1           0        2.037601    1.891605   -0.416786
     21          1           0        1.003210    3.289098   -0.102241
     22          1           0        0.658539    2.214194   -1.478507
 ---------------------------------------------------------------------

 SCF Done:  E(RB3LYP) =  -292.416134938     a.u. after    1 cycles

 Excitation energies and oscillator strengths:

 Excited State   1:      Singlet-A      7.0773 eV  175.19 nm  f=0.0126  <S**2>=0.000
      29 -> 30         0.70386
 This state for optimization and/or second-order correction.
 Total Energy, E(TD-HF/TD-DFT) =  -292.156048166
 Copying the excited state density for this state as the 1-particle RhoCI density.

 Excited State   2:      Singlet-A      7.5151 eV  164.98 nm  f=0.0274  <S**2>=0.000
      29 -> 31         0.70311

 Excited State   3:      Singlet-A      7.5153 eV  164.98 nm  f=0.0274  <S**2>=0.000
      29 -> 32         0.70311

 Excited State   4:      Singlet-A      8.1034 eV  153.00 nm  f=0.0941  <S**2>=0.000
      29 -> 33         0.70174

 Excited State   5:      Singlet-A      8.5688 eV  144.69 nm  f=0.0577  <S**2>=0.000
      29 -> 34         0.61900
      29 -> 35        -0.31130

 Excited State   6:      Singlet-A      8.5691 eV  144.69 nm  f=0.0577  <S**2>=0.000
      29 -> 34         0.31133
      29 -> 35         0.61901

 Excited State   7:      Singlet-A      8.9272 eV  138.88 nm  f=0.0308  <S**2>=0.000
      29 -> 36         0.69185
      29 -> 42         0.11209

 Excited State   8:      Singlet-A      9.2426 eV  134.14 nm  f=0.0237  <S**2>=0.000
      29 -> 37         0.69577

 Excited State   9:      Singlet-A      9.2437 eV  134.13 nm  f=0.0237  <S**2>=0.000
      29 -> 38         0.69578

 Excited State  10:      Singlet-A      9.5176 eV  130.27 nm  f=0.0027  <S**2>=0.000
      29 -> 39         0.69746

 The electronic state is 1-A.
 Alpha  occ. eigenvalues --  -14.31322 -10.20091 -10.20091 -10.20090 -10.16944
 Alpha  occ. eigenvalues --  -10.16943 -10.16943  -0.90991  -0.75288  -0.75288
 Alpha  occ. eigenvalues --   -0.69977  -0.61620  -0.61619  -0.55679  -0.47064
 Alpha  occ. eigenvalues --   -0.47063  -0.44617  -0.42749  -0.42749  -0.39222
 Alpha  occ. eigenvalues --   -0.37623  -0.36849  -0.36848  -0.34704  -0.34703
 Alpha  occ. eigenvalues --   -0.34595  -0.32130  -0.32129  -0.20407
 Alpha virt. eigenvalues --    0.09209   0.10911   0.10912   0.13031   0.14880
 Alpha virt. eigenvalues --    0.14880   0.16114   0.17140   0.17144   0.18083
 Alpha virt. eigenvalues --    0.18085   0.19356   0.19902   0.22218   0.22350

 Mulliken charges:
               1
     1  C   -0.433414
     2  C   -0.086699
     3  N   -0.177243
     4  C   -0.086591
     5  C   -0.433436
     6  C   -0.086667
     7  C   -0.433502
     8  H    0.126828
     9  H    0.132927
    10  H    0.114474
    11  H    0.066400
    12  H    0.138566
    13  H    0.138566
    14  H    0.066223
    15  H    0.114494
    16  H    0.126790
    17  H    0.132918
    18  H    0.138587
    19  H    0.066402
    20  H    0.114556
    21  H    0.126893
    22  H    0.132929
 Sum of Mulliken charges =  -0.00000

 Dipole moment (field-independent basis, Debye):
    X=              0.0017    Y=              0.0029    Z=              0.7713  Tot=              0.7713
 Quadrupole moment (field-independent basis, Debye-Ang):
   XX=            -52.6342   YY=            -52.6329   ZZ=            -48.3278
   XY=             -0.0002   XZ=             -0.0000   YZ=             -0.0002

 Summary of Natural Population Analysis:

                                       Natural Population
                Natural  -----------------------------------------------
    Atom  No    Charge         Core      Valence    Rydberg      Total
 -----------------------------------------------------------------------
      C    1   -0.70513      1.99944     4.69211    0.01359     6.70513
      C    2   -0.32019      1.99931     4.30299    0.01789     6.32019
      N    3   -0.03951      1.99928     5.03017    0.01006     7.03951
      C    4   -0.32024      1.99931     4.30303    0.01790     6.32024
      C    5   -0.70513      1.99944     4.69211    0.01359     6.70513
      C    6   -0.32020      1.99931     4.30300    0.01789     6.32020
      C    7   -0.70513      1.99944     4.69211    0.01359     6.70513
      H    8    0.21824      0.00000     0.77081    0.01095     0.78176
      H    9    0.21851      0.00000     0.77183    0.00966     0.78149
      H   10    0.19866      0.00000     0.78086    0.02048     0.80134
      H   11    0.16769      0.00000     0.78810    0.04421     0.83231
      H   12    0.23541      0.00000     0.73966    0.02494     0.76459
      H   13    0.23544      0.00000     0.73963    0.02494     0.76456
      H   14    0.16755      0.00000     0.78818    0.04427     0.83245
      H   15    0.19868      0.00000     0.78085    0.02046     0.80132
      H   16    0.21821      0.00000     0.77083    0.01096     0.78179
      H   17    0.21851      0.00000     0.77183    0.00967     0.78149
      H   18    0.23544      0.00000     0.73963    0.02493     0.76456
      H   19    0.16769      0.00000     0.78809    0.04422     0.83231
      H   20    0.19872      0.00000     0.78083    0.02045     0.80128
      H   21    0.21830      0.00000     0.77077    0.01093     0.78170
      H   22    0.21850      0.00000     0.77183    0.00967     0.78150
 =======================================================================
   * Total *   -0.00000     13.99553    43.56923    0.43524    58.00000

 Normal termination of Gaussian 16 at Mon Aug 24 16:49:27 2020.
