 Gaussian 16, Revision A.03,

 ---------------------------------
 # opt=CalcFc B3LYP/6-31G* scf=xqc
 ---------------------------------

 -------------------
 Title Card Required
 -------------------
 Symbolic Z-matrix:
 Charge =  0 Multiplicity = 1

 SCF Done:  E(RB3LYP) =  -473.300586184     A.U. after   14 cycles
 SCF Done:  E(RB3LYP) =  -473.301236849     A.U. after   14 cycles
 SCF Done:  E(RB3LYP) =  -473.302943385     A.U. after   15 cycles
 SCF Done:  E(RB3LYP) =  -473.261822802     A.U. after   14 cycles
 SCF Done:  E(RB3LYP) =  -473.303162298     A.U. after   11 cycles
 SCF Done:  E(RB3LYP) =  -473.303213794     A.U. after   11 cycles
 SCF Done:  E(RB3LYP) =  -473.303223914     A.U. after   10 cycles
 Optimization completed.
    -- Stationary point found.

 1\1\GINC-DELLA-R2C2N5\FOpt\RB3LYP\6-31G(d)\C8H7N3\BJS4\04-Feb-2019\0\\
 # opt=CalcFc B3LYP/6-31G* scf=xqc\\Title Card Required\\0,1\C,-0.75602
 36316,1.1307097635,0.2041240987\C,0.635504514,1.1243353376,0.281950785
 \N,1.3952613241,0.0361990084,0.1057137167\C,0.7516163646,-1.1048495073
 ,-0.1700839977\C,-0.6325468752,-1.2160276604,-0.2893475376\C,-1.409717
 5448,-0.0698264917,-0.0915324322\N,-2.8176376424,-0.1258720938,-0.1862
 047156\C,-3.6275716229,-1.1940493265,0.1434283502\H,-3.2212233455,-2.1
 139724105,0.540301745\N,-4.8981622413,-0.9287013587,-0.0315961548\C,-4

 Normal termination of Gaussian 16 at Mon Feb  4 15:57:13 2019.

 ----------------------------------------------------------------------
 # freq B3LYP/6-31G* volume NMR pop=NPA density=current Geom=AllCheck G
 uess=Read
 ----------------------------------------------------------------------

 Structure from the checkpoint file:  "direct_arylation_imidazole_262.chk"
 -------------------
 Title Card Required
 -------------------
 Charge =  0 Multiplicity = 1

 SCF Done:  E(RB3LYP) =  -473.303223914     A.U. after    1 cycles

      1  C    Isotropic =    80.7626   Anisotropy =   135.0048

      2  C    Isotropic =    44.4683   Anisotropy =   156.9101

      3  N    Isotropic =   -56.3930   Anisotropy =   536.8918

      4  C    Isotropic =    44.5537   Anisotropy =   156.8837

      5  C    Isotropic =    80.9228   Anisotropy =   135.6868

      6  C    Isotropic =    52.4389   Anisotropy =   148.2850

      7  N    Isotropic =    70.0104   Anisotropy =   134.8210

      8  C    Isotropic =    63.5756   Anisotropy =    81.6168

      9  H    Isotropic =    24.7510   Anisotropy =     5.0793

     10  N    Isotropic =   -15.9323   Anisotropy =   394.7800

     11  C    Isotropic =    63.7089   Anisotropy =   108.0168

     12  H    Isotropic =    25.1717   Anisotropy =     3.5743

     13  C    Isotropic =    80.0401   Anisotropy =    93.5857

     14  H    Isotropic =    25.3445   Anisotropy =     4.7934

     15  H    Isotropic =    25.3440   Anisotropy =     8.2206

     16  H    Isotropic =    23.5377   Anisotropy =     6.3922

     17  H    Isotropic =    23.5394   Anisotropy =     6.3673

     18  H    Isotropic =    25.2347   Anisotropy =     7.8655

  Exact polarizability: 141.874   1.465  99.404   0.643  -0.230  41.613
 Approx polarizability: 221.919  -2.534 175.073  -0.626  -0.461  65.844

                      1                      2                      3
                      A                      A                      A
 Frequencies --     70.0404               101.8115               149.1384
 Red. masses --      3.7703                 6.2645                 4.8936
 Frc consts  --      0.0109                 0.0383                 0.0641
 IR Inten    --      1.7298                 2.9365                 3.4845

                      4                      5                      6
                      A                      A                      A
 Frequencies --    285.6620               357.0866               394.7981
 Red. masses --      6.2308                 7.1469                 2.7171
 Frc consts  --      0.2996                 0.5369                 0.2495
 IR Inten    --      1.3208                 0.0069                 0.4391

                      7                      8                      9
                      A                      A                      A
 Frequencies --    437.1522               553.8342               632.8260
 Red. masses --      4.4714                 3.2443                 3.8719
 Frc consts  --      0.5035                 0.5863                 0.9136
 IR Inten    --      0.3453                15.4530                 1.8866

                     10                     11                     12
                      A                      A                      A
 Frequencies --    669.6462               683.3057               700.4724
 Red. masses --      3.9333                 6.3579                 6.7600
 Frc consts  --      1.0392                 1.7490                 1.9542
 IR Inten    --     17.5141                 1.7841                27.1405

                     13                     14                     15
                      A                      A                      A
 Frequencies --    723.9423               752.1607               808.4311
 Red. masses --      1.2259                 3.6808                 1.3476
 Frc consts  --      0.3785                 1.2269                 0.5189
 IR Inten    --     18.3845                 0.5040                27.0956

                     16                     17                     18
                      A                      A                      A
 Frequencies --    842.7551               861.8432               870.4598
 Red. masses --      1.5129                 1.3438                 1.2460
 Frc consts  --      0.6331                 0.5881                 0.5563
 IR Inten    --     29.3176                 5.1169                 0.0377

                     19                     20                     21
                      A                      A                      A
 Frequencies --    911.4487               975.0754               988.1215
 Red. masses --      6.4705                 1.3013                 5.6394
 Frc consts  --      3.1670                 0.7290                 3.2442
 IR Inten    --      9.4501                 0.6003                 5.3353

                     22                     23                     24
                      A                      A                      A
 Frequencies --    994.4407              1013.1833              1075.6353
 Red. masses --      1.4452                 7.4143                 1.7765
 Frc consts  --      0.8421                 4.4843                 1.2110
 IR Inten    --      0.0828                 9.9853                75.1921

                     25                     26                     27
                      A                      A                      A
 Frequencies --   1094.4608              1121.6634              1136.6576
 Red. masses --      2.0053                 1.5053                 1.4587
 Frc consts  --      1.4153                 1.1158                 1.1104
 IR Inten    --      0.0262                 0.8645                 5.5933

                     28                     29                     30
                      A                      A                      A
 Frequencies --   1150.6425              1256.7272              1272.0334
 Red. masses --      3.5674                 1.2891                 2.6431
 Frc consts  --      2.7828                 1.1996                 2.5198
 IR Inten    --     13.0297                14.9982                12.7198

                     31                     32                     33
                      A                      A                      A
 Frequencies --   1291.2956              1320.5653              1343.8301
 Red. masses --      1.7468                 7.3104                 2.3909
 Frc consts  --      1.7161                 7.5112                 2.5439
 IR Inten    --     15.8188                 1.0580                81.5649

                     34                     35                     36
                      A                      A                      A
 Frequencies --   1383.5570              1427.9724              1465.1998
 Red. masses --      1.4569                 4.9498                 2.2485
 Frc consts  --      1.6431                 5.9467                 2.8441
 IR Inten    --      2.0507                 3.1755                18.2416

                     37                     38                     39
                      A                      A                      A
 Frequencies --   1524.9483              1553.6406              1566.6322
 Red. masses --      3.1674                 2.6093                 4.6418
 Frc consts  --      4.3397                 3.7109                 6.7124
 IR Inten    --     88.4233               128.2888                15.5551

                     40                     41                     42
                      A                      A                      A
 Frequencies --   1628.6062              1649.5302              3178.5541
 Red. masses --      7.3977                 5.3986                 1.0882
 Frc consts  --     11.5605                 8.6547                 6.4776
 IR Inten    --     30.1728               179.6957                31.1965

                     43                     44                     45
                      A                      A                      A
 Frequencies --   3181.2156              3223.6021              3223.7665
 Red. masses --      1.0915                 1.0937                 1.0932
 Frc consts  --      6.5083                 6.6962                 6.6941
 IR Inten    --     18.6455                 2.8345                 5.4720

                     46                     47                     48
                      A                      A                      A
 Frequencies --   3266.7296              3276.8411              3303.2031
 Red. masses --      1.0928                 1.0959                 1.1026
 Frc consts  --      6.8709                 6.9331                 7.0884
 IR Inten    --      6.3443                 0.1660                 1.4307

 - Thermochemistry -
 -------------------
 Temperature   298.150 Kelvin.  Pressure   1.00000 Atm.
 Atom     1 has atomic number  6 and mass  12.00000

 Molecular mass:   145.06400 amu.
 Principal axes and moments of inertia in atomic units:
                           1         2         3
     Eigenvalues --   485.982152595.585493012.84584
           X            0.99997   0.00755   0.00231
           Y           -0.00754   0.99997  -0.00200
           Z           -0.00233   0.00198   1.00000
 This molecule is an asymmetric top.
 Rotational symmetry number  1.
 Warning -- assumption of classical behavior for rotation
           may cause significant error
 Rotational temperatures (Kelvin)      0.17822     0.03337     0.02875
 Rotational constants (GHZ):           3.71360     0.69531     0.59902
 Zero-point vibrational energy     369018.9 (Joules/Mol)
                                   88.19764 (Kcal/Mol)
 Warning -- explicit consideration of   8 degrees of freedom as
           vibrations may cause significant error
 Vibrational temperatures:    100.77   146.48   214.58   411.00   513.77
          (Kelvin)            568.03   628.96   796.84   910.50   963.47
                              983.12  1007.82  1041.59  1082.19  1163.15
                             1212.54  1240.00  1252.40  1311.37  1402.92
                             1421.69  1430.78  1457.74  1547.60  1574.68
                             1613.82  1635.40  1655.52  1808.15  1830.17
                             1857.89  1900.00  1933.47  1990.63  2054.53
                             2108.10  2194.06  2235.34  2254.03  2343.20
                             2373.31  4573.23  4577.06  4638.04  4638.28
                             4700.10  4714.64  4752.57

 Zero-point correction=                           0.140552 (Hartree/Particle)
 Thermal correction to Energy=                    0.148501
 Thermal correction to Enthalpy=                  0.149446
 Thermal correction to Gibbs Free Energy=         0.106954
 Sum of electronic and zero-point Energies=           -473.162672
 Sum of electronic and thermal Energies=              -473.154723
 Sum of electronic and thermal Enthalpies=            -473.153778
 Sum of electronic and thermal Free Energies=         -473.196270

                     E (Thermal)             CV                S
                      KCal/Mol        Cal/Mol-Kelvin    Cal/Mol-Kelvin
 Total                   93.186             31.108             89.430
 Electronic               0.000              0.000              0.000
 Translational            0.889              2.981             40.827
 Rotational               0.889              2.981             29.720
 Vibrational             91.409             25.147             18.883
 Vibration     1          0.598              1.968              4.152
 Vibration     2          0.604              1.948              3.419
 Vibration     3          0.618              1.904              2.683
 Vibration     4          0.683              1.700              1.500
 Vibration     5          0.732              1.561              1.135
 Vibration     6          0.762              1.481              0.982
 Vibration     7          0.797              1.389              0.836
 Vibration     8          0.909              1.131              0.536

 Optimization completed.
    -- Stationary point found.

 1\1\GINC-DELLA-R2C2N5\Freq\RB3LYP\6-31G(d)\C8H7N3\BJS4\04-Feb-2019\0\\
 # freq B3LYP/6-31G* volume NMR pop=NPA density=current Geom=AllCheck G
 uess=Read\\Title Card Required\\0,1\C,-0.7560236316,1.1307097635,0.204
 1240987\C,0.635504514,1.1243353376,0.281950785\N,1.3952613241,0.036199
 0084,0.1057137167\C,0.7516163646,-1.1048495073,-0.1700839977\C,-0.6325
 468752,-1.2160276604,-0.2893475376\C,-1.4097175448,-0.0698264917,-0.09
 15324322\N,-2.8176376424,-0.1258720938,-0.1862047156\C,-3.6275716229,-
 1.1940493265,0.1434283502\H,-3.2212233455,-2.1139724105,0.540301745\N,

 Normal termination of Gaussian 16 at Mon Feb  4 15:59:59 2019.
 Gaussian 16:  ES64L-G16RevA.03 25-Dec-2016

 ----------------------------------------------------------------------
 # TD(NStates=10, Root=1) B3LYP/6-31G* volume pop=NPA density=current G
 eom=AllCheck Guess=Read
 ----------------------------------------------------------------------

 Structure from the checkpoint file:  "direct_arylation_imidazole_263.chk"
 -------------------
 Title Card Required
 -------------------
 Charge =  0 Multiplicity = 1

                         Standard orientation:
 ---------------------------------------------------------------------
 Center     Atomic      Atomic             Coordinates (Angstroms)
 Number     Number       Type             X           Y           Z
 ---------------------------------------------------------------------
      1          6           0       -1.129366    1.181040   -0.238242
      2          6           0       -2.521710    1.120002   -0.228290
      3          7           0       -3.225597    0.002602   -0.008540
      4          6           0       -2.521603   -1.112560    0.221983
      5          6           0       -1.129382   -1.169323    0.253418
      6          6           0       -0.411766    0.006808    0.011249
      7          7           0        1.000435    0.006099    0.016847
      8          6           0        1.829210   -1.028986   -0.367061
      9          1           0        1.435009   -1.963715   -0.740923
     10          7           0        3.096931   -0.714050   -0.271442
     11          6           0        3.112778    0.582822    0.203036
     12          1           0        4.043645    1.099241    0.394208
     13          6           0        1.840187    1.052989    0.379309
     14          1           0        1.453449    1.985029    0.760746
     15          1           0       -0.619919    2.113230   -0.457239
     16          1           0       -3.101754    2.021382   -0.417923
     17          1           0       -3.101510   -2.015264    0.405430
     18          1           0       -0.621380   -2.099204    0.485244
 ---------------------------------------------------------------------

 SCF Done:  E(RB3LYP) =  -473.303223914     A.U. after    1 cycles

 Excitation energies and oscillator strengths:

 Excited State   1:      Singlet-A      4.6108 eV  268.90 nm  f=0.0430  <S**2>=0.000
      36 -> 39         0.12061
      38 -> 39         0.68638
 This state for optimization and/or second-order correction.
 Total Energy, E(TD-HF/TD-DFT) =  -473.133779577
 Copying the excited state density for this state as the 1-particle RhoCI density.

 Excited State   2:      Singlet-A      4.8712 eV  254.53 nm  f=0.0049  <S**2>=0.000
      35 -> 39        -0.13675
      36 -> 39         0.67392
      38 -> 39        -0.12748

 Excited State   3:      Singlet-A      4.9969 eV  248.12 nm  f=0.0001  <S**2>=0.000
      34 -> 39         0.13307
      36 -> 40         0.20376
      38 -> 40         0.64948

 Excited State   4:      Singlet-A      5.1666 eV  239.97 nm  f=0.0000  <S**2>=0.000
      34 -> 39        -0.10151
      35 -> 40        -0.16651
      36 -> 40         0.63616
      37 -> 40         0.13215
      38 -> 40        -0.17586

 Excited State   5:      Singlet-A      5.3781 eV  230.53 nm  f=0.0090  <S**2>=0.000
      34 -> 39         0.10007
      35 -> 39         0.54363
      36 -> 39         0.10792
      37 -> 39        -0.10026
      37 -> 40        -0.34423
      38 -> 40        -0.16173

 Excited State   6:      Singlet-A      5.4098 eV  229.19 nm  f=0.0252  <S**2>=0.000
      34 -> 39         0.47603
      35 -> 39        -0.25119
      37 -> 39         0.26773
      37 -> 40        -0.31296

 Excited State   7:      Singlet-A      5.4978 eV  225.52 nm  f=0.2500  <S**2>=0.000
      34 -> 39        -0.17574
      35 -> 39         0.21971
      37 -> 39         0.61009

 Excited State   8:      Singlet-A      6.1826 eV  200.54 nm  f=0.0075  <S**2>=0.000
      34 -> 40        -0.30737
      35 -> 40         0.58726
      36 -> 40         0.19404
      37 -> 40        -0.13002

 Excited State   9:      Singlet-A      6.2597 eV  198.07 nm  f=0.0943  <S**2>=0.000
      33 -> 40         0.21553
      34 -> 39         0.39444
      35 -> 39         0.18997
      35 -> 40         0.12713
      37 -> 40         0.47819

 Excited State  10:      Singlet-A      6.6358 eV  186.84 nm  f=0.1558  <S**2>=0.000
      33 -> 39        -0.23521
      34 -> 40         0.48227
      35 -> 40         0.22536
      37 -> 41        -0.14814
      38 -> 41         0.32420
      38 -> 42        -0.12487

 The electronic state is 1-A.
 Alpha  occ. eigenvalues --  -14.41349 -14.34096 -14.32222 -10.27007 -10.24882
 Alpha  occ. eigenvalues --  -10.23872 -10.23865 -10.22436 -10.21686 -10.21679
 Alpha  occ. eigenvalues --  -10.20792  -1.03190  -0.95469  -0.90539  -0.80912
 Alpha  occ. eigenvalues --   -0.78019  -0.75199  -0.66882  -0.65351  -0.59911
 Alpha  occ. eigenvalues --   -0.59140  -0.57154  -0.50370  -0.49804  -0.48048
 Alpha  occ. eigenvalues --   -0.45732  -0.44686  -0.44236  -0.43764  -0.41384
 Alpha  occ. eigenvalues --   -0.40683  -0.38113  -0.32873  -0.27970  -0.27731
 Alpha  occ. eigenvalues --   -0.26781  -0.26521  -0.23822
 Alpha virt. eigenvalues --   -0.04555  -0.02748   0.02762   0.05831   0.08668
 Alpha virt. eigenvalues --    0.10820   0.11671   0.13390   0.14756   0.15335
 Alpha virt. eigenvalues --    0.16573   0.18852   0.19481   0.19843   0.21501

 Mulliken charges:
               1
     1  C   -0.195926
     2  C    0.010493
     3  N   -0.464275
     4  C    0.016997
     5  C   -0.204323
     6  C    0.241097
     7  N   -0.485260
     8  C    0.284005
     9  H    0.228732
    10  N   -0.418529
    11  C    0.014467
    12  H    0.205744
    13  C    0.123983
    14  H    0.241673
    15  H    0.088002
    16  H    0.108072
    17  H    0.111403
    18  H    0.093644
 Sum of Mulliken charges =  -0.00000

 Dipole moment (field-independent basis, Debye):
    X=              7.8343    Y=              1.7822    Z=              0.7096  Tot=              8.0657
 Quadrupole moment (field-independent basis, Debye-Ang):
   XX=            -76.2234   YY=            -54.0063   ZZ=            -64.4439
   XY=              7.7616   XZ=              2.6946   YZ=              1.5926

 Summary of Natural Population Analysis:

                                       Natural Population
                Natural  -----------------------------------------------
    Atom  No    Charge         Core      Valence    Rydberg      Total
 -----------------------------------------------------------------------
      C    1   -0.32015      1.99904     4.30776    0.01335     6.32015
      C    2   -0.01555      1.99922     3.99140    0.02493     6.01555
      N    3   -0.53680      1.99944     5.51339    0.02398     7.53680
      C    4   -0.00249      1.99922     3.97872    0.02455     6.00249
      C    5   -0.33205      1.99905     4.31899    0.01401     6.33205
      C    6   -0.03724      1.99894     4.01674    0.02157     6.03724
      N    7   -0.36420      1.99933     5.35279    0.01207     7.36420
      C    8    0.32991      1.99937     3.64319    0.02752     5.67009
      H    9    0.25614      0.00000     0.74338    0.00048     0.74386
      N   10   -0.50848      1.99951     5.48512    0.02385     7.50848
      C   11    0.04932      1.99922     3.92987    0.02158     5.95068
      H   12    0.25173      0.00000     0.74797    0.00031     0.74827
      C   13    0.11470      1.99916     3.87073    0.01541     5.88530
      H   14    0.26797      0.00000     0.73192    0.00011     0.73203
      H   15    0.21196      0.00000     0.78707    0.00097     0.78804
      H   16    0.20897      0.00000     0.79002    0.00101     0.79103
      H   17    0.21092      0.00000     0.78806    0.00103     0.78908
      H   18    0.21533      0.00000     0.78344    0.00123     0.78467
 =======================================================================
   * Total *   -0.00000     21.99150    53.78054    0.22796    76.00000

 Normal termination of Gaussian 16 at Mon Feb  4 16:03:47 2019.
