 Gaussian 16, Revision A.03,

 ---------------------------------
 # opt=CalcAll B3LYP/6-31G* scf=qc
 ---------------------------------

 -------------------
 Title Card Required
 -------------------
 Symbolic Z-matrix:
 Charge =  0 Multiplicity = 1

 SCF Done:  E(RB3LYP) =  -896.090593978     a.u. after    8 cycles
 SCF Done:  E(RB3LYP) =  -896.095623927     a.u. after   11 cycles
 SCF Done:  E(RB3LYP) =  -896.095676126     a.u. after    4 cycles
 Optimization completed.
    -- Stationary point found.
 Normal termination of Gaussian 16 at Mon Aug 24 17:21:45 2020.

 ----------------------------------------------------------------------
 # freq B3LYP/6-31G* scf=qc volume NMR pop=NPA density=current Geom=All
 Check Guess=Read
 ----------------------------------------------------------------------

 Structure from the checkpoint file:  "sulfonylfluoride_3_conf72.chk"
 -------------------
 Title Card Required
 -------------------
 Charge =  0 Multiplicity = 1

 SCF Done:  E(RB3LYP) =  -896.095676126     a.u. after    1 cycles

      1  C    Isotropic =    59.4478   Anisotropy =   186.4646

      2  C    Isotropic =    68.7966   Anisotropy =   169.5524

      3  C    Isotropic =    46.3353   Anisotropy =   158.2658

      4  N    Isotropic =   -54.4687   Anisotropy =   516.8003

      5  C    Isotropic =    37.0035   Anisotropy =   103.0044

      6  C    Isotropic =    72.2035   Anisotropy =   166.2798

      7  S    Isotropic =   218.2483   Anisotropy =   333.1867

      8  O    Isotropic =   111.2002   Anisotropy =    72.1726

      9  O    Isotropic =    98.1265   Anisotropy =    68.9899

     10  F    Isotropic =   111.0624   Anisotropy =   355.2851

     11  H    Isotropic =    24.5090   Anisotropy =     4.9473

     12  H    Isotropic =    24.9260   Anisotropy =     4.8205

     13  H    Isotropic =    23.4902   Anisotropy =     5.2439

     14  H    Isotropic =    24.4341   Anisotropy =     8.2971

  Exact polarizability: 103.105  -1.627  81.434   2.573   1.439  39.806
 Approx polarizability: 152.771  -1.383 154.166   4.854   5.064  66.575

                      1                      2                      3
                      A                      A                      A
 Frequencies --     39.8389               114.2823               176.0420
 Red. masses --      6.7437                 7.1535                 8.2353
 Frc consts  --      0.0063                 0.0550                 0.1504
 IR Inten    --      0.8693                 0.0735                 0.3547

                      4                      5                      6
                      A                      A                      A
 Frequencies --    264.9357               298.3143               333.3558
 Red. masses --      7.2492                 9.3257                10.8050
 Frc consts  --      0.2998                 0.4890                 0.7074
 IR Inten    --      1.2697                 4.0722                 0.4087

                      7                      8                      9
                      A                      A                      A
 Frequencies --    411.0187               435.9133               468.2401
 Red. masses --      3.6154                 8.1208                13.5123
 Frc consts  --      0.3599                 0.9092                 1.7455
 IR Inten    --      0.5415                 9.9097                10.2207

                     10                     11                     12
                      A                      A                      A
 Frequencies --    523.5335               581.6865               625.2056
 Red. masses --      4.3533                15.9947                 7.4237
 Frc consts  --      0.7030                 3.1886                 1.7097
 IR Inten    --     10.3897               131.7293                 4.6385

                     13                     14                     15
                      A                      A                      A
 Frequencies --    735.6509               747.3268               786.8370
 Red. masses --      8.1346                 3.9141                 1.5950
 Frc consts  --      2.5938                 1.2880                 0.5818
 IR Inten    --     24.8899                 3.6374               115.1728

                     16                     17                     18
                      A                      A                      A
 Frequencies --    805.9714               925.2766               987.0505
 Red. masses --      5.6304                 1.2615                 1.4023
 Frc consts  --      2.1549                 0.6363                 0.8049
 IR Inten    --    118.9452                 0.2753                 0.1398

                     19                     20                     21
                      A                      A                      A
 Frequencies --   1009.1451              1020.8052              1067.8974
 Red. masses --      7.3341                 1.3112                 2.7586
 Frc consts  --      4.4005                 0.8050                 1.8535
 IR Inten    --      9.0631                 0.0385                 3.3970

                     22                     23                     24
                      A                      A                      A
 Frequencies --   1108.2949              1139.0111              1185.7811
 Red. masses --      2.1158                 2.3445                 1.1748
 Frc consts  --      1.5312                 1.7921                 0.9732
 IR Inten    --     18.8536                30.4622                 6.2395

                     25                     26                     27
                      A                      A                      A
 Frequencies --   1195.4358              1320.5782              1339.8815
 Red. masses --      7.0952                 2.3637                 2.4404
 Frc consts  --      5.9741                 2.4286                 2.5814
 IR Inten    --    127.0693                 3.6951                 2.3354

                     28                     29                     30
                      A                      A                      A
 Frequencies --   1390.7099              1471.6415              1502.0051
 Red. masses --     18.3093                 2.1322                 2.0989
 Frc consts  --     20.8639                 2.7207                 2.7898
 IR Inten    --    179.2403                32.4203                10.5877

                     31                     32                     33
                      A                      A                      A
 Frequencies --   1624.3004              1638.2711              3196.1000
 Red. masses --      5.1293                 6.0496                 1.0893
 Frc consts  --      7.9733                 9.5664                 6.5560
 IR Inten    --     11.5790                14.9369                 8.4465

                     34                     35                     36
                      A                      A                      A
 Frequencies --   3209.7924              3225.1708              3249.4860
 Red. masses --      1.0902                 1.0966                 1.0941
 Frc consts  --      6.6177                 6.7206                 6.8066
 IR Inten    --      8.1010                 9.6156                 1.8276

 - Thermochemistry -
 -------------------
 Temperature   298.150 Kelvin.  Pressure   1.00000 Atm.
 Atom     1 has atomic number  6 and mass  12.00000

 Molecular mass:   160.99468 amu.
 Principal axes and moments of inertia in atomic units:
                           1         2         3
     Eigenvalues --   687.110582143.329632446.68002
           X            0.99999  -0.00068   0.00508
           Y            0.00064   0.99997   0.00811
           Z           -0.00508  -0.00811   0.99995
 This molecule is an asymmetric top.
 Rotational symmetry number  1.
 Warning -- assumption of classical behavior for rotation
           may cause significant error
 Rotational temperatures (Kelvin)      0.12606     0.04041     0.03540
 Rotational constants (GHZ):           2.62657     0.84203     0.73763
 Zero-point vibrational energy     240179.0 (Joules/Mol)
                                   57.40415 (Kcal/Mol)
 Warning -- explicit consideration of  11 degrees of freedom as
           vibrations may cause significant error
 Vibrational temperatures:     57.32   164.43   253.29   381.18   429.21
          (Kelvin)            479.62   591.36   627.18   673.69   753.25
                              836.92   899.53  1058.44  1075.24  1132.08
                             1159.61  1331.27  1420.15  1451.93  1468.71
                             1536.47  1594.59  1638.78  1706.07  1719.97
                             1900.02  1927.79  2000.92  2117.36  2161.05
                             2337.01  2357.11  4598.47  4618.18  4640.30
                             4675.29

 Zero-point correction=                           0.091479 (Hartree/Particle)
 Thermal correction to Energy=                    0.099754
 Thermal correction to Enthalpy=                  0.100698
 Thermal correction to Gibbs Free Energy=         0.057151
 Sum of electronic and zero-point Energies=           -896.004197
 Sum of electronic and thermal Energies=              -895.995922
 Sum of electronic and thermal Enthalpies=            -895.994978
 Sum of electronic and thermal Free Energies=         -896.038525

                     E (Thermal)             CV                S
                      KCal/Mol        Cal/Mol-Kelvin    Cal/Mol-Kelvin
 Total                   62.596             30.460             91.652
 Electronic               0.000              0.000              0.000
 Translational            0.889              2.981             41.137
 Rotational               0.889              2.981             29.667
 Vibrational             60.819             24.498             20.847
 Vibration     1          0.594              1.981              5.267
 Vibration     2          0.607              1.938              3.195
 Vibration     3          0.628              1.872              2.370
 Vibration     4          0.671              1.737              1.629
 Vibration     5          0.691              1.677              1.426
 Vibration     6          0.715              1.609              1.244
 Vibration     7          0.775              1.446              0.923
 Vibration     8          0.796              1.392              0.840
 Vibration     9          0.825              1.321              0.742
 Vibration    10          0.878              1.198              0.602
 Vibration    11          0.938              1.071              0.482

 Optimization completed.
    -- Stationary point found.
 Normal termination of Gaussian 16 at Mon Aug 24 17:24:52 2020.
 Gaussian 16:  ES64L-G16RevA.03 25-Dec-2016

 ----------------------------------------------------------------------
 # TD(NStates=10, Root=1) B3LYP/6-31G* scf=qc volume pop=NPA density=cu
 rrent Geom=AllCheck Guess=Read
 ----------------------------------------------------------------------

 Structure from the checkpoint file:  "sulfonylfluoride_3_conf73.chk"
 -------------------
 Title Card Required
 -------------------
 Charge =  0 Multiplicity = 1

                         Standard orientation:
 ---------------------------------------------------------------------
 Center     Atomic      Atomic             Coordinates (Angstroms)
 Number     Number       Type             X           Y           Z
 ---------------------------------------------------------------------
      1          6           0        2.415358    1.163723    0.002442
      2          6           0        3.026068   -0.088713    0.015275
      3          6           0        2.221341   -1.232455   -0.003077
      4          7           0        0.886474   -1.182548   -0.037523
      5          6           0        0.336493    0.023364   -0.046959
      6          6           0        1.021089    1.235578   -0.027123
      7         16           0       -1.468069    0.049886   -0.124039
      8          8           0       -1.919203    1.430145   -0.078624
      9          8           0       -1.963739   -0.897896   -1.099486
     10          9           0       -1.782104   -0.580564    1.333302
     11          1           0        3.009891    2.072376    0.015902
     12          1           0        4.106955   -0.185310    0.038827
     13          1           0        2.662283   -2.226339    0.008454
     14          1           0        0.485043    2.177036   -0.034084
 ---------------------------------------------------------------------

 SCF Done:  E(RB3LYP) =  -896.095676126     a.u. after    1 cycles

 Excitation energies and oscillator strengths:

 Excited State   1:      Singlet-A      4.7730 eV  259.76 nm  f=0.0032  <S**2>=0.000
      41 -> 42         0.70292
 This state for optimization and/or second-order correction.
 Total Energy, E(TD-HF/TD-DFT) =  -895.920271176
 Copying the excited state density for this state as the 1-particle RhoCI density.

 Excited State   2:      Singlet-A      5.2419 eV  236.52 nm  f=0.0010  <S**2>=0.000
      41 -> 43         0.70231

 Excited State   3:      Singlet-A      5.4907 eV  225.81 nm  f=0.0552  <S**2>=0.000
      38 -> 42        -0.11048
      38 -> 43         0.16412
      39 -> 42        -0.17665
      39 -> 43         0.23142
      40 -> 42         0.55827
      40 -> 43         0.23869

 Excited State   4:      Singlet-A      5.9341 eV  208.93 nm  f=0.0177  <S**2>=0.000
      37 -> 42         0.14228
      38 -> 42        -0.34546
      39 -> 42         0.50708
      40 -> 42         0.19775
      40 -> 43        -0.22480

 Excited State   5:      Singlet-A      6.1731 eV  200.85 nm  f=0.0581  <S**2>=0.000
      38 -> 42         0.53000
      40 -> 42         0.24979
      40 -> 43        -0.35389

 Excited State   6:      Singlet-A      6.4559 eV  192.05 nm  f=0.0031  <S**2>=0.000
      36 -> 42         0.33376
      37 -> 42         0.54786
      38 -> 43        -0.11063
      40 -> 43         0.23022

 Excited State   7:      Singlet-A      6.4791 eV  191.36 nm  f=0.0004  <S**2>=0.000
      36 -> 42         0.59819
      37 -> 42        -0.34804

 Excited State   8:      Singlet-A      6.5800 eV  188.43 nm  f=0.0022  <S**2>=0.000
      38 -> 43         0.55339
      39 -> 42        -0.14853
      39 -> 43        -0.38008

 Excited State   9:      Singlet-A      6.9542 eV  178.29 nm  f=0.0472  <S**2>=0.000
      36 -> 43         0.33270
      37 -> 43         0.50017
      38 -> 43         0.22030
      39 -> 42         0.17738
      39 -> 43         0.12115
      40 -> 43         0.15279

 Excited State  10:      Singlet-A      7.0978 eV  174.68 nm  f=0.0037  <S**2>=0.000
      36 -> 43         0.60179
      37 -> 43        -0.34323

 The electronic state is 1-A.
 Alpha  occ. eigenvalues --  -89.15274 -24.73419 -19.17583 -19.17444 -14.37614
 Alpha  occ. eigenvalues --  -10.28663 -10.26251 -10.24748 -10.24414 -10.23929
 Alpha  occ. eigenvalues --   -8.17619  -6.14297  -6.13957  -6.13841  -1.24745
 Alpha  occ. eigenvalues --   -1.11496  -1.03479  -0.99027  -0.84440  -0.81507
 Alpha  occ. eigenvalues --   -0.71439  -0.67319  -0.64083  -0.58192  -0.54217
 Alpha  occ. eigenvalues --   -0.52318  -0.51746  -0.49346  -0.48701  -0.45211
 Alpha  occ. eigenvalues --   -0.44458  -0.43556  -0.43194  -0.41312  -0.38225
 Alpha  occ. eigenvalues --   -0.35069  -0.34323  -0.32586  -0.32385  -0.30268
 Alpha  occ. eigenvalues --   -0.29659
 Alpha virt. eigenvalues --   -0.07328  -0.05508   0.01951   0.05340   0.07666
 Alpha virt. eigenvalues --    0.09896   0.10182   0.12156   0.13827   0.14958
 Alpha virt. eigenvalues --    0.15859   0.22508   0.25783   0.27120   0.29762

 Mulliken charges:
               1
     1  C   -0.130333
     2  C   -0.184043
     3  C    0.077470
     4  N   -0.330096
     5  C   -0.032051
     6  C   -0.103617
     7  S    1.198250
     8  O   -0.474637
     9  O   -0.455256
    10  F   -0.297288
    11  H    0.161367
    12  H    0.162443
    13  H    0.198507
    14  H    0.209284
 Sum of Mulliken charges =  -0.00000

 Dipole moment (field-independent basis, Debye):
    X=              5.5301    Y=             -0.3545    Z=              0.6568  Tot=              5.5802
 Quadrupole moment (field-independent basis, Debye-Ang):
   XX=            -59.3876   YY=            -58.5901   ZZ=            -66.5030
   XY=             -0.9277   XZ=             -1.6502   YZ=             -1.1216

 Summary of Natural Population Analysis:

                                       Natural Population
                Natural  -----------------------------------------------
    Atom  No    Charge         Core      Valence    Rydberg      Total
 -----------------------------------------------------------------------
      C    1   -0.24791      1.99910     4.23179    0.01702     6.24791
      C    2   -0.35572      1.99908     4.34009    0.01656     6.35572
      C    3    0.01918      1.99913     3.96189    0.01981     5.98082
      N    4   -0.14216      1.99884     5.12571    0.01761     7.14216
      C    5   -0.24621      1.99877     4.21043    0.03701     6.24621
      C    6   -0.21067      1.99895     4.19615    0.01557     6.21067
      S    7    2.38616      9.99882     3.41102    0.20399    13.61384
      O    8   -0.89257      1.99988     6.86986    0.02283     8.89257
      O    9   -0.88227      1.99988     6.85855    0.02384     8.88227
      F   10   -0.50324      1.99997     7.49351    0.00976     9.50324
      H   11    0.25795      0.00000     0.74143    0.00062     0.74205
      H   12    0.26345      0.00000     0.73606    0.00049     0.73655
      H   13    0.26527      0.00000     0.73417    0.00055     0.73473
      H   14    0.28874      0.00000     0.71029    0.00098     0.71126
 =======================================================================
   * Total *   -0.00000     27.99241    53.62095    0.38664    82.00000

 Normal termination of Gaussian 16 at Mon Aug 24 17:29:02 2020.
