 Gaussian 16, Revision A.03,

 ---------------------------------
 # opt=CalcAll B3LYP/6-31G* scf=qc
 ---------------------------------

 -------------------
 Title Card Required
 -------------------
 Symbolic Z-matrix:
 Charge =  0 Multiplicity = 1

 SCF Done:  E(RB3LYP) =  -919.373603860     a.u. after    8 cycles
 SCF Done:  E(RB3LYP) =  -919.380148689     a.u. after   13 cycles
 SCF Done:  E(RB3LYP) =  -919.380999142     a.u. after   13 cycles
 SCF Done:  E(RB3LYP) =  -919.381213539     a.u. after   13 cycles
 SCF Done:  E(RB3LYP) =  -919.381263607     a.u. after    7 cycles
 SCF Done:  E(RB3LYP) =  -919.381266623     a.u. after    5 cycles
 SCF Done:  E(RB3LYP) =  -919.381266990     a.u. after    4 cycles
 SCF Done:  E(RB3LYP) =  -919.381266996     a.u. after    2 cycles
 Optimization completed.
    -- Stationary point found.
 Normal termination of Gaussian 16 at Mon Aug 24 18:09:16 2020.

 ----------------------------------------------------------------------
 # freq B3LYP/6-31G* scf=qc volume NMR pop=NPA density=current Geom=All
 Check Guess=Read
 ----------------------------------------------------------------------

 Structure from the checkpoint file:  "sulfonylfluoride_6_conf162.chk"
 -------------------
 Title Card Required
 -------------------
 Charge =  0 Multiplicity = 1

 SCF Done:  E(RB3LYP) =  -919.381266996     a.u. after    1 cycles

      1  C    Isotropic =   126.2771   Anisotropy =    42.2779

      2  H    Isotropic =    28.1582   Anisotropy =     3.4972

      3  H    Isotropic =    28.1582   Anisotropy =     3.4972

      4  C    Isotropic =    70.9977   Anisotropy =   157.2593

      5  C    Isotropic =    64.9418   Anisotropy =   158.8975

      6  C    Isotropic =    67.4555   Anisotropy =   167.4263

      7  C    Isotropic =    66.3356   Anisotropy =   172.7836

      8  C    Isotropic =    67.4555   Anisotropy =   167.4261

      9  C    Isotropic =    64.9418   Anisotropy =   158.8966

     10  S    Isotropic =   196.6716   Anisotropy =   284.7163

     11  O    Isotropic =    90.0331   Anisotropy =    75.4083

     12  O    Isotropic =    90.0327   Anisotropy =    75.4080

     13  F    Isotropic =   115.4770   Anisotropy =   369.0160

     14  H    Isotropic =    24.8553   Anisotropy =     7.2859

     15  H    Isotropic =    24.8816   Anisotropy =     4.7830

     16  H    Isotropic =    24.8563   Anisotropy =     4.3076

     17  H    Isotropic =    24.8816   Anisotropy =     4.7830

     18  H    Isotropic =    24.8553   Anisotropy =     7.2859

  Exact polarizability: 116.256  -0.000  96.186 -14.139  -0.000  56.060
 Approx polarizability: 167.099  -0.000 176.511 -29.507  -0.000  90.342

                      1                      2                      3
                      A                      A                      A
 Frequencies --     21.3210                52.9922                78.6331
 Red. masses --      4.9947                 6.6522                 7.1097
 Frc consts  --      0.0013                 0.0110                 0.0259
 IR Inten    --      0.7208                 0.2763                 2.1981

                      4                      5                      6
                      A                      A                      A
 Frequencies --    209.5327               245.1639               248.3085
 Red. masses --      6.7285                 7.9822                 8.3895
 Frc consts  --      0.1740                 0.2827                 0.3048
 IR Inten    --      1.5024                 0.0351                 1.7737

                      7                      8                      9
                      A                      A                      A
 Frequencies --    362.2209               413.2369               419.3182
 Red. masses --      2.3377                 3.1671                 5.2660
 Frc consts  --      0.1807                 0.3186                 0.5455
 IR Inten    --      2.1689                 1.2171                 6.6218

                     10                     11                     12
                      A                      A                      A
 Frequencies --    449.9958               456.4645               533.2017
 Red. masses --      8.6907                 6.0999                 5.7795
 Frc consts  --      1.0369                 0.7488                 0.9681
 IR Inten    --      6.6127                10.2423                73.5772

                     13                     14                     15
                      A                      A                      A
 Frequencies --    594.1920               634.6986               704.2379
 Red. masses --      5.7653                 6.2732                 4.5855
 Frc consts  --      1.1993                 1.4889                 1.3399
 IR Inten    --     16.3040                 0.0050                21.5301

                     16                     17                     18
                      A                      A                      A
 Frequencies --    713.0855               781.3905               789.8180
 Red. masses --      1.7432                11.9263                 2.2950
 Frc consts  --      0.5223                 4.2903                 0.8435
 IR Inten    --      9.4579               248.6538                28.5448

                     19                     20                     21
                      A                      A                      A
 Frequencies --    832.8523               856.3642               925.2369
 Red. masses --      4.3178                 1.2526                 1.7345
 Frc consts  --      1.7646                 0.5412                 0.8748
 IR Inten    --     11.0359                 0.0417                 0.3830

                     22                     23                     24
                      A                      A                      A
 Frequencies --    931.6050               969.6457              1003.0974
 Red. masses --      1.3983                 1.3570                 1.2771
 Frc consts  --      0.7150                 0.7517                 0.7571
 IR Inten    --      0.8148                 0.0384                 0.0004

                     25                     26                     27
                      A                      A                      A
 Frequencies --   1019.1018              1058.7444              1113.4129
 Red. masses --      6.1039                 2.2514                 1.5621
 Frc consts  --      3.7350                 1.4869                 1.1409
 IR Inten    --      0.5056                 1.4488                 2.4625

                     28                     29                     30
                      A                      A                      A
 Frequencies --   1174.9453              1180.1722              1196.4454
 Red. masses --      1.1200                17.2652                 1.0992
 Frc consts  --      0.9110                14.1681                 0.9271
 IR Inten    --      4.4572               130.2839                 0.0561

                     31                     32                     33
                      A                      A                      A
 Frequencies --   1217.9255              1230.1309              1307.8033
 Red. masses --      1.1418                 2.6720                 1.3937
 Frc consts  --      0.9979                 2.3823                 1.4045
 IR Inten    --      0.0971                 1.9161                 0.7660

                     34                     35                     36
                      A                      A                      A
 Frequencies --   1360.8366              1372.6090              1396.3304
 Red. masses --      5.5037                 1.3372                10.3750
 Frc consts  --      6.0051                 1.4844                11.9184
 IR Inten    --     10.9963                 0.1152               166.7543

                     37                     38                     39
                      A                      A                      A
 Frequencies --   1487.7762              1504.6131              1547.2013
 Red. masses --      1.1084                 2.2178                 2.2063
 Frc consts  --      1.4455                 2.9582                 3.1118
 IR Inten    --      7.4634                 9.4094                 7.0385

                     40                     41                     42
                      A                      A                      A
 Frequencies --   1646.7654              1664.5448              3099.5531
 Red. masses --      5.5075                 5.4916                 1.0583
 Frc consts  --      8.7996                 8.9648                 5.9904
 IR Inten    --      0.5293                 0.0532                 3.3886

                     43                     44                     45
                      A                      A                      A
 Frequencies --   3160.7722              3187.4215              3191.9480
 Red. masses --      1.1090                 1.0855                 1.0881
 Frc consts  --      6.5276                 6.4976                 6.5316
 IR Inten    --      0.1163                 1.3362                 0.1010

                     46                     47                     48
                      A                      A                      A
 Frequencies --   3198.9728              3207.9132              3216.3094
 Red. masses --      1.0913                 1.0946                 1.0982
 Frc consts  --      6.5801                 6.6368                 6.6933
 IR Inten    --     11.8045                24.7169                12.3118

 - Thermochemistry -
 -------------------
 Temperature   298.150 Kelvin.  Pressure   1.00000 Atm.
 Atom     1 has atomic number  6 and mass  12.00000

 Molecular mass:   174.01508 amu.
 Principal axes and moments of inertia in atomic units:
                           1         2         3
     Eigenvalues --   761.511513214.013103467.62132
           X            0.99998  -0.00000  -0.00667
           Y            0.00000   1.00000   0.00000
           Z            0.00667  -0.00000   0.99998
 This molecule is an asymmetric top.
 Rotational symmetry number  1.
 Warning -- assumption of classical behavior for rotation
           may cause significant error
 Rotational temperatures (Kelvin)      0.11374     0.02695     0.02498
 Rotational constants (GHZ):           2.36995     0.56152     0.52046
 Zero-point vibrational energy     346730.8 (Joules/Mol)
                                   82.87065 (Kcal/Mol)
 Warning -- explicit consideration of  13 degrees of freedom as
           vibrations may cause significant error
 Vibrational temperatures:     30.68    76.24   113.14   301.47   352.74
          (Kelvin)            357.26   521.16   594.56   603.31   647.44
                              656.75   767.16   854.91   913.19  1013.24
                             1025.97  1124.25  1136.37  1198.29  1232.12
                             1331.21  1340.37  1395.10  1443.23  1466.26
                             1523.30  1601.95  1690.48  1698.00  1721.42
                             1752.32  1769.88  1881.64  1957.94  1974.88
                             2009.01  2140.58  2164.80  2226.08  2369.33
                             2394.91  4459.57  4547.65  4585.99  4592.50
                             4602.61  4615.47  4627.55

 Zero-point correction=                           0.132063 (Hartree/Particle)
 Thermal correction to Energy=                    0.141806
 Thermal correction to Enthalpy=                  0.142750
 Thermal correction to Gibbs Free Energy=         0.094814
 Sum of electronic and zero-point Energies=           -919.249204
 Sum of electronic and thermal Energies=              -919.239461
 Sum of electronic and thermal Enthalpies=            -919.238517
 Sum of electronic and thermal Free Energies=         -919.286453

                     E (Thermal)             CV                S
                      KCal/Mol        Cal/Mol-Kelvin    Cal/Mol-Kelvin
 Total                   88.985             36.162            100.891
 Electronic               0.000              0.000              0.000
 Translational            0.889              2.981             41.369
 Rotational               0.889              2.981             30.518
 Vibrational             87.207             30.201             29.003
 Vibration     1          0.593              1.985              6.507
 Vibration     2          0.596              1.976              4.702
 Vibration     3          0.600              1.964              3.925
 Vibration     4          0.642              1.826              2.048
 Vibration     5          0.660              1.771              1.765
 Vibration     6          0.662              1.766              1.743
 Vibration     7          0.736              1.550              1.113
 Vibration     8          0.777              1.441              0.915
 Vibration     9          0.782              1.428              0.894
 Vibration    10          0.809              1.361              0.796
 Vibration    11          0.815              1.347              0.776
 Vibration    12          0.888              1.177              0.580
 Vibration    13          0.952              1.044              0.460

 Optimization completed.
    -- Stationary point found.
 Normal termination of Gaussian 16 at Mon Aug 24 18:12:38 2020.
 Gaussian 16:  ES64L-G16RevA.03 25-Dec-2016

 ----------------------------------------------------------------------
 # TD(NStates=10, Root=1) B3LYP/6-31G* scf=qc volume pop=NPA density=cu
 rrent Geom=AllCheck Guess=Read
 ----------------------------------------------------------------------

 Structure from the checkpoint file:  "sulfonylfluoride_6_conf163.chk"
 -------------------
 Title Card Required
 -------------------
 Charge =  0 Multiplicity = 1

                         Standard orientation:
 ---------------------------------------------------------------------
 Center     Atomic      Atomic             Coordinates (Angstroms)
 Number     Number       Type             X           Y           Z
 ---------------------------------------------------------------------
      1          6           0        0.581393   -0.000029   -1.112066
      2          1           0        0.817982    0.890911   -1.699339
      3          1           0        0.817979   -0.890999   -1.699294
      4          6           0       -0.832643   -0.000014   -0.596714
      5          6           0       -1.491262    1.209428   -0.341022
      6          6           0       -2.797042    1.208703    0.147593
      7          6           0       -3.452133    0.000014    0.391204
      8          6           0       -2.797063   -1.208689    0.147605
      9          6           0       -1.491283   -1.209442   -0.341009
     10         16           0        1.786419    0.000004    0.253057
     11          8           0        1.772862    1.271406    0.952571
     12          8           0        1.772859   -1.271361    0.952637
     13          9           0        3.125276   -0.000022   -0.674234
     14          1           0       -0.979228    2.150679   -0.522693
     15          1           0       -3.301460    2.151555    0.338776
     16          1           0       -4.470277    0.000025    0.770397
     17          1           0       -3.301498   -2.151531    0.338799
     18          1           0       -0.979265   -2.150704   -0.522671
 ---------------------------------------------------------------------

 SCF Done:  E(RB3LYP) =  -919.381266996     a.u. after    1 cycles

 Excitation energies and oscillator strengths:

 Excited State   1:      Singlet-A      5.3127 eV  233.37 nm  f=0.0038  <S**2>=0.000
      44 -> 46         0.55200
      45 -> 47         0.43881
 This state for optimization and/or second-order correction.
 Total Energy, E(TD-HF/TD-DFT) =  -919.186027726
 Copying the excited state density for this state as the 1-particle RhoCI density.

 Excited State   2:      Singlet-A      5.8846 eV  210.69 nm  f=0.1406  <S**2>=0.000
      44 -> 47        -0.29461
      45 -> 46         0.63706

 Excited State   3:      Singlet-A      6.7466 eV  183.77 nm  f=0.1771  <S**2>=0.000
      44 -> 46        -0.39809
      44 -> 48         0.31860
      45 -> 47         0.47141

 Excited State   4:      Singlet-A      6.7981 eV  182.38 nm  f=0.3887  <S**2>=0.000
      41 -> 46        -0.11200
      44 -> 47         0.54163
      45 -> 46         0.21021
      45 -> 48        -0.37786

 Excited State   5:      Singlet-A      6.9252 eV  179.03 nm  f=0.0004  <S**2>=0.000
      43 -> 46         0.68107
      43 -> 48        -0.13822

 Excited State   6:      Singlet-A      7.1760 eV  172.78 nm  f=0.2256  <S**2>=0.000
      41 -> 46        -0.14484
      44 -> 47         0.27129
      45 -> 46         0.16324
      45 -> 48         0.52978
      45 -> 49        -0.30020

 Excited State   7:      Singlet-A      7.3086 eV  169.64 nm  f=0.0778  <S**2>=0.000
      42 -> 46        -0.19107
      44 -> 46         0.12921
      44 -> 48         0.57458
      44 -> 49        -0.25583
      45 -> 47        -0.20647

 Excited State   8:      Singlet-A      7.3520 eV  168.64 nm  f=0.0306  <S**2>=0.000
      40 -> 46        -0.15308
      42 -> 46         0.64226
      44 -> 48         0.13466

 Excited State   9:      Singlet-A      7.4421 eV  166.60 nm  f=0.0074  <S**2>=0.000
      41 -> 46         0.48838
      45 -> 48        -0.14336
      45 -> 49        -0.47385

 Excited State  10:      Singlet-A      7.5624 eV  163.95 nm  f=0.0002  <S**2>=0.000
      40 -> 46         0.67195
      42 -> 46         0.13970

 The electronic state is 1-A.
 Alpha  occ. eigenvalues --  -89.14959 -24.73345 -19.17431 -19.17430 -10.25711
 Alpha  occ. eigenvalues --  -10.22559 -10.21044 -10.21043 -10.20809 -10.20716
 Alpha  occ. eigenvalues --  -10.20700  -8.17363  -6.14048  -6.13699  -6.13557
 Alpha  occ. eigenvalues --   -1.24472  -1.11362  -1.03334  -0.87959  -0.81868
 Alpha  occ. eigenvalues --   -0.76285  -0.74268  -0.65570  -0.62541  -0.60416
 Alpha  occ. eigenvalues --   -0.55637  -0.53576  -0.51181  -0.50959  -0.48173
 Alpha  occ. eigenvalues --   -0.47928  -0.44852  -0.44075  -0.43702  -0.42857
 Alpha  occ. eigenvalues --   -0.42720  -0.38711  -0.37686  -0.36622  -0.36113
 Alpha  occ. eigenvalues --   -0.34155  -0.33966  -0.32337  -0.26745  -0.26558
 Alpha virt. eigenvalues --   -0.03551  -0.01865   0.02297   0.04013   0.07507
 Alpha virt. eigenvalues --    0.09654   0.09680   0.11233   0.12529   0.14401
 Alpha virt. eigenvalues --    0.15576   0.16040   0.17521   0.17978   0.21139

 Mulliken charges:
               1
     1  C   -0.573059
     2  H    0.213499
     3  H    0.213499
     4  C    0.133187
     5  C   -0.152391
     6  C   -0.125577
     7  C   -0.132478
     8  C   -0.125577
     9  C   -0.152392
    10  S    1.207697
    11  O   -0.477674
    12  O   -0.477673
    13  F   -0.319533
    14  H    0.158643
    15  H    0.153212
    16  H    0.144762
    17  H    0.153212
    18  H    0.158642
 Sum of Mulliken charges =  -0.00000

 Dipole moment (field-independent basis, Debye):
    X=             -4.2629    Y=             -0.0001    Z=             -2.7912  Tot=              5.0954
 Quadrupole moment (field-independent basis, Debye-Ang):
   XX=            -69.0410   YY=            -67.2855   ZZ=            -71.2515
   XY=             -0.0001   XZ=             -5.7834   YZ=              0.0001

 Summary of Natural Population Analysis:

                                       Natural Population
                Natural  -----------------------------------------------
    Atom  No    Charge         Core      Valence    Rydberg      Total
 -----------------------------------------------------------------------
      C    1   -0.71326      1.99917     4.69394    0.02015     6.71326
      H    2    0.27598      0.00000     0.72154    0.00248     0.72402
      H    3    0.27598      0.00000     0.72154    0.00248     0.72402
      C    4   -0.08309      1.99905     4.06495    0.01909     6.08309
      C    5   -0.18680      1.99906     4.16987    0.01786     6.18680
      C    6   -0.19091      1.99915     4.17417    0.01759     6.19091
      C    7   -0.25179      1.99916     4.23526    0.01738     6.25179
      C    8   -0.19091      1.99915     4.17417    0.01759     6.19091
      C    9   -0.18680      1.99906     4.16987    0.01786     6.18680
      S   10    2.37189      9.99892     3.42759    0.20160    13.62811
      O   11   -0.90069      1.99988     6.87703    0.02378     8.90069
      O   12   -0.90069      1.99988     6.87703    0.02378     8.90069
      F   13   -0.51705      1.99997     7.50813    0.00895     9.51705
      H   14    0.24108      0.00000     0.75771    0.00121     0.75892
      H   15    0.23902      0.00000     0.76014    0.00084     0.76098
      H   16    0.23793      0.00000     0.76127    0.00080     0.76207
      H   17    0.23902      0.00000     0.76014    0.00084     0.76098
      H   18    0.24108      0.00000     0.75771    0.00121     0.75892
 =======================================================================
   * Total *    0.00000     29.99244    59.61206    0.39550    90.00000

 Normal termination of Gaussian 16 at Mon Aug 24 18:17:06 2020.
