 Gaussian 16, Revision A.03,

 ---------------------------------
 # opt=CalcAll B3LYP/6-31G* scf=qc
 ---------------------------------

 -------------------
 Title Card Required
 -------------------
 Symbolic Z-matrix:
 Charge =  0 Multiplicity = 1

 SCF Done:  E(RB3LYP) =  -1699.25591008     a.u. after    8 cycles
 SCF Done:  E(RB3LYP) =  -1699.29388070     a.u. after   15 cycles
 SCF Done:  E(RB3LYP) =  -1699.33236966     a.u. after   13 cycles
 SCF Done:  E(RB3LYP) =  -1699.34738418     a.u. after   15 cycles
 SCF Done:  E(RB3LYP) =  -1699.35280640     a.u. after   13 cycles
 SCF Done:  E(RB3LYP) =  -1699.35373407     a.u. after   11 cycles
 SCF Done:  E(RB3LYP) =  -1699.35392221     a.u. after    9 cycles
 SCF Done:  E(RB3LYP) =  -1699.35394255     a.u. after    7 cycles
 SCF Done:  E(RB3LYP) =  -1699.35394328     a.u. after    3 cycles
 Optimization completed.
    -- Stationary point found.
 Normal termination of Gaussian 16 at Mon Aug 24 18:29:22 2020.

 ----------------------------------------------------------------------
 # freq B3LYP/6-31G* scf=qc volume NMR pop=NPA density=current Geom=All
 Check Guess=Read
 ----------------------------------------------------------------------

 Structure from the checkpoint file:  "sulfonylfluoride_4_conf82.chk"
 -------------------
 Title Card Required
 -------------------
 Charge =  0 Multiplicity = 1

 SCF Done:  E(RB3LYP) =  -1699.35394328     a.u. after    1 cycles

      1  C    Isotropic =    77.1680   Anisotropy =    16.0866

      2  C    Isotropic =    75.5224   Anisotropy =    15.3404

      3  C    Isotropic =    68.4555   Anisotropy =    13.7625

      4  F    Isotropic =   296.0763   Anisotropy =    71.5002

      5  F    Isotropic =   305.1726   Anisotropy =    81.5812

      6  S    Isotropic =   219.8628   Anisotropy =   367.6573

      7  O    Isotropic =    99.6876   Anisotropy =    86.9892

      8  O    Isotropic =    91.0909   Anisotropy =    77.0766

      9  F    Isotropic =   119.4897   Anisotropy =   353.2980

     10  F    Isotropic =   314.6032   Anisotropy =    88.6184

     11  F    Isotropic =   321.5263   Anisotropy =    98.2386

     12  F    Isotropic =   326.6938   Anisotropy =    87.8394

     13  F    Isotropic =   321.3966   Anisotropy =    87.9016

     14  C    Isotropic =    68.6879   Anisotropy =    13.6838

     15  F    Isotropic =   277.8557   Anisotropy =   104.1061

     16  F    Isotropic =   274.4485   Anisotropy =   103.3853

     17  F    Isotropic =   280.7948   Anisotropy =   114.3605

  Exact polarizability:  75.213  -3.126  63.094   0.166  -0.259  63.830
 Approx polarizability: 104.400  -4.135  97.697  -1.588   1.853 109.412

                      1                      2                      3
                      A                      A                      A
 Frequencies --     29.3570                49.3286                64.0212
 Red. masses --     18.3995                17.6763                18.4825
 Frc consts  --      0.0093                 0.0253                 0.0446
 IR Inten    --      0.0867                 0.0851                 0.0492

                      4                      5                      6
                      A                      A                      A
 Frequencies --    107.6365               117.8869               145.7554
 Red. masses --     18.6068                18.2754                17.9940
 Frc consts  --      0.1270                 0.1496                 0.2252
 IR Inten    --      0.1550                 0.2753                 1.8325

                      7                      8                      9
                      A                      A                      A
 Frequencies --    166.1373               181.0667               216.4921
 Red. masses --     17.7080                18.3773                18.1290
 Frc consts  --      0.2880                 0.3550                 0.5006
 IR Inten    --      0.9843                 3.3610                 5.1870

                     10                     11                     12
                      A                      A                      A
 Frequencies --    227.4462               244.9987               260.1084
 Red. masses --     18.2649                18.0227                18.4017
 Frc consts  --      0.5567                 0.6374                 0.7335
 IR Inten    --      1.6279                 2.0343                 2.1491

                     13                     14                     15
                      A                      A                      A
 Frequencies --    281.8674               298.3441               310.6995
 Red. masses --     18.3867                18.3924                18.6923
 Frc consts  --      0.8607                 0.9645                 1.0631
 IR Inten    --      0.6764                 0.1973                 0.4771

                     16                     17                     18
                      A                      A                      A
 Frequencies --    322.8225               328.3882               359.7471
 Red. masses --     18.3976                18.0958                18.3512
 Frc consts  --      1.1296                 1.1498                 1.3993
 IR Inten    --      0.6348                 0.7626                 1.1009

                     19                     20                     21
                      A                      A                      A
 Frequencies --    379.1511               422.0175               446.7736
 Red. masses --     17.9739                18.5997                18.0900
 Frc consts  --      1.5224                 1.9517                 2.1275
 IR Inten    --      3.2431                14.6511                 9.2438

                     22                     23                     24
                      A                      A                      A
 Frequencies --    471.7372               491.6553               529.5834
 Red. masses --     18.0159                17.9138                17.9358
 Frc consts  --      2.3621                 2.5513                 2.9637
 IR Inten    --      2.2691                 6.0831                 6.9023

                     25                     26                     27
                      A                      A                      A
 Frequencies --    576.2291               581.2648               638.1143
 Red. masses --     18.8769                18.8969                17.3374
 Frc consts  --      3.6929                 3.7617                 4.1594
 IR Inten    --     58.0084                50.4215                 4.1172

                     28                     29                     30
                      A                      A                      A
 Frequencies --    645.4935               656.1123               747.0261
 Red. masses --     17.8604                17.4810                17.1405
 Frc consts  --      4.3845                 4.4338                 5.6357
 IR Inten    --     36.6770                 2.4591                20.6852

                     31                     32                     33
                      A                      A                      A
 Frequencies --    792.8465               932.8911              1016.4239
 Red. masses --     21.2523                13.9492                13.5925
 Frc consts  --      7.8711                 7.1526                 8.2737
 IR Inten    --    126.7023               201.8550                73.4649

                     34                     35                     36
                      A                      A                      A
 Frequencies --   1104.4707              1167.0331              1193.3728
 Red. masses --     13.7308                13.9249                14.7202
 Frc consts  --      9.8685                11.1740                12.3514
 IR Inten    --    128.2082                32.8848                32.3313

                     37                     38                     39
                      A                      A                      A
 Frequencies --   1205.6433              1219.9829              1234.6335
 Red. masses --     14.5135                13.5058                13.2213
 Frc consts  --     12.4297                11.8435                11.8741
 IR Inten    --    218.6849                61.1514               159.3915

                     40                     41                     42
                      A                      A                      A
 Frequencies --   1263.3173              1269.7562              1288.4345
 Red. masses --     13.1944                13.0819                12.7105
 Frc consts  --     12.4069                12.4269                12.4319
 IR Inten    --    281.5645               283.1968                58.1022

                     43                     44                     45
                      A                      A                      A
 Frequencies --   1305.5759              1358.8509              1418.2998
 Red. masses --     12.4987                12.5221                20.7511
 Frc consts  --     12.5522                13.6229                24.5939
 IR Inten    --     40.0768                52.1348               209.0948

 - Thermochemistry -
 -------------------
 Temperature   298.150 Kelvin.  Pressure   1.00000 Atm.
 Atom     1 has atomic number  6 and mass  12.00000

 Molecular mass:   301.94593 amu.
 Principal axes and moments of inertia in atomic units:
                           1         2         3
     Eigenvalues --  2580.056704862.106745247.47356
           X            0.99998  -0.00584   0.00266
           Y            0.00584   0.99998   0.00020
           Z           -0.00266  -0.00018   1.00000
 This molecule is an asymmetric top.
 Rotational symmetry number  1.
 Warning -- assumption of classical behavior for rotation
           may cause significant error
 Rotational temperatures (Kelvin)      0.03357     0.01781     0.01651
 Rotational constants (GHZ):           0.69950     0.37119     0.34393
 Zero-point vibrational energy     167888.7 (Joules/Mol)
                                   40.12636 (Kcal/Mol)
 Warning -- explicit consideration of  26 degrees of freedom as
           vibrations may cause significant error
 Vibrational temperatures:     42.24    70.97    92.11   154.86   169.61
          (Kelvin)            209.71   239.03   260.51   311.48   327.24
                              352.50   374.24   405.54   429.25   447.03
                              464.47   472.48   517.60   545.51   607.19
                              642.81   678.72   707.38   761.95   829.07
                              836.31   918.10   928.72   944.00  1074.80
                             1140.73  1342.22  1462.41  1589.09  1679.10
                             1717.00  1734.65  1755.28  1776.36  1817.63
                             1826.90  1853.77  1878.43  1955.08  2040.62

 Zero-point correction=                           0.063945 (Hartree/Particle)
 Thermal correction to Energy=                    0.079745
 Thermal correction to Enthalpy=                  0.080690
 Thermal correction to Gibbs Free Energy=         0.019955
 Sum of electronic and zero-point Energies=          -1699.289998
 Sum of electronic and thermal Energies=             -1699.274198
 Sum of electronic and thermal Enthalpies=           -1699.273254
 Sum of electronic and thermal Free Energies=        -1699.333988

                     E (Thermal)             CV                S
                      KCal/Mol        Cal/Mol-Kelvin    Cal/Mol-Kelvin
 Total                   50.041             55.793            127.826
 Electronic               0.000              0.000              0.000
 Translational            0.889              2.981             43.012
 Rotational               0.889              2.981             32.554
 Vibrational             48.264             49.832             52.261
 Vibration     1          0.593              1.984              5.872
 Vibration     2          0.595              1.978              4.844
 Vibration     3          0.597              1.971              4.329
 Vibration     4          0.606              1.943              3.311
 Vibration     5          0.608              1.934              3.135
 Vibration     6          0.617              1.907              2.727
 Vibration     7          0.624              1.884              2.479
 Vibration     8          0.630              1.865              2.317
 Vibration     9          0.645              1.816              1.988
 Vibration    10          0.651              1.799              1.899
 Vibration    11          0.660              1.771              1.766
 Vibration    12          0.668              1.746              1.661
 Vibration    13          0.681              1.707              1.522
 Vibration    14          0.691              1.677              1.426
 Vibration    15          0.700              1.653              1.359
 Vibration    16          0.708              1.630              1.296
 Vibration    17          0.712              1.619              1.268
 Vibration    18          0.734              1.555              1.123
 Vibration    19          0.749              1.515              1.043
 Vibration    20          0.784              1.422              0.885
 Vibration    21          0.806              1.368              0.806
 Vibration    22          0.829              1.313              0.733
 Vibration    23          0.847              1.269              0.679
 Vibration    24          0.885              1.185              0.588
 Vibration    25          0.933              1.083              0.492
 Vibration    26          0.938              1.072              0.483

 Optimization completed.
    -- Stationary point found.
 Normal termination of Gaussian 16 at Mon Aug 24 18:36:06 2020.
 Gaussian 16:  ES64L-G16RevA.03 25-Dec-2016

 ----------------------------------------------------------------------
 # TD(NStates=10, Root=1) B3LYP/6-31G* scf=qc volume pop=NPA density=cu
 rrent Geom=AllCheck Guess=Read
 ----------------------------------------------------------------------

 Structure from the checkpoint file:  "sulfonylfluoride_4_conf83.chk"
 -------------------
 Title Card Required
 -------------------
 Charge =  0 Multiplicity = 1

                         Standard orientation:
 ---------------------------------------------------------------------
 Center     Atomic      Atomic             Coordinates (Angstroms)
 Number     Number       Type             X           Y           Z
 ---------------------------------------------------------------------
      1          6           0       -1.332623    0.177762    0.662064
      2          6           0       -0.247489    1.150737    0.116235
      3          6           0        0.984376    0.594861   -0.654950
      4          9           0        0.583302   -0.034790   -1.768984
      5          9           0        1.747409    1.651093   -0.984432
      6         16           0        2.173896   -0.549655    0.253374
      7          8           0        3.295854   -0.773993   -0.628449
      8          8           0        2.299429   -0.152757    1.636775
      9          9           0        1.252775   -1.869917    0.203327
     10          9           0       -0.851883    2.005817   -0.743314
     11          9           0        0.219047    1.846658    1.173681
     12          9           0       -2.247263    0.959967    1.277562
     13          9           0       -0.757302   -0.635459    1.578253
     14          6           0       -2.098469   -0.710680   -0.353415
     15          9           0       -2.570797    0.026272   -1.365200
     16          9           0       -1.295403   -1.664035   -0.842418
     17          9           0       -3.122038   -1.293117    0.278169
 ---------------------------------------------------------------------

 SCF Done:  E(RB3LYP) =  -1699.35394328     a.u. after    1 cycles

 Excitation energies and oscillator strengths:

 Excited State   1:      Singlet-A      7.4931 eV  165.46 nm  f=0.0003  <S**2>=0.000
      72 -> 74        -0.36493
      72 -> 75         0.11531
      73 -> 74         0.53756
      73 -> 75        -0.18868
      73 -> 76         0.10440
 This state for optimization and/or second-order correction.
 Total Energy, E(TD-HF/TD-DFT) =  -1699.07857633
 Copying the excited state density for this state as the 1-particle RhoCI density.

 Excited State   2:      Singlet-A      7.6797 eV  161.44 nm  f=0.0022  <S**2>=0.000
      71 -> 74         0.10867
      71 -> 75        -0.21133
      72 -> 75         0.52224
      73 -> 74        -0.26635
      73 -> 75        -0.28282

 Excited State   3:      Singlet-A      7.7519 eV  159.94 nm  f=0.0040  <S**2>=0.000
      70 -> 75        -0.12110
      72 -> 74        -0.30530
      72 -> 75         0.29941
      73 -> 75         0.51255

 Excited State   4:      Singlet-A      8.0238 eV  154.52 nm  f=0.0032  <S**2>=0.000
      70 -> 74        -0.18385
      71 -> 74         0.62458
      71 -> 75         0.14538
      72 -> 74        -0.15909

 Excited State   5:      Singlet-A      8.1338 eV  152.43 nm  f=0.1419  <S**2>=0.000
      71 -> 74         0.19803
      72 -> 74         0.45854
      72 -> 75         0.21793
      73 -> 74         0.32413
      73 -> 75         0.22411

 Excited State   6:      Singlet-A      8.4212 eV  147.23 nm  f=0.0150  <S**2>=0.000
      70 -> 75        -0.11747
      71 -> 75         0.56664
      72 -> 74         0.11741
      72 -> 75         0.16720
      73 -> 75        -0.14622
      73 -> 76         0.19467
      73 -> 78         0.10360

 Excited State   7:      Singlet-A      8.6129 eV  143.95 nm  f=0.0334  <S**2>=0.000
      70 -> 74         0.62351
      70 -> 75         0.15198
      71 -> 74         0.15757
      73 -> 76        -0.13721

 Excited State   8:      Singlet-A      8.7567 eV  141.59 nm  f=0.0088  <S**2>=0.000
      70 -> 74        -0.11227
      70 -> 75         0.61172
      71 -> 75         0.14400
      72 -> 76         0.18939

 Excited State   9:      Singlet-A      8.8628 eV  139.89 nm  f=0.0057  <S**2>=0.000
      70 -> 75        -0.14213
      72 -> 76         0.63047
      72 -> 78         0.11577
      73 -> 76        -0.13789

 Excited State  10:      Singlet-A      8.9530 eV  138.48 nm  f=0.0083  <S**2>=0.000
      69 -> 75        -0.11082
      70 -> 74         0.13381
      71 -> 74         0.12553
      71 -> 75        -0.13959
      71 -> 76        -0.19129
      71 -> 78        -0.12188
      72 -> 76         0.12806
      73 -> 76         0.57266

 The electronic state is 1-A.
 Alpha  occ. eigenvalues --  -89.18887 -24.78936 -24.78516 -24.77634 -24.77157
 Alpha  occ. eigenvalues --  -24.77111 -24.77092 -24.77071 -24.77068 -24.76837
 Alpha  occ. eigenvalues --  -24.76699 -19.21553 -19.21459 -10.48264 -10.44987
 Alpha  occ. eigenvalues --  -10.43354 -10.42669  -8.21325  -6.17985  -6.17635
 Alpha  occ. eigenvalues --   -6.17567  -1.35608  -1.34402  -1.32364  -1.30554
 Alpha  occ. eigenvalues --   -1.28955  -1.27719  -1.26771  -1.26274  -1.25951
 Alpha  occ. eigenvalues --   -1.25434  -1.15385  -1.07548  -0.85797  -0.81033
 Alpha  occ. eigenvalues --   -0.75856  -0.72147  -0.68692  -0.65859  -0.64438
 Alpha  occ. eigenvalues --   -0.63975  -0.63926  -0.62743  -0.62307  -0.60214
 Alpha  occ. eigenvalues --   -0.59943  -0.59032  -0.56216  -0.53517  -0.52213
 Alpha  occ. eigenvalues --   -0.51808  -0.51395  -0.50184  -0.50051  -0.49464
 Alpha  occ. eigenvalues --   -0.48782  -0.48283  -0.47541  -0.47466  -0.47314
 Alpha  occ. eigenvalues --   -0.46587  -0.46463  -0.45584  -0.45469  -0.44883
 Alpha  occ. eigenvalues --   -0.44680  -0.43995  -0.42609  -0.41670  -0.38630
 Alpha  occ. eigenvalues --   -0.37978  -0.36257  -0.36162
 Alpha virt. eigenvalues --   -0.03328  -0.02803   0.00809   0.02975   0.04664
 Alpha virt. eigenvalues --    0.06194   0.08961   0.12497   0.15710   0.17051
 Alpha virt. eigenvalues --    0.17957   0.19181   0.21186   0.22673   0.24723

 Mulliken charges:
               1
     1  C    0.479539
     2  C    0.527970
     3  C    0.323717
     4  F   -0.243210
     5  F   -0.258902
     6  S    1.043333
     7  O   -0.287285
     8  O   -0.294754
     9  F   -0.280412
    10  F   -0.270026
    11  F   -0.266410
    12  F   -0.266846
    13  F   -0.263225
    14  C    0.780172
    15  F   -0.240205
    16  F   -0.240254
    17  F   -0.243202
 Sum of Mulliken charges =   0.00000

 Dipole moment (field-independent basis, Debye):
    X=              0.3975    Y=              0.1562    Z=             -0.0135  Tot=              0.4273
 Quadrupole moment (field-independent basis, Debye-Ang):
   XX=            -94.4417   YY=            -97.2396   ZZ=            -95.9803
   XY=              0.7444   XZ=              0.5584   YZ=              0.0004

 Summary of Natural Population Analysis:

                                       Natural Population
                Natural  -----------------------------------------------
    Atom  No    Charge         Core      Valence    Rydberg      Total
 -----------------------------------------------------------------------
      C    1    0.64626      1.99885     3.30066    0.05423     5.35374
      C    2    0.64876      1.99883     3.29484    0.05757     5.35124
      C    3    0.47286      1.99913     3.46136    0.06665     5.52714
      F    4   -0.33780      1.99993     7.32811    0.00977     9.33780
      F    5   -0.35014      1.99993     7.34095    0.00926     9.35014
      S    6    2.02144      9.99908     3.76339    0.21609    13.97856
      O    7   -0.63216      1.99989     6.60827    0.02400     8.63216
      O    8   -0.62908      1.99989     6.60539    0.02381     8.62908
      F    9   -0.50834      1.99997     7.49814    0.01023     9.50834
      F   10   -0.34462      1.99994     7.33602    0.00866     9.34462
      F   11   -0.34284      1.99993     7.33436    0.00855     9.34284
      F   12   -0.33939      1.99994     7.33098    0.00847     9.33939
      F   13   -0.34664      1.99993     7.33817    0.00854     9.34664
      C   14    1.07370      1.99926     2.85315    0.07390     4.92630
      F   15   -0.34492      1.99993     7.33768    0.00732     9.34492
      F   16   -0.34468      1.99993     7.33706    0.00769     9.34468
      F   17   -0.34241      1.99993     7.33514    0.00734     9.34241
 =======================================================================
   * Total *   -0.00000     41.99428   103.40367    0.60206   146.00000

 Normal termination of Gaussian 16 at Mon Aug 24 18:45:34 2020.
