 Gaussian 16, Revision A.03,

 ---------------------------------
 # opt=CalcAll B3LYP/6-31G* scf=qc
 ---------------------------------

 -------------------
 Title Card Required
 -------------------
 Symbolic Z-matrix:
 Charge =  0 Multiplicity = 1

 SCF Done:  E(RB3LYP) =  -919.350681771     a.u. after    9 cycles
 SCF Done:  E(RB3LYP) =  -919.358521003     a.u. after   15 cycles
 SCF Done:  E(RB3LYP) =  -919.375239981     a.u. after   15 cycles
 SCF Done:  E(RB3LYP) =  -919.379568151     a.u. after   15 cycles
 SCF Done:  E(RB3LYP) =  -919.380761800     a.u. after   15 cycles
 SCF Done:  E(RB3LYP) =  -919.380969745     a.u. after   11 cycles
 SCF Done:  E(RB3LYP) =  -919.380985445     a.u. after    7 cycles
 SCF Done:  E(RB3LYP) =  -919.380989595     a.u. after    5 cycles
 SCF Done:  E(RB3LYP) =  -919.380989884     a.u. after    2 cycles
 Optimization completed.
    -- Stationary point found.
 Normal termination of Gaussian 16 at Mon Aug 24 18:11:13 2020.

 ----------------------------------------------------------------------
 # freq B3LYP/6-31G* scf=qc volume NMR pop=NPA density=current Geom=All
 Check Guess=Read
 ----------------------------------------------------------------------

 Structure from the checkpoint file:  "sulfonylfluoride_6_conf132.chk"
 -------------------
 Title Card Required
 -------------------
 Charge =  0 Multiplicity = 1

 SCF Done:  E(RB3LYP) =  -919.380989884     a.u. after    1 cycles

      1  C    Isotropic =   126.7502   Anisotropy =    45.1978

      2  H    Isotropic =    28.2986   Anisotropy =     3.8307

      3  H    Isotropic =    28.1447   Anisotropy =     3.4905

      4  C    Isotropic =    69.8208   Anisotropy =   159.3539

      5  C    Isotropic =    64.4001   Anisotropy =   160.8411

      6  C    Isotropic =    67.4577   Anisotropy =   167.5289

      7  C    Isotropic =    66.5458   Anisotropy =   172.3575

      8  C    Isotropic =    67.7503   Anisotropy =   166.8093

      9  C    Isotropic =    65.0594   Anisotropy =   157.3650

     10  S    Isotropic =   199.7802   Anisotropy =   298.3359

     11  O    Isotropic =    87.8953   Anisotropy =    70.6254

     12  O    Isotropic =    91.3520   Anisotropy =    76.0579

     13  F    Isotropic =   122.4459   Anisotropy =   350.2921

     14  H    Isotropic =    24.8772   Anisotropy =     7.3740

     15  H    Isotropic =    24.8601   Anisotropy =     4.7396

     16  H    Isotropic =    24.8645   Anisotropy =     4.2723

     17  H    Isotropic =    24.9029   Anisotropy =     4.7483

     18  H    Isotropic =    24.9578   Anisotropy =     7.2703

  Exact polarizability: 119.453   0.016  93.575 -17.021   1.498  56.471
 Approx polarizability: 175.275  -2.224 167.041 -35.932   4.963  92.307

                      1                      2                      3
                      A                      A                      A
 Frequencies --     24.3421                61.2108                81.6750
 Red. masses --      5.4914                 5.9462                 7.0025
 Frc consts  --      0.0019                 0.0131                 0.0275
 IR Inten    --      0.1791                 1.2068                 1.7805

                      4                      5                      6
                      A                      A                      A
 Frequencies --    208.1729               241.0430               267.7479
 Red. masses --      6.4213                 8.3092                 8.9256
 Frc consts  --      0.1640                 0.2844                 0.3770
 IR Inten    --      1.7443                 0.1055                 1.0804

                      7                      8                      9
                      A                      A                      A
 Frequencies --    355.4559               410.0344               414.4219
 Red. masses --      1.9860                10.5753                 3.0776
 Frc consts  --      0.1478                 1.0476                 0.3114
 IR Inten    --      1.0480                 9.8478                 0.6927

                     10                     11                     12
                      A                      A                      A
 Frequencies --    440.7573               463.5888               532.8550
 Red. masses --      7.7529                 5.6469                 6.0109
 Frc consts  --      0.8874                 0.7150                 1.0056
 IR Inten    --     10.4229                 9.5269                76.5344

                     13                     14                     15
                      A                      A                      A
 Frequencies --    609.0740               634.8656               685.9129
 Red. masses --      5.5289                 6.2699                 6.9481
 Frc consts  --      1.2085                 1.4889                 1.9260
 IR Inten    --     20.6338                 0.0288                23.7750

                     16                     17                     18
                      A                      A                      A
 Frequencies --    709.7073               766.8594               810.6840
 Red. masses --      1.7165                 2.7445                 4.0917
 Frc consts  --      0.5094                 0.9509                 1.5844
 IR Inten    --     31.4260                27.2127               115.7678

                     19                     20                     21
                      A                      A                      A
 Frequencies --    835.9839               854.7997               917.5345
 Red. masses --      4.2076                 1.2555                 1.8010
 Frc consts  --      1.7325                 0.5405                 0.8933
 IR Inten    --      0.1136                 0.1119                10.3531

                     22                     23                     24
                      A                      A                      A
 Frequencies --    930.8981               967.7109              1001.8607
 Red. masses --      1.4455                 1.3570                 1.2745
 Frc consts  --      0.7380                 0.7487                 0.7537
 IR Inten    --      5.9034                 0.0413                 0.0341

                     25                     26                     27
                      A                      A                      A
 Frequencies --   1019.2492              1058.8922              1113.9358
 Red. masses --      6.1135                 2.2448                 1.5817
 Frc consts  --      3.7420                 1.4829                 1.1564
 IR Inten    --      1.0736                 1.6598                 4.2742

                     28                     29                     30
                      A                      A                      A
 Frequencies --   1162.5722              1195.6353              1197.6532
 Red. masses --      2.5859                 1.2563                 1.3753
 Frc consts  --      2.0592                 1.0582                 1.1623
 IR Inten    --    105.6442                25.2658                48.6859

                     31                     32                     33
                      A                      A                      A
 Frequencies --   1218.0383              1232.3253              1310.3672
 Red. masses --      1.1405                 2.6964                 1.5427
 Frc consts  --      0.9969                 2.4126                 1.5607
 IR Inten    --      0.1189                 7.0128                23.1261

                     34                     35                     36
                      A                      A                      A
 Frequencies --   1361.9026              1372.2999              1394.3700
 Red. masses --      5.1077                 1.3315                 9.3757
 Frc consts  --      5.5817                 1.4773                10.7402
 IR Inten    --      3.4542                 0.9647               180.7826

                     37                     38                     39
                      A                      A                      A
 Frequencies --   1485.0967              1504.5259              1547.7426
 Red. masses --      1.1093                 2.2134                 2.2167
 Frc consts  --      1.4414                 2.9519                 3.1287
 IR Inten    --      7.9212                 8.4262                 6.6745

                     40                     41                     42
                      A                      A                      A
 Frequencies --   1647.0346              1665.2684              3091.8996
 Red. masses --      5.5106                 5.5072                 1.0602
 Frc consts  --      8.8075                 8.9981                 5.9713
 IR Inten    --      0.5992                 0.0427                 3.6939

                     43                     44                     45
                      A                      A                      A
 Frequencies --   3151.4382              3186.1521              3190.6239
 Red. masses --      1.1063                 1.0858                 1.0878
 Frc consts  --      6.4734                 6.4945                 6.5247
 IR Inten    --      0.0969                 2.4041                 0.4814

                     46                     47                     48
                      A                      A                      A
 Frequencies --   3198.0968              3207.2227              3215.9446
 Red. masses --      1.0911                 1.0945                 1.0981
 Frc consts  --      6.5752                 6.6334                 6.6916
 IR Inten    --     11.4593                26.4312                12.7322

 - Thermochemistry -
 -------------------
 Temperature   298.150 Kelvin.  Pressure   1.00000 Atm.
 Atom     1 has atomic number  6 and mass  12.00000

 Molecular mass:   174.01508 amu.
 Principal axes and moments of inertia in atomic units:
                           1         2         3
     Eigenvalues --   768.740963094.808863355.94715
           X            0.99992   0.00285  -0.01208
           Y           -0.00268   0.99990   0.01387
           Z            0.01212  -0.01383   0.99983
 This molecule is an asymmetric top.
 Rotational symmetry number  1.
 Warning -- assumption of classical behavior for rotation
           may cause significant error
 Rotational temperatures (Kelvin)      0.11267     0.02799     0.02581
 Rotational constants (GHZ):           2.34766     0.58315     0.53777
 Zero-point vibrational energy     346650.8 (Joules/Mol)
                                   82.85152 (Kcal/Mol)
 Warning -- explicit consideration of  13 degrees of freedom as
           vibrations may cause significant error
 Vibrational temperatures:     35.02    88.07   117.51   299.51   346.81
          (Kelvin)            385.23   511.42   589.95   596.26   634.15
                              667.00   766.66   876.32   913.43   986.88
                             1021.11  1103.34  1166.39  1202.79  1229.87
                             1320.13  1339.35  1392.32  1441.45  1466.47
                             1523.51  1602.71  1672.68  1720.25  1723.16
                             1752.49  1773.04  1885.33  1959.47  1974.43
                             2006.19  2136.72  2164.68  2226.86  2369.72
                             2395.95  4448.55  4534.22  4584.16  4590.60
                             4601.35  4614.48  4627.03

 Zero-point correction=                           0.132032 (Hartree/Particle)
 Thermal correction to Energy=                    0.141744
 Thermal correction to Enthalpy=                  0.142689
 Thermal correction to Gibbs Free Energy=         0.095088
 Sum of electronic and zero-point Energies=           -919.248958
 Sum of electronic and thermal Energies=              -919.239245
 Sum of electronic and thermal Enthalpies=            -919.238301
 Sum of electronic and thermal Free Energies=         -919.285901

                     E (Thermal)             CV                S
                      KCal/Mol        Cal/Mol-Kelvin    Cal/Mol-Kelvin
 Total                   88.946             36.176            100.183
 Electronic               0.000              0.000              0.000
 Translational            0.889              2.981             41.369
 Rotational               0.889              2.981             30.458
 Vibrational             87.169             30.215             28.356
 Vibration     1          0.593              1.985              6.244
 Vibration     2          0.597              1.973              4.418
 Vibration     3          0.600              1.962              3.850
 Vibration     4          0.641              1.828              2.060
 Vibration     5          0.658              1.778              1.795
 Vibration     6          0.673              1.732              1.611
 Vibration     7          0.731              1.564              1.142
 Vibration     8          0.774              1.448              0.926
 Vibration     9          0.778              1.439              0.911
 Vibration    10          0.801              1.381              0.824
 Vibration    11          0.821              1.331              0.756
 Vibration    12          0.888              1.177              0.581
 Vibration    13          0.968              1.013              0.434

 Optimization completed.
    -- Stationary point found.
 Normal termination of Gaussian 16 at Mon Aug 24 18:14:37 2020.
 Gaussian 16:  ES64L-G16RevA.03 25-Dec-2016

 ----------------------------------------------------------------------
 # TD(NStates=10, Root=1) B3LYP/6-31G* scf=qc volume pop=NPA density=cu
 rrent Geom=AllCheck Guess=Read
 ----------------------------------------------------------------------

 Structure from the checkpoint file:  "sulfonylfluoride_6_conf133.chk"
 -------------------
 Title Card Required
 -------------------
 Charge =  0 Multiplicity = 1

                         Standard orientation:
 ---------------------------------------------------------------------
 Center     Atomic      Atomic             Coordinates (Angstroms)
 Number     Number       Type             X           Y           Z
 ---------------------------------------------------------------------
      1          6           0        0.601777   -0.000797   -1.168813
      2          1           0        0.804372    0.858097   -1.816623
      3          1           0        0.844174   -0.912339   -1.721218
      4          6           0       -0.798056    0.002427   -0.622246
      5          6           0       -1.456113    1.211335   -0.363453
      6          6           0       -2.753135    1.210955    0.147499
      7          6           0       -3.402255    0.002624    0.408300
      8          6           0       -2.749309   -1.205999    0.159140
      9          6           0       -1.451654   -1.206102   -0.350484
     10         16           0        1.901310    0.124692    0.103558
     11          8           0        3.201763   -0.068141   -0.513237
     12          8           0        1.636539    1.217017    1.020780
     13          9           0        1.565378   -1.247943    0.905481
     14          1           0       -0.950129    2.153088   -0.558524
     15          1           0       -3.255885    2.153977    0.342202
     16          1           0       -4.413941    0.002886    0.804405
     17          1           0       -3.249264   -2.148908    0.361703
     18          1           0       -0.942639   -2.148046   -0.538221
 ---------------------------------------------------------------------

 SCF Done:  E(RB3LYP) =  -919.380989884     a.u. after    1 cycles

 Excitation energies and oscillator strengths:

 Excited State   1:      Singlet-A      5.3283 eV  232.69 nm  f=0.0032  <S**2>=0.000
      44 -> 46         0.54257
      45 -> 47        -0.44965
 This state for optimization and/or second-order correction.
 Total Energy, E(TD-HF/TD-DFT) =  -919.185177022
 Copying the excited state density for this state as the 1-particle RhoCI density.

 Excited State   2:      Singlet-A      5.9305 eV  209.06 nm  f=0.1280  <S**2>=0.000
      44 -> 47         0.32327
      45 -> 46         0.62373

 Excited State   3:      Singlet-A      6.7080 eV  184.83 nm  f=0.0811  <S**2>=0.000
      44 -> 46         0.25139
      44 -> 47        -0.12979
      44 -> 48         0.11346
      45 -> 47         0.33173
      45 -> 48         0.53242

 Excited State   4:      Singlet-A      6.8025 eV  182.26 nm  f=0.2692  <S**2>=0.000
      43 -> 46         0.10981
      44 -> 46         0.20139
      44 -> 47         0.39277
      44 -> 48         0.38770
      45 -> 46        -0.19476
      45 -> 47         0.21272
      45 -> 48        -0.20958

 Excited State   5:      Singlet-A      6.9993 eV  177.14 nm  f=0.4557  <S**2>=0.000
      41 -> 46         0.13616
      44 -> 46        -0.21732
      44 -> 47         0.39241
      45 -> 46        -0.21157
      45 -> 47        -0.24020
      45 -> 48         0.38453

 Excited State   6:      Singlet-A      7.0407 eV  176.10 nm  f=0.0154  <S**2>=0.000
      43 -> 46         0.59120
      44 -> 48        -0.34767

 Excited State   7:      Singlet-A      7.1021 eV  174.57 nm  f=0.1742  <S**2>=0.000
      43 -> 46         0.33963
      44 -> 46        -0.19544
      44 -> 47        -0.18097
      44 -> 48         0.45288
      45 -> 47        -0.24292
      45 -> 48         0.10301

 Excited State   8:      Singlet-A      7.4416 eV  166.61 nm  f=0.0035  <S**2>=0.000
      40 -> 46         0.19048
      41 -> 46        -0.18829
      42 -> 46         0.62123

 Excited State   9:      Singlet-A      7.5357 eV  164.53 nm  f=0.0107  <S**2>=0.000
      39 -> 46        -0.14853
      40 -> 46         0.50100
      41 -> 46        -0.35976
      42 -> 46        -0.23848

 Excited State  10:      Singlet-A      7.5519 eV  164.18 nm  f=0.0048  <S**2>=0.000
      41 -> 46        -0.10567
      42 -> 48         0.12299
      43 -> 47         0.53025
      43 -> 48         0.39585

 The electronic state is 1-A.
 Alpha  occ. eigenvalues --  -89.15015 -24.73461 -19.17472 -19.17408 -10.25784
 Alpha  occ. eigenvalues --  -10.22474 -10.21079 -10.20997 -10.20798 -10.20719
 Alpha  occ. eigenvalues --  -10.20677  -8.17415  -6.14101  -6.13749  -6.13610
 Alpha  occ. eigenvalues --   -1.24626  -1.11393  -1.03330  -0.87931  -0.81850
 Alpha  occ. eigenvalues --   -0.76282  -0.74208  -0.65644  -0.62549  -0.60950
 Alpha  occ. eigenvalues --   -0.55396  -0.53035  -0.52238  -0.50208  -0.48757
 Alpha  occ. eigenvalues --   -0.47718  -0.44360  -0.44133  -0.43562  -0.43273
 Alpha  occ. eigenvalues --   -0.42713  -0.38477  -0.37945  -0.36985  -0.36020
 Alpha  occ. eigenvalues --   -0.34128  -0.33955  -0.32360  -0.26733  -0.26482
 Alpha virt. eigenvalues --   -0.03340  -0.01860   0.01491   0.05226   0.07061
 Alpha virt. eigenvalues --    0.09562   0.09899   0.10428   0.12275   0.14490
 Alpha virt. eigenvalues --    0.14791   0.16387   0.17276   0.18167   0.22856

 Mulliken charges:
               1
     1  C   -0.598252
     2  H    0.216903
     3  H    0.218913
     4  C    0.161632
     5  C   -0.151909
     6  C   -0.128245
     7  C   -0.131869
     8  C   -0.127639
     9  C   -0.158821
    10  S    1.214109
    11  O   -0.477259
    12  O   -0.473976
    13  F   -0.313497
    14  H    0.154568
    15  H    0.151167
    16  H    0.143698
    17  H    0.150242
    18  H    0.150237
 Sum of Mulliken charges =   0.00000

 Dipole moment (field-independent basis, Debye):
    X=             -4.5552    Y=             -0.5981    Z=             -2.0744  Tot=              5.0409
 Quadrupole moment (field-independent basis, Debye-Ang):
   XX=            -74.5062   YY=            -65.2597   ZZ=            -70.3722
   XY=             -0.9692   XZ=             -3.4008   YZ=             -1.6824

 Summary of Natural Population Analysis:

                                       Natural Population
                Natural  -----------------------------------------------
    Atom  No    Charge         Core      Valence    Rydberg      Total
 -----------------------------------------------------------------------
      C    1   -0.71812      1.99916     4.69907    0.01989     6.71812
      H    2    0.27779      0.00000     0.72015    0.00207     0.72221
      H    3    0.27918      0.00000     0.71872    0.00210     0.72082
      C    4   -0.07838      1.99905     4.05941    0.01991     6.07838
      C    5   -0.18777      1.99907     4.17101    0.01770     6.18777
      C    6   -0.19681      1.99915     4.17993    0.01774     6.19681
      C    7   -0.24667      1.99915     4.23008    0.01743     6.24667
      C    8   -0.19765      1.99914     4.18074    0.01776     6.19765
      C    9   -0.19179      1.99907     4.17493    0.01780     6.19179
      S   10    2.37793      9.99891     3.42030    0.20287    13.62207
      O   11   -0.89902      1.99989     6.87575    0.02339     8.89902
      O   12   -0.89758      1.99988     6.87391    0.02379     8.89758
      F   13   -0.51014      1.99997     7.50104    0.00914     9.51014
      H   14    0.23937      0.00000     0.75945    0.00118     0.76063
      H   15    0.23827      0.00000     0.76089    0.00084     0.76173
      H   16    0.23702      0.00000     0.76218    0.00080     0.76298
      H   17    0.23782      0.00000     0.76134    0.00084     0.76218
      H   18    0.23656      0.00000     0.76224    0.00121     0.76344
 =======================================================================
   * Total *    0.00000     29.99243    59.61112    0.39645    90.00000

 Normal termination of Gaussian 16 at Mon Aug 24 18:19:03 2020.
