 Gaussian 16, Revision A.03,

 ---------------------------------
 # opt=CalcAll B3LYP/6-31G* scf=qc
 ---------------------------------

 -------------------
 Title Card Required
 -------------------
 Symbolic Z-matrix:
 Charge =  0 Multiplicity = 1

 SCF Done:  E(RB3LYP) =  -1699.32815397     a.u. after    9 cycles
 SCF Done:  E(RB3LYP) =  -1699.35098966     a.u. after   15 cycles
 SCF Done:  E(RB3LYP) =  -1699.35517430     a.u. after   13 cycles
 SCF Done:  E(RB3LYP) =  -1699.35771615     a.u. after   15 cycles
 SCF Done:  E(RB3LYP) =  -1699.35796097     a.u. after    9 cycles
 SCF Done:  E(RB3LYP) =  -1699.35796691     a.u. after    4 cycles
 SCF Done:  E(RB3LYP) =  -1699.35796699     a.u. after    2 cycles
 Optimization completed.
    -- Stationary point found.
 Normal termination of Gaussian 16 at Mon Aug 24 17:52:07 2020.

 ----------------------------------------------------------------------
 # freq B3LYP/6-31G* scf=qc volume NMR pop=NPA density=current Geom=All
 Check Guess=Read
 ----------------------------------------------------------------------

 Structure from the checkpoint file:  "sulfonylfluoride_4_conf192.chk"
 -------------------
 Title Card Required
 -------------------
 Charge =  0 Multiplicity = 1

 SCF Done:  E(RB3LYP) =  -1699.35796699     a.u. after    1 cycles

      1  C    Isotropic =    76.8696   Anisotropy =    13.3865

      2  C    Isotropic =    77.6279   Anisotropy =    16.7703

      3  C    Isotropic =    68.7247   Anisotropy =    18.3237

      4  F    Isotropic =   299.9999   Anisotropy =    63.5727

      5  F    Isotropic =   295.8884   Anisotropy =    62.6455

      6  S    Isotropic =   218.4142   Anisotropy =   362.6750

      7  O    Isotropic =    97.2548   Anisotropy =    87.3484

      8  O    Isotropic =    92.0867   Anisotropy =    76.8552

      9  F    Isotropic =   116.8415   Anisotropy =   359.8967

     10  F    Isotropic =   318.8903   Anisotropy =    77.7732

     11  F    Isotropic =   317.2208   Anisotropy =    70.2737

     12  F    Isotropic =   319.1421   Anisotropy =    69.6796

     13  F    Isotropic =   325.3716   Anisotropy =    69.6347

     14  C    Isotropic =    68.5523   Anisotropy =    12.5961

     15  F    Isotropic =   278.6854   Anisotropy =   107.0281

     16  F    Isotropic =   275.0492   Anisotropy =   105.6955

     17  F    Isotropic =   279.1678   Anisotropy =   116.3186

  Exact polarizability:  81.059   0.907  63.266   0.850   0.751  60.848
 Approx polarizability: 100.560  -2.686 106.241   1.322   2.324 104.909

                      1                      2                      3
                      A                      A                      A
 Frequencies --     31.3171                47.7972                51.5650
 Red. masses --     18.2817                17.8589                17.9539
 Frc consts  --      0.0106                 0.0240                 0.0281
 IR Inten    --      0.0389                 0.2326                 0.1629

                      4                      5                      6
                      A                      A                      A
 Frequencies --     59.4018                91.3013               158.4545
 Red. masses --     18.5777                17.9501                17.9643
 Frc consts  --      0.0386                 0.0882                 0.2657
 IR Inten    --      0.1394                 0.6877                 0.1760

                      7                      8                      9
                      A                      A                      A
 Frequencies --    170.9340               183.6284               205.7094
 Red. masses --     18.1064                18.2114                18.3362
 Frc consts  --      0.3117                 0.3618                 0.4572
 IR Inten    --      0.0854                 4.0449                 1.9129

                     10                     11                     12
                      A                      A                      A
 Frequencies --    231.3909               235.8120               241.2474
 Red. masses --     18.0032                18.4011                18.6567
 Frc consts  --      0.5679                 0.6029                 0.6398
 IR Inten    --      2.0845                 0.1487                 0.8365

                     13                     14                     15
                      A                      A                      A
 Frequencies --    280.5482               286.6976               297.1266
 Red. masses --     18.4005                18.3141                18.4493
 Frc consts  --      0.8533                 0.8869                 0.9597
 IR Inten    --      2.4519                 5.0078                 0.3071

                     16                     17                     18
                      A                      A                      A
 Frequencies --    330.7612               356.8339               363.1081
 Red. masses --     18.4770                18.3319                18.2343
 Frc consts  --      1.1910                 1.3753                 1.4165
 IR Inten    --      0.5607                 1.0869                 1.2984

                     19                     20                     21
                      A                      A                      A
 Frequencies --    373.7608               422.0998               442.7959
 Red. masses --     18.7209                18.6285                17.7731
 Frc consts  --      1.5409                 1.9555                 2.0532
 IR Inten    --      0.2665                20.6468                 3.0117

                     22                     23                     24
                      A                      A                      A
 Frequencies --    480.4983               521.9765               544.9590
 Red. masses --     18.1257                17.8139                17.8731
 Frc consts  --      2.4656                 2.8596                 3.1274
 IR Inten    --      6.1915                36.0196                22.6972

                     25                     26                     27
                      A                      A                      A
 Frequencies --    563.2609               577.4194               607.9015
 Red. masses --     17.9521                18.1833                18.1959
 Frc consts  --      3.3557                 3.5720                 3.9618
 IR Inten    --     29.9474                87.5410                15.0452

                     28                     29                     30
                      A                      A                      A
 Frequencies --    644.4135               699.4271               733.4289
 Red. masses --     17.8264                16.7309                16.6268
 Frc consts  --      4.3616                 4.8223                 5.2696
 IR Inten    --      8.3561                38.3557                56.3666

                     31                     32                     33
                      A                      A                      A
 Frequencies --    784.5693               826.7616              1042.3495
 Red. masses --     17.8787                17.8981                13.0200
 Frc consts  --      6.4841                 7.2081                 8.3346
 IR Inten    --     98.0647                77.7799                28.3163

                     34                     35                     36
                      A                      A                      A
 Frequencies --   1139.1035              1170.6046              1198.6611
 Red. masses --     13.8026                13.8498                16.9403
 Frc consts  --     10.5521                11.1818                14.3405
 IR Inten    --     43.5798               185.3860                87.0357

                     37                     38                     39
                      A                      A                      A
 Frequencies --   1215.1849              1221.5071              1246.7172
 Red. masses --     13.1634                13.2962                13.1537
 Frc consts  --     11.4526                11.6888                12.0457
 IR Inten    --     14.7000                29.2057               205.5102

                     40                     41                     42
                      A                      A                      A
 Frequencies --   1250.0570              1273.9845              1282.2090
 Red. masses --     13.2771                13.1660                12.6043
 Frc consts  --     12.2240                12.5902                12.2091
 IR Inten    --    185.6638               423.3041               100.5739

                     43                     44                     45
                      A                      A                      A
 Frequencies --   1309.0922              1371.8383              1415.9654
 Red. masses --     12.5625                12.5403                20.6322
 Frc consts  --     12.6843                13.9047                24.3725
 IR Inten    --     52.4448                66.6489               209.6872

 - Thermochemistry -
 -------------------
 Temperature   298.150 Kelvin.  Pressure   1.00000 Atm.
 Atom     1 has atomic number  6 and mass  12.00000

 Molecular mass:   301.94593 amu.
 Principal axes and moments of inertia in atomic units:
                           1         2         3
     Eigenvalues --  1928.060556432.640216631.94362
           X            0.99999   0.00177   0.00265
           Y           -0.00181   0.99987   0.01587
           Z           -0.00262  -0.01588   0.99987
 This molecule is an asymmetric top.
 Rotational symmetry number  1.
 Warning -- assumption of classical behavior for rotation
           may cause significant error
 Rotational temperatures (Kelvin)      0.04492     0.01346     0.01306
 Rotational constants (GHZ):           0.93604     0.28056     0.27213
 Zero-point vibrational energy     167382.6 (Joules/Mol)
                                   40.00540 (Kcal/Mol)
 Warning -- explicit consideration of  27 degrees of freedom as
           vibrations may cause significant error
 Vibrational temperatures:     45.06    68.77    74.19    85.47   131.36
          (Kelvin)            227.98   245.94   264.20   295.97   332.92
                              339.28   347.10   403.65   412.49   427.50
                              475.89   513.40   522.43   537.76   607.31
                              637.08   691.33   751.01   784.07   810.41
                              830.78   874.63   927.17  1006.32  1055.24
                             1128.82  1189.53  1499.71  1638.92  1684.24
                             1724.61  1748.38  1757.48  1793.75  1798.55
                             1832.98  1844.81  1883.49  1973.77  2037.26

 Zero-point correction=                           0.063753 (Hartree/Particle)
 Thermal correction to Energy=                    0.079727
 Thermal correction to Enthalpy=                  0.080671
 Thermal correction to Gibbs Free Energy=         0.018879
 Sum of electronic and zero-point Energies=          -1699.294214
 Sum of electronic and thermal Energies=             -1699.278240
 Sum of electronic and thermal Enthalpies=           -1699.277296
 Sum of electronic and thermal Free Energies=        -1699.339088

                     E (Thermal)             CV                S
                      KCal/Mol        Cal/Mol-Kelvin    Cal/Mol-Kelvin
 Total                   50.030             55.885            130.052
 Electronic               0.000              0.000              0.000
 Translational            0.889              2.981             43.012
 Rotational               0.889              2.981             32.775
 Vibrational             48.252             49.924             54.265
 Vibration     1          0.594              1.983              5.744
 Vibration     2          0.595              1.978              4.907
 Vibration     3          0.596              1.977              4.756
 Vibration     4          0.597              1.974              4.477
 Vibration     5          0.602              1.955              3.632
 Vibration     6          0.621              1.893              2.568
 Vibration     7          0.626              1.878              2.425
 Vibration     8          0.631              1.862              2.291
 Vibration     9          0.640              1.832              2.081
 Vibration    10          0.653              1.793              1.868
 Vibration    11          0.655              1.786              1.834
 Vibration    12          0.658              1.777              1.794
 Vibration    13          0.680              1.710              1.530
 Vibration    14          0.684              1.698              1.493
 Vibration    15          0.691              1.679              1.433
 Vibration    16          0.713              1.614              1.256
 Vibration    17          0.732              1.561              1.136
 Vibration    18          0.737              1.548              1.109
 Vibration    19          0.745              1.526              1.064
 Vibration    20          0.784              1.422              0.885
 Vibration    21          0.802              1.377              0.818
 Vibration    22          0.837              1.293              0.709
 Vibration    23          0.877              1.201              0.605
 Vibration    24          0.900              1.151              0.555
 Vibration    25          0.919              1.111              0.517
 Vibration    26          0.934              1.080              0.490
 Vibration    27          0.967              1.015              0.436

 Optimization completed.
    -- Stationary point found.
 Normal termination of Gaussian 16 at Mon Aug 24 17:58:34 2020.
 Gaussian 16:  ES64L-G16RevA.03 25-Dec-2016

 ----------------------------------------------------------------------
 # TD(NStates=10, Root=1) B3LYP/6-31G* scf=qc volume pop=NPA density=cu
 rrent Geom=AllCheck Guess=Read
 ----------------------------------------------------------------------

 Structure from the checkpoint file:  "sulfonylfluoride_4_conf193.chk"
 -------------------
 Title Card Required
 -------------------
 Charge =  0 Multiplicity = 1

                         Standard orientation:
 ---------------------------------------------------------------------
 Center     Atomic      Atomic             Coordinates (Angstroms)
 Number     Number       Type             X           Y           Z
 ---------------------------------------------------------------------
      1          6           0        1.512244    0.511397    0.171543
      2          6           0        0.191280   -0.280790   -0.050395
      3          6           0       -1.054675    0.637419   -0.176443
      4          9           0       -1.060303    1.558990    0.796855
      5          9           0       -1.065838    1.233253   -1.376271
      6         16           0       -2.695464   -0.292110   -0.077339
      7          8           0       -3.746927    0.662362   -0.344717
      8          8           0       -2.581445   -1.573096   -0.737308
      9          9           0       -2.674882   -0.554754    1.510477
     10          9           0        0.292544   -1.002794   -1.185977
     11          9           0        0.009601   -1.110834    1.000795
     12          9           0        1.524684    0.971866    1.440363
     13          9           0        1.541482    1.559812   -0.685310
     14          6           0        2.801832   -0.324553   -0.050763
     15          9           0        2.733284   -1.470614    0.639156
     16          9           0        2.962785   -0.599397   -1.348364
     17          9           0        3.853344    0.381004    0.378271
 ---------------------------------------------------------------------

 SCF Done:  E(RB3LYP) =  -1699.35796699     a.u. after    1 cycles

 Excitation energies and oscillator strengths:

 Excited State   1:      Singlet-A      7.4239 eV  167.01 nm  f=0.0002  <S**2>=0.000
      72 -> 74         0.66690
      72 -> 75         0.17902
      72 -> 76         0.12363
 This state for optimization and/or second-order correction.
 Total Energy, E(TD-HF/TD-DFT) =  -1699.08514381
 Copying the excited state density for this state as the 1-particle RhoCI density.

 Excited State   2:      Singlet-A      7.6122 eV  162.88 nm  f=0.0624  <S**2>=0.000
      70 -> 75        -0.10990
      72 -> 75        -0.19375
      73 -> 74         0.43006
      73 -> 75         0.48940

 Excited State   3:      Singlet-A      7.7120 eV  160.77 nm  f=0.0840  <S**2>=0.000
      71 -> 75        -0.26335
      72 -> 74        -0.12807
      72 -> 75         0.49322
      73 -> 74         0.37449

 Excited State   4:      Singlet-A      7.7381 eV  160.23 nm  f=0.1326  <S**2>=0.000
      71 -> 74        -0.14010
      72 -> 74        -0.11310
      72 -> 75         0.28282
      73 -> 74        -0.37157
      73 -> 75         0.46354

 Excited State   5:      Singlet-A      7.9574 eV  155.81 nm  f=0.0293  <S**2>=0.000
      71 -> 74         0.67274
      71 -> 76         0.10771

 Excited State   6:      Singlet-A      8.4437 eV  146.84 nm  f=0.0100  <S**2>=0.000
      71 -> 75         0.57277
      72 -> 75         0.19961
      72 -> 76         0.18664
      72 -> 78        -0.11882
      73 -> 76         0.17115

 Excited State   7:      Singlet-A      8.6312 eV  143.65 nm  f=0.0074  <S**2>=0.000
      70 -> 74        -0.31649
      70 -> 75        -0.17905
      73 -> 76         0.55982

 Excited State   8:      Singlet-A      8.7187 eV  142.21 nm  f=0.0025  <S**2>=0.000
      70 -> 74         0.57497
      72 -> 76        -0.22673
      73 -> 76         0.25878

 Excited State   9:      Singlet-A      8.9079 eV  139.18 nm  f=0.0154  <S**2>=0.000
      69 -> 75         0.13442
      70 -> 74         0.12093
      70 -> 75        -0.17736
      71 -> 75        -0.12646
      71 -> 76         0.21549
      71 -> 78        -0.11892
      72 -> 75        -0.13201
      72 -> 76         0.52935
      73 -> 77        -0.11169

 Excited State  10:      Singlet-A      8.9720 eV  138.19 nm  f=0.0061  <S**2>=0.000
      68 -> 75        -0.10208
      70 -> 75         0.56402
      71 -> 75        -0.10664
      72 -> 76         0.14771
      73 -> 75         0.11607
      73 -> 76         0.23531
      73 -> 77         0.16164

 The electronic state is 1-A.
 Alpha  occ. eigenvalues --  -89.18698 -24.78843 -24.78657 -24.77503 -24.77416
 Alpha  occ. eigenvalues --  -24.77399 -24.77113 -24.76929 -24.76895 -24.76791
 Alpha  occ. eigenvalues --  -24.76778 -19.21393 -19.21345 -10.48113 -10.44937
 Alpha  occ. eigenvalues --  -10.43426 -10.42679  -8.21136  -6.17793  -6.17449
 Alpha  occ. eigenvalues --   -6.17375  -1.35459  -1.34326  -1.32215  -1.31129
 Alpha  occ. eigenvalues --   -1.28795  -1.27954  -1.26846  -1.26152  -1.26050
 Alpha  occ. eigenvalues --   -1.25421  -1.15201  -1.07375  -0.85580  -0.81718
 Alpha  occ. eigenvalues --   -0.76145  -0.70700  -0.68893  -0.65393  -0.65108
 Alpha  occ. eigenvalues --   -0.63974  -0.63052  -0.62859  -0.62350  -0.60788
 Alpha  occ. eigenvalues --   -0.60622  -0.58735  -0.56063  -0.53371  -0.51859
 Alpha  occ. eigenvalues --   -0.51759  -0.50857  -0.50468  -0.49947  -0.49707
 Alpha  occ. eigenvalues --   -0.49317  -0.48860  -0.47805  -0.47649  -0.47173
 Alpha  occ. eigenvalues --   -0.46463  -0.46134  -0.45871  -0.45232  -0.44796
 Alpha  occ. eigenvalues --   -0.44638  -0.43863  -0.42862  -0.41612  -0.39090
 Alpha  occ. eigenvalues --   -0.37977  -0.36081  -0.35297
 Alpha virt. eigenvalues --   -0.03807  -0.02465   0.00911   0.03105   0.04823
 Alpha virt. eigenvalues --    0.08223   0.09361   0.14094   0.15101   0.17062
 Alpha virt. eigenvalues --    0.17474   0.19568   0.19736   0.22951   0.23938

 Mulliken charges:
               1
     1  C    0.472158
     2  C    0.510705
     3  C    0.316622
     4  F   -0.247137
     5  F   -0.256073
     6  S    1.071146
     7  O   -0.273590
     8  O   -0.284199
     9  F   -0.264709
    10  F   -0.271973
    11  F   -0.269677
    12  F   -0.269538
    13  F   -0.274309
    14  C    0.780901
    15  F   -0.248738
    16  F   -0.243416
    17  F   -0.248175
 Sum of Mulliken charges =   0.00000

 Dipole moment (field-independent basis, Debye):
    X=             -1.4724    Y=             -0.2566    Z=             -0.3987  Tot=              1.5469
 Quadrupole moment (field-independent basis, Debye-Ang):
   XX=            -93.4111   YY=            -96.1093   ZZ=            -96.0468
   XY=              0.6445   XZ=              0.9192   YZ=              0.1540

 Summary of Natural Population Analysis:

                                       Natural Population
                Natural  -----------------------------------------------
    Atom  No    Charge         Core      Valence    Rydberg      Total
 -----------------------------------------------------------------------
      C    1    0.63309      1.99885     3.31132    0.05674     5.36691
      C    2    0.64146      1.99882     3.30354    0.05617     5.35854
      C    3    0.46637      1.99912     3.46657    0.06794     5.53363
      F    4   -0.33896      1.99993     7.32958    0.00945     9.33896
      F    5   -0.34859      1.99993     7.33961    0.00905     9.34859
      S    6    2.04890      9.99911     3.72573    0.22626    13.95110
      O    7   -0.62860      1.99989     6.60454    0.02417     8.62860
      O    8   -0.62077      1.99989     6.59703    0.02384     8.62077
      F    9   -0.48229      1.99997     7.47227    0.01005     9.48229
      F   10   -0.34940      1.99993     7.34120    0.00826     9.34940
      F   11   -0.35352      1.99993     7.34484    0.00875     9.35352
      F   12   -0.34429      1.99993     7.33595    0.00841     9.34429
      F   13   -0.34982      1.99993     7.34168    0.00821     9.34982
      C   14    1.07069      1.99926     2.85515    0.07490     4.92931
      F   15   -0.35049      1.99993     7.34333    0.00724     9.35049
      F   16   -0.34681      1.99993     7.33961    0.00728     9.34681
      F   17   -0.34698      1.99993     7.33988    0.00718     9.34698
 =======================================================================
   * Total *    0.00000     41.99429   103.39183    0.61388   146.00000

 Normal termination of Gaussian 16 at Mon Aug 24 18:07:03 2020.
