 Gaussian 16, Revision A.03,

 ---------------------------------
 # opt=CalcAll B3LYP/6-31G* scf=qc
 ---------------------------------

 -------------------
 Title Card Required
 -------------------
 Symbolic Z-matrix:
 Charge =  0 Multiplicity = 1

 SCF Done:  E(RB3LYP) =  -919.370796601     a.u. after    9 cycles
 SCF Done:  E(RB3LYP) =  -919.378983134     a.u. after   15 cycles
 SCF Done:  E(RB3LYP) =  -919.380580197     a.u. after   15 cycles
 SCF Done:  E(RB3LYP) =  -919.380939380     a.u. after   15 cycles
 SCF Done:  E(RB3LYP) =  -919.380986715     a.u. after    9 cycles
 SCF Done:  E(RB3LYP) =  -919.380989786     a.u. after    5 cycles
 SCF Done:  E(RB3LYP) =  -919.380989883     a.u. after    3 cycles
 Optimization completed.
    -- Stationary point found.
 Normal termination of Gaussian 16 at Mon Aug 24 18:16:29 2020.

 ----------------------------------------------------------------------
 # freq B3LYP/6-31G* scf=qc volume NMR pop=NPA density=current Geom=All
 Check Guess=Read
 ----------------------------------------------------------------------

 Structure from the checkpoint file:  "sulfonylfluoride_6_conf62.chk"
 -------------------
 Title Card Required
 -------------------
 Charge =  0 Multiplicity = 1

 SCF Done:  E(RB3LYP) =  -919.380989883     a.u. after    1 cycles

      1  C    Isotropic =   126.7499   Anisotropy =    45.1966

      2  H    Isotropic =    28.2987   Anisotropy =     3.8305

      3  H    Isotropic =    28.1445   Anisotropy =     3.4906

      4  C    Isotropic =    69.8210   Anisotropy =   159.3551

      5  C    Isotropic =    64.3996   Anisotropy =   160.8357

      6  C    Isotropic =    67.4578   Anisotropy =   167.5283

      7  C    Isotropic =    66.5458   Anisotropy =   172.3575

      8  C    Isotropic =    67.7503   Anisotropy =   166.8098

      9  C    Isotropic =    65.0596   Anisotropy =   157.3703

     10  S    Isotropic =   199.7794   Anisotropy =   298.3367

     11  O    Isotropic =    87.8949   Anisotropy =    70.6251

     12  O    Isotropic =    91.3488   Anisotropy =    76.0565

     13  F    Isotropic =   122.4500   Anisotropy =   350.2866

     14  H    Isotropic =    24.8774   Anisotropy =     7.3736

     15  H    Isotropic =    24.8601   Anisotropy =     4.7395

     16  H    Isotropic =    24.8645   Anisotropy =     4.2723

     17  H    Isotropic =    24.9029   Anisotropy =     4.7484

     18  H    Isotropic =    24.9576   Anisotropy =     7.2706

  Exact polarizability: 119.452   0.017  93.574 -17.022   1.498  56.473
 Approx polarizability: 175.275  -2.222 167.038 -35.934   4.964  92.311

                      1                      2                      3
                      A                      A                      A
 Frequencies --     24.3407                61.2203                81.6739
 Red. masses --      5.4916                 5.9458                 7.0028
 Frc consts  --      0.0019                 0.0131                 0.0275
 IR Inten    --      0.1791                 1.2070                 1.7801

                      4                      5                      6
                      A                      A                      A
 Frequencies --    208.1778               241.0418               267.7476
 Red. masses --      6.4216                 8.3092                 8.9253
 Frc consts  --      0.1640                 0.2844                 0.3770
 IR Inten    --      1.7446                 0.1054                 1.0805

                      7                      8                      9
                      A                      A                      A
 Frequencies --    355.4619               410.0343               414.4217
 Red. masses --      1.9860                10.5756                 3.0775
 Frc consts  --      0.1479                 1.0476                 0.3114
 IR Inten    --      1.0476                 9.8482                 0.6923

                     10                     11                     12
                      A                      A                      A
 Frequencies --    440.7559               463.5885               532.8542
 Red. masses --      7.7543                 5.6467                 6.0105
 Frc consts  --      0.8875                 0.7150                 1.0055
 IR Inten    --     10.4247                 9.5264                76.5303

                     13                     14                     15
                      A                      A                      A
 Frequencies --    609.0724               634.8659               685.9110
 Red. masses --      5.5290                 6.2699                 6.9484
 Frc consts  --      1.2085                 1.4889                 1.9261
 IR Inten    --     20.6348                 0.0287                23.7746

                     16                     17                     18
                      A                      A                      A
 Frequencies --    709.7073               766.8566               810.6807
 Red. masses --      1.7165                 2.7448                 4.0911
 Frc consts  --      0.5094                 0.9510                 1.5841
 IR Inten    --     31.4228                27.2287               115.7491

                     19                     20                     21
                      A                      A                      A
 Frequencies --    835.9839               854.7986               917.5390
 Red. masses --      4.2075                 1.2555                 1.8011
 Frc consts  --      1.7325                 0.5405                 0.8934
 IR Inten    --      0.1140                 0.1121                10.3537

                     22                     23                     24
                      A                      A                      A
 Frequencies --    930.8943               967.7095              1001.8602
 Red. masses --      1.4454                 1.3570                 1.2745
 Frc consts  --      0.7380                 0.7487                 0.7537
 IR Inten    --      5.8983                 0.0413                 0.0341

                     25                     26                     27
                      A                      A                      A
 Frequencies --   1019.2497              1058.8923              1113.9349
 Red. masses --      6.1136                 2.2448                 1.5817
 Frc consts  --      3.7420                 1.4829                 1.1564
 IR Inten    --      1.0735                 1.6598                 4.2745

                     28                     29                     30
                      A                      A                      A
 Frequencies --   1162.5688              1195.6339              1197.6507
 Red. masses --      2.5856                 1.2567                 1.3749
 Frc consts  --      2.0589                 1.0585                 1.1619
 IR Inten    --    105.6272                25.3324                48.6424

                     31                     32                     33
                      A                      A                      A
 Frequencies --   1218.0376              1232.3268              1310.3623
 Red. masses --      1.1405                 2.6963                 1.5427
 Frc consts  --      0.9969                 2.4125                 1.5607
 IR Inten    --      0.1191                 7.0106                23.1252

                     34                     35                     36
                      A                      A                      A
 Frequencies --   1361.9042              1372.2999              1394.3681
 Red. masses --      5.1076                 1.3315                 9.3769
 Frc consts  --      5.5816                 1.4773                10.7415
 IR Inten    --      3.4511                 0.9650               180.7859

                     37                     38                     39
                      A                      A                      A
 Frequencies --   1485.0974              1504.5266              1547.7432
 Red. masses --      1.1093                 2.2134                 2.2167
 Frc consts  --      1.4414                 2.9520                 3.1287
 IR Inten    --      7.9209                 8.4259                 6.6742

                     40                     41                     42
                      A                      A                      A
 Frequencies --   1647.0362              1665.2691              3091.9071
 Red. masses --      5.5107                 5.5072                 1.0602
 Frc consts  --      8.8076                 8.9981                 5.9713
 IR Inten    --      0.5992                 0.0428                 3.6940

                     43                     44                     45
                      A                      A                      A
 Frequencies --   3151.4439              3186.1538              3190.6224
 Red. masses --      1.1063                 1.0858                 1.0878
 Frc consts  --      6.4734                 6.4945                 6.5247
 IR Inten    --      0.0969                 2.4026                 0.4818

                     46                     47                     48
                      A                      A                      A
 Frequencies --   3198.0949              3207.2222              3215.9444
 Red. masses --      1.0911                 1.0945                 1.0981
 Frc consts  --      6.5752                 6.6334                 6.6916
 IR Inten    --     11.4593                26.4320                12.7331

 - Thermochemistry -
 -------------------
 Temperature   298.150 Kelvin.  Pressure   1.00000 Atm.
 Atom     1 has atomic number  6 and mass  12.00000

 Molecular mass:   174.01508 amu.
 Principal axes and moments of inertia in atomic units:
                           1         2         3
     Eigenvalues --   768.745453094.736233355.87347
           X            0.99992   0.00285  -0.01208
           Y           -0.00268   0.99990   0.01385
           Z            0.01212  -0.01382   0.99983
 This molecule is an asymmetric top.
 Rotational symmetry number  1.
 Warning -- assumption of classical behavior for rotation
           may cause significant error
 Rotational temperatures (Kelvin)      0.11267     0.02799     0.02581
 Rotational constants (GHZ):           2.34764     0.58316     0.53779
 Zero-point vibrational energy     346650.8 (Joules/Mol)
                                   82.85153 (Kcal/Mol)
 Warning -- explicit consideration of  13 degrees of freedom as
           vibrations may cause significant error
 Vibrational temperatures:     35.02    88.08   117.51   299.52   346.81
          (Kelvin)            385.23   511.43   589.95   596.26   634.15
                              667.00   766.66   876.32   913.43   986.87
                             1021.11  1103.34  1166.39  1202.79  1229.86
                             1320.13  1339.35  1392.32  1441.45  1466.47
                             1523.51  1602.70  1672.68  1720.25  1723.15
                             1752.48  1773.04  1885.32  1959.48  1974.43
                             2006.18  2136.72  2164.68  2226.86  2369.72
                             2395.95  4448.56  4534.22  4584.16  4590.59
                             4601.35  4614.48  4627.03

 Zero-point correction=                           0.132032 (Hartree/Particle)
 Thermal correction to Energy=                    0.141744
 Thermal correction to Enthalpy=                  0.142689
 Thermal correction to Gibbs Free Energy=         0.095089
 Sum of electronic and zero-point Energies=           -919.248958
 Sum of electronic and thermal Energies=              -919.239245
 Sum of electronic and thermal Enthalpies=            -919.238301
 Sum of electronic and thermal Free Energies=         -919.285901

                     E (Thermal)             CV                S
                      KCal/Mol        Cal/Mol-Kelvin    Cal/Mol-Kelvin
 Total                   88.946             36.176            100.183
 Electronic               0.000              0.000              0.000
 Translational            0.889              2.981             41.369
 Rotational               0.889              2.981             30.458
 Vibrational             87.169             30.215             28.356
 Vibration     1          0.593              1.985              6.244
 Vibration     2          0.597              1.973              4.417
 Vibration     3          0.600              1.962              3.850
 Vibration     4          0.641              1.828              2.060
 Vibration     5          0.658              1.778              1.795
 Vibration     6          0.673              1.732              1.611
 Vibration     7          0.731              1.564              1.142
 Vibration     8          0.774              1.448              0.926
 Vibration     9          0.778              1.439              0.911
 Vibration    10          0.801              1.381              0.824
 Vibration    11          0.821              1.331              0.756
 Vibration    12          0.888              1.177              0.581
 Vibration    13          0.968              1.013              0.434

 Optimization completed.
    -- Stationary point found.
 Normal termination of Gaussian 16 at Mon Aug 24 18:20:06 2020.
 Gaussian 16:  ES64L-G16RevA.03 25-Dec-2016

 ----------------------------------------------------------------------
 # TD(NStates=10, Root=1) B3LYP/6-31G* scf=qc volume pop=NPA density=cu
 rrent Geom=AllCheck Guess=Read
 ----------------------------------------------------------------------

 Structure from the checkpoint file:  "sulfonylfluoride_6_conf63.chk"
 -------------------
 Title Card Required
 -------------------
 Charge =  0 Multiplicity = 1

                         Standard orientation:
 ---------------------------------------------------------------------
 Center     Atomic      Atomic             Coordinates (Angstroms)
 Number     Number       Type             X           Y           Z
 ---------------------------------------------------------------------
      1          6           0        0.601793   -0.000471   -1.168847
      2          1           0        0.804380    0.858607   -1.816416
      3          1           0        0.844219   -0.911858   -1.721494
      4          6           0       -0.798039    0.002576   -0.622284
      5          6           0       -1.456200    1.211409   -0.363407
      6          6           0       -2.753212    1.210881    0.147571
      7          6           0       -3.402212    0.002475    0.408320
      8          6           0       -2.749158   -1.206074    0.159083
      9          6           0       -1.451514   -1.206029   -0.350570
     10         16           0        1.901283    0.124692    0.103602
     11          8           0        3.201765   -0.067939   -0.513195
     12          8           0        1.636449    1.216750    1.021124
     13          9           0        1.565343   -1.248182    0.905117
     14          1           0       -0.950301    2.153217   -0.558433
     15          1           0       -3.256045    2.153846    0.342338
     16          1           0       -4.413890    0.002621    0.804446
     17          1           0       -3.249021   -2.149040    0.361609
     18          1           0       -0.942411   -2.147913   -0.538364
 ---------------------------------------------------------------------

 SCF Done:  E(RB3LYP) =  -919.380989883     a.u. after    1 cycles

 Excitation energies and oscillator strengths:

 Excited State   1:      Singlet-A      5.3283 eV  232.69 nm  f=0.0032  <S**2>=0.000
      44 -> 46         0.54257
      45 -> 47        -0.44966
 This state for optimization and/or second-order correction.
 Total Energy, E(TD-HF/TD-DFT) =  -919.185177348
 Copying the excited state density for this state as the 1-particle RhoCI density.

 Excited State   2:      Singlet-A      5.9305 eV  209.06 nm  f=0.1280  <S**2>=0.000
      44 -> 47         0.32327
      45 -> 46         0.62373

 Excited State   3:      Singlet-A      6.7079 eV  184.83 nm  f=0.0811  <S**2>=0.000
      44 -> 46         0.25140
      44 -> 47        -0.12983
      44 -> 48         0.11340
      45 -> 47         0.33174
      45 -> 48         0.53242

 Excited State   4:      Singlet-A      6.8025 eV  182.26 nm  f=0.2693  <S**2>=0.000
      43 -> 46         0.10978
      44 -> 46         0.20139
      44 -> 47         0.39276
      44 -> 48         0.38775
      45 -> 46        -0.19475
      45 -> 47         0.21273
      45 -> 48        -0.20952

 Excited State   5:      Singlet-A      6.9993 eV  177.14 nm  f=0.4556  <S**2>=0.000
      41 -> 46         0.13615
      44 -> 46        -0.21732
      44 -> 47         0.39240
      45 -> 46        -0.21157
      45 -> 47        -0.24018
      45 -> 48         0.38454

 Excited State   6:      Singlet-A      7.0407 eV  176.10 nm  f=0.0154  <S**2>=0.000
      43 -> 46         0.59125
      44 -> 48        -0.34759

 Excited State   7:      Singlet-A      7.1021 eV  174.57 nm  f=0.1743  <S**2>=0.000
      43 -> 46         0.33955
      44 -> 46        -0.19545
      44 -> 47        -0.18097
      44 -> 48         0.45291
      45 -> 47        -0.24294
      45 -> 48         0.10307

 Excited State   8:      Singlet-A      7.4416 eV  166.61 nm  f=0.0035  <S**2>=0.000
      40 -> 46         0.19038
      41 -> 46        -0.18814
      42 -> 46         0.62130

 Excited State   9:      Singlet-A      7.5357 eV  164.53 nm  f=0.0107  <S**2>=0.000
      39 -> 46        -0.14847
      40 -> 46         0.50115
      41 -> 46        -0.35951
      42 -> 46        -0.23838

 Excited State  10:      Singlet-A      7.5518 eV  164.18 nm  f=0.0048  <S**2>=0.000
      41 -> 46        -0.10602
      42 -> 48         0.12295
      43 -> 47         0.53019
      43 -> 48         0.39580

 The electronic state is 1-A.
 Alpha  occ. eigenvalues --  -89.15015 -24.73461 -19.17472 -19.17408 -10.25784
 Alpha  occ. eigenvalues --  -10.22474 -10.21079 -10.20997 -10.20798 -10.20719
 Alpha  occ. eigenvalues --  -10.20677  -8.17415  -6.14101  -6.13749  -6.13610
 Alpha  occ. eigenvalues --   -1.24626  -1.11393  -1.03330  -0.87931  -0.81850
 Alpha  occ. eigenvalues --   -0.76282  -0.74207  -0.65644  -0.62549  -0.60950
 Alpha  occ. eigenvalues --   -0.55396  -0.53035  -0.52238  -0.50208  -0.48757
 Alpha  occ. eigenvalues --   -0.47718  -0.44360  -0.44133  -0.43562  -0.43273
 Alpha  occ. eigenvalues --   -0.42713  -0.38477  -0.37945  -0.36985  -0.36020
 Alpha  occ. eigenvalues --   -0.34128  -0.33955  -0.32360  -0.26733  -0.26482
 Alpha virt. eigenvalues --   -0.03340  -0.01860   0.01490   0.05226   0.07061
 Alpha virt. eigenvalues --    0.09562   0.09899   0.10428   0.12275   0.14490
 Alpha virt. eigenvalues --    0.14791   0.16387   0.17276   0.18167   0.22856

 Mulliken charges:
               1
     1  C   -0.598252
     2  H    0.216902
     3  H    0.218913
     4  C    0.161631
     5  C   -0.151908
     6  C   -0.128245
     7  C   -0.131869
     8  C   -0.127639
     9  C   -0.158817
    10  S    1.214110
    11  O   -0.477259
    12  O   -0.473974
    13  F   -0.313501
    14  H    0.154562
    15  H    0.151166
    16  H    0.143698
    17  H    0.150243
    18  H    0.150240
 Sum of Mulliken charges =   0.00000

 Dipole moment (field-independent basis, Debye):
    X=             -4.5551    Y=             -0.5976    Z=             -2.0747  Tot=              5.0409
 Quadrupole moment (field-independent basis, Debye-Ang):
   XX=            -74.5061   YY=            -65.2588   ZZ=            -70.3729
   XY=             -0.9689   XZ=             -3.4014   YZ=             -1.6828

 Summary of Natural Population Analysis:

                                       Natural Population
                Natural  -----------------------------------------------
    Atom  No    Charge         Core      Valence    Rydberg      Total
 -----------------------------------------------------------------------
      C    1   -0.71811      1.99916     4.69907    0.01989     6.71811
      H    2    0.27778      0.00000     0.72015    0.00207     0.72222
      H    3    0.27918      0.00000     0.71872    0.00210     0.72082
      C    4   -0.07838      1.99905     4.05941    0.01991     6.07838
      C    5   -0.18776      1.99907     4.17100    0.01770     6.18776
      C    6   -0.19682      1.99915     4.17993    0.01774     6.19682
      C    7   -0.24667      1.99915     4.23008    0.01743     6.24667
      C    8   -0.19764      1.99914     4.18073    0.01776     6.19764
      C    9   -0.19179      1.99907     4.17493    0.01780     6.19179
      S   10    2.37792      9.99891     3.42030    0.20287    13.62208
      O   11   -0.89902      1.99989     6.87575    0.02339     8.89902
      O   12   -0.89758      1.99988     6.87391    0.02379     8.89758
      F   13   -0.51015      1.99997     7.50104    0.00914     9.51015
      H   14    0.23936      0.00000     0.75945    0.00118     0.76064
      H   15    0.23827      0.00000     0.76089    0.00084     0.76173
      H   16    0.23702      0.00000     0.76218    0.00080     0.76298
      H   17    0.23782      0.00000     0.76134    0.00084     0.76218
      H   18    0.23656      0.00000     0.76223    0.00121     0.76344
 =======================================================================
   * Total *   -0.00000     29.99243    59.61112    0.39645    90.00000

 Normal termination of Gaussian 16 at Mon Aug 24 18:24:57 2020.
