 Gaussian 16, Revision A.03,

 ---------------------------------
 # opt=CalcAll B3LYP/6-31G* scf=qc
 ---------------------------------

 -------------------
 Title Card Required
 -------------------
 Symbolic Z-matrix:
 Charge =  0 Multiplicity = 1

 SCF Done:  E(RB3LYP) =  -1699.25759425     a.u. after    8 cycles
 SCF Done:  E(RB3LYP) =  -1699.30468942     a.u. after   15 cycles
 SCF Done:  E(RB3LYP) =  -1699.31699845     a.u. after   13 cycles
 SCF Done:  E(RB3LYP) =  -1699.34683657     a.u. after   16 cycles
 SCF Done:  E(RB3LYP) =  -1699.35299897     a.u. after   15 cycles
 SCF Done:  E(RB3LYP) =  -1699.35627468     a.u. after   15 cycles
 SCF Done:  E(RB3LYP) =  -1699.35713231     a.u. after   15 cycles
 SCF Done:  E(RB3LYP) =  -1699.35753385     a.u. after   11 cycles
 SCF Done:  E(RB3LYP) =  -1699.35754952     a.u. after    7 cycles
 SCF Done:  E(RB3LYP) =  -1699.35755092     a.u. after    4 cycles
 Optimization completed.
    -- Stationary point found.
 Normal termination of Gaussian 16 at Mon Aug 24 18:42:53 2020.

 ----------------------------------------------------------------------
 # freq B3LYP/6-31G* scf=qc volume NMR pop=NPA density=current Geom=All
 Check Guess=Read
 ----------------------------------------------------------------------

 Structure from the checkpoint file:  "sulfonylfluoride_4_conf212.chk"
 -------------------
 Title Card Required
 -------------------
 Charge =  0 Multiplicity = 1

 SCF Done:  E(RB3LYP) =  -1699.35755092     a.u. after    1 cycles

      1  C    Isotropic =    77.1718   Anisotropy =    15.7045

      2  C    Isotropic =    77.3648   Anisotropy =    14.8696

      3  C    Isotropic =    69.1362   Anisotropy =    17.5632

      4  F    Isotropic =   299.4985   Anisotropy =    65.1288

      5  F    Isotropic =   294.4597   Anisotropy =    65.6470

      6  S    Isotropic =   219.5617   Anisotropy =   374.3338

      7  O    Isotropic =    92.4664   Anisotropy =    61.1018

      8  O    Isotropic =    88.7429   Anisotropy =    57.2452

      9  F    Isotropic =   119.9334   Anisotropy =   370.3029

     10  F    Isotropic =   312.1937   Anisotropy =    79.6881

     11  F    Isotropic =   322.6725   Anisotropy =    71.7931

     12  F    Isotropic =   325.6498   Anisotropy =    86.2790

     13  F    Isotropic =   320.7123   Anisotropy =    87.0174

     14  C    Isotropic =    68.7638   Anisotropy =    13.7602

     15  F    Isotropic =   277.1957   Anisotropy =   102.4414

     16  F    Isotropic =   276.3958   Anisotropy =   104.8214

     17  F    Isotropic =   282.4214   Anisotropy =   112.4221

  Exact polarizability:  78.606   1.018  60.790   0.251   0.293  64.343
 Approx polarizability:  97.554   1.772  96.506   2.293   1.434 117.027

                      1                      2                      3
                      A                      A                      A
 Frequencies --     32.6897                40.0635                54.8792
 Red. masses --     18.6785                17.3139                17.9904
 Frc consts  --      0.0118                 0.0164                 0.0319
 IR Inten    --      0.0227                 0.2774                 0.0718

                      4                      5                      6
                      A                      A                      A
 Frequencies --     79.7553               106.3877               136.5234
 Red. masses --     18.4895                18.1774                18.1250
 Frc consts  --      0.0693                 0.1212                 0.1990
 IR Inten    --      0.1298                 0.6997                 0.4002

                      7                      8                      9
                      A                      A                      A
 Frequencies --    178.6984               193.2343               214.3866
 Red. masses --     18.0970                17.2127                18.6226
 Frc consts  --      0.3405                 0.3787                 0.5043
 IR Inten    --      2.2931                 1.6481                 3.6823

                     10                     11                     12
                      A                      A                      A
 Frequencies --    220.8691               231.6344               252.6610
 Red. masses --     19.0144                18.4797                18.4342
 Frc consts  --      0.5465                 0.5842                 0.6933
 IR Inten    --      0.3104                 2.6124                 4.3034

                     13                     14                     15
                      A                      A                      A
 Frequencies --    286.9980               295.5126               301.4357
 Red. masses --     18.4243                18.4133                18.4928
 Frc consts  --      0.8941                 0.9474                 0.9900
 IR Inten    --      1.7548                 0.4091                 0.1988

                     16                     17                     18
                      A                      A                      A
 Frequencies --    318.7055               344.0626               366.3017
 Red. masses --     18.0240                18.1294                18.6432
 Frc consts  --      1.0786                 1.2645                 1.4738
 IR Inten    --      1.0040                 0.8429                 0.0540

                     19                     20                     21
                      A                      A                      A
 Frequencies --    375.2100               427.5103               447.0089
 Red. masses --     18.4111                18.2027                18.0966
 Frc consts  --      1.5271                 1.9601                 2.1305
 IR Inten    --      2.1825                 6.7431                19.0335

                     22                     23                     24
                      A                      A                      A
 Frequencies --    463.1650               519.5456               538.7542
 Red. masses --     18.1624                17.8053                17.6693
 Frc consts  --      2.2956                 2.8317                 3.0217
 IR Inten    --      3.7229                33.2536                 7.8612

                     25                     26                     27
                      A                      A                      A
 Frequencies --    564.8908               579.3958               616.9407
 Red. masses --     18.6507                18.1225                18.7900
 Frc consts  --      3.5065                 3.5844                 4.2137
 IR Inten    --     62.4813                27.3009                34.6497

                     28                     29                     30
                      A                      A                      A
 Frequencies --    646.6138               684.0713               743.9917
 Red. masses --     17.3929                17.2394                17.0869
 Frc consts  --      4.2846                 4.7531                 5.5725
 IR Inten    --      9.6714                39.4784                62.1814

                     31                     32                     33
                      A                      A                      A
 Frequencies --    772.2560               872.5804              1017.6290
 Red. masses --     19.0733                15.3925                13.4972
 Frc consts  --      6.7019                 6.9051                 8.2352
 IR Inten    --    179.3081                40.3205                70.9693

                     34                     35                     36
                      A                      A                      A
 Frequencies --   1138.2570              1166.8178              1194.3529
 Red. masses --     13.9089                13.6817                16.6333
 Frc consts  --     10.6175                10.9748                13.9796
 IR Inten    --    280.6091                37.1320                46.7687

                     37                     38                     39
                      A                      A                      A
 Frequencies --   1211.0917              1220.2575              1249.2825
 Red. masses --     13.3367                13.1966                13.0535
 Frc consts  --     11.5253                11.5775                12.0032
 IR Inten    --     16.7558                40.3922                32.8878

                     40                     41                     42
                      A                      A                      A
 Frequencies --   1256.5148              1271.7308              1293.9617
 Red. masses --     13.2006                13.1064                12.4728
 Frc consts  --     12.2794                12.4889                12.3043
 IR Inten    --    367.2046               363.0920                96.4794

                     43                     44                     45
                      A                      A                      A
 Frequencies --   1313.5877              1366.5868              1418.5708
 Red. masses --     12.8380                12.5132                20.7757
 Frc consts  --     13.0517                13.7687                24.6325
 IR Inten    --      1.0071                60.4692               226.2066

 - Thermochemistry -
 -------------------
 Temperature   298.150 Kelvin.  Pressure   1.00000 Atm.
 Atom     1 has atomic number  6 and mass  12.00000

 Molecular mass:   301.94593 amu.
 Principal axes and moments of inertia in atomic units:
                           1         2         3
     Eigenvalues --  2105.568415848.380656190.88078
           X            0.99999   0.00347  -0.00048
           Y           -0.00347   0.99999   0.00104
           Z            0.00048  -0.00104   1.00000
 This molecule is an asymmetric top.
 Rotational symmetry number  1.
 Warning -- assumption of classical behavior for rotation
           may cause significant error
 Rotational temperatures (Kelvin)      0.04114     0.01481     0.01399
 Rotational constants (GHZ):           0.85713     0.30859     0.29152
 Zero-point vibrational energy     167629.0 (Joules/Mol)
                                   40.06428 (Kcal/Mol)
 Warning -- explicit consideration of  27 degrees of freedom as
           vibrations may cause significant error
 Vibrational temperatures:     47.03    57.64    78.96   114.75   153.07
          (Kelvin)            196.43   257.11   278.02   308.45   317.78
                              333.27   363.52   412.93   425.18   433.70
                              458.55   495.03   527.03   539.84   615.09
                              643.15   666.39   747.51   775.15   812.75
                              833.62   887.64   930.33   984.23  1070.44
                             1111.10  1255.45  1464.14  1637.70  1678.79
                             1718.41  1742.49  1755.68  1797.44  1807.84
                             1829.74  1861.72  1889.96  1966.21  2041.01

 Zero-point correction=                           0.063847 (Hartree/Particle)
 Thermal correction to Energy=                    0.079759
 Thermal correction to Enthalpy=                  0.080704
 Thermal correction to Gibbs Free Energy=         0.019271
 Sum of electronic and zero-point Energies=          -1699.293704
 Sum of electronic and thermal Energies=             -1699.277792
 Sum of electronic and thermal Enthalpies=           -1699.276847
 Sum of electronic and thermal Free Energies=        -1699.338280

                     E (Thermal)             CV                S
                      KCal/Mol        Cal/Mol-Kelvin    Cal/Mol-Kelvin
 Total                   50.050             55.852            129.296
 Electronic               0.000              0.000              0.000
 Translational            0.889              2.981             43.012
 Rotational               0.889              2.981             32.700
 Vibrational             48.272             49.891             53.584
 Vibration     1          0.594              1.983              5.659
 Vibration     2          0.594              1.981              5.256
 Vibration     3          0.596              1.976              4.633
 Vibration     4          0.600              1.963              3.897
 Vibration     5          0.605              1.944              3.334
 Vibration     6          0.614              1.917              2.852
 Vibration     7          0.629              1.869              2.342
 Vibration     8          0.635              1.849              2.197
 Vibration     9          0.644              1.819              2.006
 Vibration    10          0.648              1.809              1.952
 Vibration    11          0.653              1.793              1.866
 Vibration    12          0.664              1.758              1.712
 Vibration    13          0.684              1.698              1.492
 Vibration    14          0.690              1.682              1.442
 Vibration    15          0.693              1.671              1.409
 Vibration    16          0.705              1.638              1.317
 Vibration    17          0.723              1.587              1.193
 Vibration    18          0.739              1.542              1.095
 Vibration    19          0.746              1.523              1.058
 Vibration    20          0.789              1.410              0.867
 Vibration    21          0.806              1.367              0.805
 Vibration    22          0.821              1.332              0.757
 Vibration    23          0.875              1.207              0.611
 Vibration    24          0.894              1.164              0.568
 Vibration    25          0.921              1.107              0.514
 Vibration    26          0.936              1.076              0.486
 Vibration    27          0.977              0.996              0.421

 Optimization completed.
    -- Stationary point found.
 Normal termination of Gaussian 16 at Mon Aug 24 18:50:40 2020.
 Gaussian 16:  ES64L-G16RevA.03 25-Dec-2016

 ----------------------------------------------------------------------
 # TD(NStates=10, Root=1) B3LYP/6-31G* scf=qc volume pop=NPA density=cu
 rrent Geom=AllCheck Guess=Read
 ----------------------------------------------------------------------

 Structure from the checkpoint file:  "sulfonylfluoride_4_conf213.chk"
 -------------------
 Title Card Required
 -------------------
 Charge =  0 Multiplicity = 1

                         Standard orientation:
 ---------------------------------------------------------------------
 Center     Atomic      Atomic             Coordinates (Angstroms)
 Number     Number       Type             X           Y           Z
 ---------------------------------------------------------------------
      1          6           0       -1.638677    0.659034    0.258626
      2          6           0       -0.165765    0.736435   -0.247776
      3          6           0        0.771437   -0.424243    0.176545
      4          9           0        0.598913   -0.734662    1.467711
      5          9           0        0.544072   -1.497409   -0.593240
      6         16           0        2.586310    0.058423   -0.040308
      7          8           0        2.795419    0.519345   -1.394161
      8          8           0        3.051235    0.752447    1.138109
      9          9           0        3.138118   -1.454822    0.046956
     10          9           0       -0.176419    0.798390   -1.592867
     11          9           0        0.353546    1.885489    0.250608
     12          9           0       -2.279978    1.719080   -0.281280
     13          9           0       -1.638367    0.777090    1.603828
     14          6           0       -2.436822   -0.613951   -0.114045
     15          9           0       -2.386642   -0.830139   -1.433221
     16          9           0       -1.925534   -1.678168    0.523943
     17          9           0       -3.709399   -0.457378    0.257923
 ---------------------------------------------------------------------

 SCF Done:  E(RB3LYP) =  -1699.35755092     a.u. after    1 cycles

 Excitation energies and oscillator strengths:

 Excited State   1:      Singlet-A      7.2849 eV  170.19 nm  f=0.0037  <S**2>=0.000
      72 -> 74         0.61955
      72 -> 77         0.13066
      73 -> 74         0.28208
 This state for optimization and/or second-order correction.
 Total Energy, E(TD-HF/TD-DFT) =  -1699.08983689
 Copying the excited state density for this state as the 1-particle RhoCI density.

 Excited State   2:      Singlet-A      7.4569 eV  166.27 nm  f=0.0943  <S**2>=0.000
      72 -> 74        -0.27675
      73 -> 74         0.61368
      73 -> 75        -0.15085

 Excited State   3:      Singlet-A      7.7828 eV  159.31 nm  f=0.0014  <S**2>=0.000
      71 -> 74         0.64774
      72 -> 75        -0.21914

 Excited State   4:      Singlet-A      8.1891 eV  151.40 nm  f=0.0040  <S**2>=0.000
      71 -> 74         0.20801
      71 -> 75         0.24777
      72 -> 75         0.56172
      72 -> 76         0.10762
      72 -> 77        -0.12092
      73 -> 75         0.11247
      73 -> 76         0.14808

 Excited State   5:      Singlet-A      8.3801 eV  147.95 nm  f=0.0969  <S**2>=0.000
      69 -> 74        -0.12298
      70 -> 74        -0.38125
      72 -> 75        -0.12555
      73 -> 74         0.15444
      73 -> 75         0.49551
      73 -> 76        -0.14484

 Excited State   6:      Singlet-A      8.5410 eV  145.16 nm  f=0.0083  <S**2>=0.000
      70 -> 74         0.49932
      71 -> 75         0.16114
      73 -> 75         0.26696
      73 -> 76        -0.32302
      73 -> 77         0.13238

 Excited State   7:      Singlet-A      8.6742 eV  142.94 nm  f=0.0058  <S**2>=0.000
      71 -> 75         0.53702
      71 -> 76         0.16744
      71 -> 77         0.16047
      72 -> 75        -0.15116
      72 -> 77         0.27703
      73 -> 75        -0.12174

 Excited State   8:      Singlet-A      8.7638 eV  141.47 nm  f=0.0491  <S**2>=0.000
      69 -> 74        -0.16348
      70 -> 74         0.18037
      72 -> 77         0.15880
      73 -> 75         0.23278
      73 -> 76         0.49041
      73 -> 77         0.24986

 Excited State   9:      Singlet-A      8.8834 eV  139.57 nm  f=0.0065  <S**2>=0.000
      69 -> 74         0.16852
      70 -> 74        -0.13053
      71 -> 75        -0.11479
      71 -> 77        -0.25058
      72 -> 75         0.11812
      72 -> 76         0.15928
      72 -> 77         0.35353
      73 -> 76        -0.19573
      73 -> 77         0.34659

 Excited State  10:      Singlet-A      8.9375 eV  138.72 nm  f=0.0059  <S**2>=0.000
      69 -> 74         0.28009
      70 -> 74        -0.15379
      71 -> 77         0.15705
      72 -> 76        -0.18325
      72 -> 77        -0.33927
      73 -> 77         0.43349

 The electronic state is 1-A.
 Alpha  occ. eigenvalues --  -89.18626 -24.78859 -24.78852 -24.77599 -24.77388
 Alpha  occ. eigenvalues --  -24.77315 -24.77253 -24.77171 -24.77109 -24.76904
 Alpha  occ. eigenvalues --  -24.76796 -19.21348 -19.21321 -10.48398 -10.44986
 Alpha  occ. eigenvalues --  -10.43449 -10.42706  -8.21062  -6.17718  -6.17375
 Alpha  occ. eigenvalues --   -6.17305  -1.35792  -1.34388  -1.32621  -1.30758
 Alpha  occ. eigenvalues --   -1.28432  -1.28044  -1.26923  -1.26538  -1.26206
 Alpha  occ. eigenvalues --   -1.25460  -1.15155  -1.07354  -0.85954  -0.81404
 Alpha  occ. eigenvalues --   -0.76151  -0.71323  -0.68872  -0.66056  -0.64732
 Alpha  occ. eigenvalues --   -0.64248  -0.63339  -0.62656  -0.62551  -0.60696
 Alpha  occ. eigenvalues --   -0.60144  -0.58942  -0.56322  -0.53298  -0.52013
 Alpha  occ. eigenvalues --   -0.51831  -0.51250  -0.50316  -0.50103  -0.49565
 Alpha  occ. eigenvalues --   -0.49192  -0.48647  -0.47998  -0.47460  -0.47090
 Alpha  occ. eigenvalues --   -0.46422  -0.46301  -0.46127  -0.45602  -0.45299
 Alpha  occ. eigenvalues --   -0.44739  -0.44249  -0.42514  -0.41561  -0.39003
 Alpha  occ. eigenvalues --   -0.37877  -0.36065  -0.35574
 Alpha virt. eigenvalues --   -0.04297  -0.00640   0.00740   0.01703   0.05418
 Alpha virt. eigenvalues --    0.05737   0.11040   0.13003   0.15627   0.16877
 Alpha virt. eigenvalues --    0.17231   0.18692   0.20233   0.22973   0.25385

 Mulliken charges:
               1
     1  C    0.472538
     2  C    0.498148
     3  C    0.333748
     4  F   -0.237367
     5  F   -0.239505
     6  S    1.057951
     7  O   -0.278106
     8  O   -0.305016
     9  F   -0.272303
    10  F   -0.262999
    11  F   -0.273440
    12  F   -0.270982
    13  F   -0.268609
    14  C    0.777564
    15  F   -0.241717
    16  F   -0.246731
    17  F   -0.243172
 Sum of Mulliken charges =  -0.00000

 Dipole moment (field-independent basis, Debye):
    X=              0.5958    Y=              0.1249    Z=             -0.1558  Tot=              0.6283
 Quadrupole moment (field-independent basis, Debye-Ang):
   XX=            -95.2342   YY=            -96.8951   ZZ=            -95.8685
   XY=              2.1527   XZ=             -0.6035   YZ=             -0.1337

 Summary of Natural Population Analysis:

                                       Natural Population
                Natural  -----------------------------------------------
    Atom  No    Charge         Core      Valence    Rydberg      Total
 -----------------------------------------------------------------------
      C    1    0.63641      1.99885     3.30860    0.05613     5.36359
      C    2    0.63609      1.99883     3.30694    0.05814     5.36391
      C    3    0.47475      1.99907     3.45716    0.06902     5.52525
      F    4   -0.32896      1.99993     7.31966    0.00937     9.32896
      F    5   -0.33401      1.99993     7.32413    0.00996     9.33401
      S    6    2.03643      9.99909     3.75343    0.21104    13.96357
      O    7   -0.59854      1.99989     6.57484    0.02382     8.59854
      O    8   -0.65076      1.99988     6.62697    0.02391     8.65076
      F    9   -0.50841      1.99997     7.49815    0.01028     9.50841
      F   10   -0.34340      1.99993     7.33497    0.00850     9.34340
      F   11   -0.35882      1.99994     7.35007    0.00882     9.35882
      F   12   -0.34771      1.99994     7.33901    0.00876     9.34771
      F   13   -0.34484      1.99993     7.33655    0.00836     9.34484
      C   14    1.07066      1.99923     2.85585    0.07426     4.92934
      F   15   -0.34624      1.99993     7.33900    0.00732     9.34624
      F   16   -0.35070      1.99993     7.34325    0.00752     9.35070
      F   17   -0.34195      1.99993     7.33471    0.00732     9.34195
 =======================================================================
   * Total *   -0.00001     41.99420   103.40329    0.60252   146.00001

 Normal termination of Gaussian 16 at Mon Aug 24 19:01:54 2020.
