 Gaussian 16, Revision A.03,

 ---------------------------------
 # opt=CalcAll B3LYP/6-31G* scf=qc
 ---------------------------------

 -------------------
 Title Card Required
 -------------------
 Symbolic Z-matrix:
 Charge =  0 Multiplicity = 1

 SCF Done:  E(RB3LYP) =  -1699.31207067     a.u. after    8 cycles
 SCF Done:  E(RB3LYP) =  -1699.33633688     a.u. after   15 cycles
 SCF Done:  E(RB3LYP) =  -1699.35096134     a.u. after   13 cycles
 SCF Done:  E(RB3LYP) =  -1699.35488496     a.u. after   15 cycles
 SCF Done:  E(RB3LYP) =  -1699.35536759     a.u. after   11 cycles
 SCF Done:  E(RB3LYP) =  -1699.35540794     a.u. after    6 cycles
 SCF Done:  E(RB3LYP) =  -1699.35540821     a.u. after    3 cycles
 Optimization completed.
    -- Stationary point found.
 Normal termination of Gaussian 16 at Mon Aug 24 18:16:46 2020.

 ----------------------------------------------------------------------
 # freq B3LYP/6-31G* scf=qc volume NMR pop=NPA density=current Geom=All
 Check Guess=Read
 ----------------------------------------------------------------------

 Structure from the checkpoint file:  "sulfonylfluoride_4_conf62.chk"
 -------------------
 Title Card Required
 -------------------
 Charge =  0 Multiplicity = 1

 SCF Done:  E(RB3LYP) =  -1699.35540821     a.u. after    1 cycles

      1  C    Isotropic =    77.9214   Anisotropy =    14.3776

      2  C    Isotropic =    76.2461   Anisotropy =    13.0573

      3  C    Isotropic =    68.2273   Anisotropy =    13.9833

      4  F    Isotropic =   294.7308   Anisotropy =    73.4363

      5  F    Isotropic =   304.9284   Anisotropy =    82.9570

      6  S    Isotropic =   219.0223   Anisotropy =   366.8496

      7  O    Isotropic =   100.3961   Anisotropy =    86.4833

      8  O    Isotropic =    91.0157   Anisotropy =    76.2054

      9  F    Isotropic =   119.8348   Anisotropy =   351.0543

     10  F    Isotropic =   319.3815   Anisotropy =    73.0740

     11  F    Isotropic =   314.4231   Anisotropy =    81.2286

     12  F    Isotropic =   318.5436   Anisotropy =    70.6482

     13  F    Isotropic =   323.7548   Anisotropy =    74.5658

     14  C    Isotropic =    68.4230   Anisotropy =    12.3987

     15  F    Isotropic =   278.3678   Anisotropy =   106.7333

     16  F    Isotropic =   275.0253   Anisotropy =   106.5406

     17  F    Isotropic =   279.0656   Anisotropy =   116.0243

  Exact polarizability:  76.630   1.611  63.078   0.104   2.150  62.740
 Approx polarizability: 101.076  -0.932  98.281  -2.212   6.141 111.472

                      1                      2                      3
                      A                      A                      A
 Frequencies --     31.4785                47.9416                59.2756
 Red. masses --     18.4139                17.6832                18.6558
 Frc consts  --      0.0108                 0.0239                 0.0386
 IR Inten    --      0.0741                 0.0991                 0.1102

                      4                      5                      6
                      A                      A                      A
 Frequencies --     76.9563               107.7485               133.2389
 Red. masses --     18.1596                18.3138                17.8593
 Frc consts  --      0.0634                 0.1253                 0.1868
 IR Inten    --      0.0372                 0.4544                 1.3423

                      7                      8                      9
                      A                      A                      A
 Frequencies --    180.3477               183.7831               207.3827
 Red. masses --     18.2115                18.0939                17.8711
 Frc consts  --      0.3490                 0.3601                 0.4528
 IR Inten    --      2.6185                 2.0173                 3.3142

                     10                     11                     12
                      A                      A                      A
 Frequencies --    234.5811               235.8004               260.3101
 Red. masses --     18.6723                18.4335                18.1146
 Frc consts  --      0.6054                 0.6039                 0.7232
 IR Inten    --      0.5236                 0.9774                 1.9022

                     13                     14                     15
                      A                      A                      A
 Frequencies --    281.7384               285.8125               309.3178
 Red. masses --     18.4085                18.2888                18.6252
 Frc consts  --      0.8609                 0.8802                 1.0499
 IR Inten    --      0.3913                 4.0791                 0.4566

                     16                     17                     18
                      A                      A                      A
 Frequencies --    321.3101               340.7535               361.3871
 Red. masses --     18.2293                18.5061                17.9580
 Frc consts  --      1.1088                 1.2660                 1.3818
 IR Inten    --      1.1516                 0.6203                 1.6886

                     19                     20                     21
                      A                      A                      A
 Frequencies --    381.7966               416.0792               436.4645
 Red. masses --     18.2360                18.3216                18.2219
 Frc consts  --      1.5662                 1.8688                 2.0452
 IR Inten    --      2.3825                 8.4092                16.1856

                     22                     23                     24
                      A                      A                      A
 Frequencies --    479.1721               512.5552               528.9228
 Red. masses --     18.2321                17.7363                17.8888
 Frc consts  --      2.4664                 2.7453                 2.9486
 IR Inten    --      4.4109                 9.6222                 5.1919

                     25                     26                     27
                      A                      A                      A
 Frequencies --    574.2588               582.8775               604.1633
 Red. masses --     18.2081                18.5034                18.3707
 Frc consts  --      3.5378                 3.7039                 3.9508
 IR Inten    --     76.0497                26.8179                24.1703

                     28                     29                     30
                      A                      A                      A
 Frequencies --    644.0256               683.5933               742.5529
 Red. masses --     17.6464                17.4024                16.9795
 Frc consts  --      4.3123                 4.7913                 5.5161
 IR Inten    --     20.1415                12.7374                42.4204

                     31                     32                     33
                      A                      A                      A
 Frequencies --    790.4200               891.5513              1004.0446
 Red. masses --     21.1759                14.4832                13.3227
 Frc consts  --      7.7949                 6.7828                 7.9131
 IR Inten    --    123.0014               202.2432                30.2975

                     34                     35                     36
                      A                      A                      A
 Frequencies --   1141.2886              1161.6864              1201.1236
 Red. masses --     13.7577                13.6559                16.2308
 Frc consts  --     10.5581                10.8579                13.7964
 IR Inten    --    123.0805               107.9990                30.9881

                     37                     38                     39
                      A                      A                      A
 Frequencies --   1209.3818              1213.1484              1236.4011
 Red. masses --     13.5000                13.1922                13.5192
 Frc consts  --     11.6335                11.4392                12.1764
 IR Inten    --     53.5581                21.3793                64.1233

                     40                     41                     42
                      A                      A                      A
 Frequencies --   1251.8316              1272.2230              1282.9143
 Red. masses --     13.1804                13.1622                12.8123
 Frc consts  --     12.1695                12.5518                12.4243
 IR Inten    --    225.7481               353.3498               247.4539

                     43                     44                     45
                      A                      A                      A
 Frequencies --   1319.2820              1366.8495              1417.6102
 Red. masses --     12.3925                12.5016                20.7517
 Frc consts  --     12.7082                13.7613                24.5707
 IR Inten    --     43.1915                60.3474               217.7328

 - Thermochemistry -
 -------------------
 Temperature   298.150 Kelvin.  Pressure   1.00000 Atm.
 Atom     1 has atomic number  6 and mass  12.00000

 Molecular mass:   301.94593 amu.
 Principal axes and moments of inertia in atomic units:
                           1         2         3
     Eigenvalues --  2200.916375581.555866008.78087
           X            0.99999   0.00390   0.00245
           Y           -0.00393   0.99992   0.01237
           Z           -0.00240  -0.01238   0.99992
 This molecule is an asymmetric top.
 Rotational symmetry number  1.
 Warning -- assumption of classical behavior for rotation
           may cause significant error
 Rotational temperatures (Kelvin)      0.03935     0.01552     0.01441
 Rotational constants (GHZ):           0.82000     0.32334     0.30035
 Zero-point vibrational energy     167509.4 (Joules/Mol)
                                   40.03570 (Kcal/Mol)
 Warning -- explicit consideration of  27 degrees of freedom as
           vibrations may cause significant error
 Vibrational temperatures:     45.29    68.98    85.28   110.72   155.03
          (Kelvin)            191.70   259.48   264.42   298.38   337.51
                              339.26   374.53   405.36   411.22   445.04
                              462.29   490.27   519.96   549.32   598.65
                              627.98   689.42   737.45   761.00   826.23
                              838.63   869.26   926.61   983.54  1068.37
                             1137.24  1282.74  1444.60  1642.06  1671.41
                             1728.15  1740.03  1745.45  1778.91  1801.11
                             1830.45  1845.83  1898.15  1966.59  2039.62

 Zero-point correction=                           0.063801 (Hartree/Particle)
 Thermal correction to Energy=                    0.079708
 Thermal correction to Enthalpy=                  0.080652
 Thermal correction to Gibbs Free Energy=         0.019380
 Sum of electronic and zero-point Energies=          -1699.291607
 Sum of electronic and thermal Energies=             -1699.275701
 Sum of electronic and thermal Enthalpies=           -1699.274756
 Sum of electronic and thermal Free Energies=        -1699.336028

                     E (Thermal)             CV                S
                      KCal/Mol        Cal/Mol-Kelvin    Cal/Mol-Kelvin
 Total                   50.017             55.872            128.958
 Electronic               0.000              0.000              0.000
 Translational            0.889              2.981             43.012
 Rotational               0.889              2.981             32.668
 Vibrational             48.240             49.910             53.278
 Vibration     1          0.594              1.983              5.734
 Vibration     2          0.595              1.978              4.901
 Vibration     3          0.597              1.974              4.481
 Vibration     4          0.599              1.965              3.967
 Vibration     5          0.606              1.943              3.309
 Vibration     6          0.613              1.920              2.899
 Vibration     7          0.629              1.866              2.325
 Vibration     8          0.631              1.862              2.290
 Vibration     9          0.641              1.829              2.067
 Vibration    10          0.654              1.788              1.844
 Vibration    11          0.655              1.786              1.834
 Vibration    12          0.668              1.745              1.660
 Vibration    13          0.681              1.707              1.523
 Vibration    14          0.684              1.700              1.499
 Vibration    15          0.699              1.656              1.366
 Vibration    16          0.707              1.633              1.303
 Vibration    17          0.720              1.594              1.209
 Vibration    18          0.736              1.552              1.116
 Vibration    19          0.751              1.509              1.032
 Vibration    20          0.779              1.435              0.905
 Vibration    21          0.797              1.391              0.838
 Vibration    22          0.836              1.296              0.712
 Vibration    23          0.868              1.222              0.627
 Vibration    24          0.884              1.186              0.590
 Vibration    25          0.931              1.087              0.496
 Vibration    26          0.940              1.068              0.480
 Vibration    27          0.963              1.023              0.443

 Optimization completed.
    -- Stationary point found.
 Normal termination of Gaussian 16 at Mon Aug 24 18:24:24 2020.
 Gaussian 16:  ES64L-G16RevA.03 25-Dec-2016

 ----------------------------------------------------------------------
 # TD(NStates=10, Root=1) B3LYP/6-31G* scf=qc volume pop=NPA density=cu
 rrent Geom=AllCheck Guess=Read
 ----------------------------------------------------------------------

 Structure from the checkpoint file:  "sulfonylfluoride_4_conf63.chk"
 -------------------
 Title Card Required
 -------------------
 Charge =  0 Multiplicity = 1

                         Standard orientation:
 ---------------------------------------------------------------------
 Center     Atomic      Atomic             Coordinates (Angstroms)
 Number     Number       Type             X           Y           Z
 ---------------------------------------------------------------------
      1          6           0        1.131349   -0.405193    0.197436
      2          6           0        0.273331    0.800252   -0.269284
      3          6           0       -1.197843    0.865083    0.244976
      4          9           0       -1.215153    0.997104    1.576641
      5          9           0       -1.767570    1.940632   -0.326087
      6         16           0       -2.351255   -0.554298   -0.195387
      7          8           0       -3.658939   -0.220481    0.319669
      8          8           0       -2.105006   -1.000352   -1.547555
      9          9           0       -1.701678   -1.637501    0.806574
     10          9           0        0.855405    1.939324    0.183993
     11          9           0        0.245715    0.822892   -1.615684
     12          9           0        0.728646   -1.501133   -0.483882
     13          9           0        0.935505   -0.604351    1.521311
     14          6           0        2.657283   -0.231662   -0.037502
     15          9           0        2.893062    0.150410   -1.299020
     16          9           0        3.158490    0.680829    0.800423
     17          9           0        3.261681   -1.403254    0.184123
 ---------------------------------------------------------------------

 SCF Done:  E(RB3LYP) =  -1699.35540821     a.u. after    1 cycles

 Excitation energies and oscillator strengths:

 Excited State   1:      Singlet-A      7.5123 eV  165.04 nm  f=0.0003  <S**2>=0.000
      72 -> 74         0.59752
      72 -> 75        -0.28820
      72 -> 76         0.12003
      73 -> 74        -0.14564
 This state for optimization and/or second-order correction.
 Total Energy, E(TD-HF/TD-DFT) =  -1699.07933765
 Copying the excited state density for this state as the 1-particle RhoCI density.

 Excited State   2:      Singlet-A      7.6785 eV  161.47 nm  f=0.0020  <S**2>=0.000
      71 -> 74        -0.10003
      71 -> 75         0.19871
      72 -> 74         0.19370
      72 -> 75         0.51602
      73 -> 74        -0.24797
      73 -> 75         0.25958

 Excited State   3:      Singlet-A      7.7330 eV  160.33 nm  f=0.0030  <S**2>=0.000
      70 -> 75         0.17226
      72 -> 74        -0.25255
      72 -> 75        -0.21229
      73 -> 74        -0.17251
      73 -> 75         0.54562

 Excited State   4:      Singlet-A      8.0656 eV  153.72 nm  f=0.0106  <S**2>=0.000
      70 -> 74        -0.29916
      71 -> 74         0.55950
      71 -> 75         0.14066
      73 -> 74         0.19626

 Excited State   5:      Singlet-A      8.0814 eV  153.42 nm  f=0.1167  <S**2>=0.000
      71 -> 74        -0.25835
      72 -> 74         0.11850
      73 -> 74         0.55616
      73 -> 75         0.26945

 Excited State   6:      Singlet-A      8.4197 eV  147.26 nm  f=0.0090  <S**2>=0.000
      70 -> 75        -0.15179
      71 -> 75         0.56478
      72 -> 75        -0.21943
      72 -> 78        -0.12531
      73 -> 76        -0.16483

 Excited State   7:      Singlet-A      8.5898 eV  144.34 nm  f=0.0536  <S**2>=0.000
      70 -> 74         0.56937
      70 -> 75         0.13434
      71 -> 74         0.26174
      73 -> 76         0.20307

 Excited State   8:      Singlet-A      8.6496 eV  143.34 nm  f=0.0265  <S**2>=0.000
      70 -> 75         0.60344
      71 -> 75         0.19643
      73 -> 75        -0.15439
      73 -> 76        -0.13480
      73 -> 77        -0.10299

 Excited State   9:      Singlet-A      8.8626 eV  139.90 nm  f=0.0018  <S**2>=0.000
      70 -> 74        -0.13553
      70 -> 75         0.10011
      71 -> 74        -0.11144
      72 -> 76         0.44184
      72 -> 78        -0.13219
      73 -> 76         0.46697

 Excited State  10:      Singlet-A      8.9712 eV  138.20 nm  f=0.0185  <S**2>=0.000
      69 -> 75         0.13485
      70 -> 76         0.11366
      71 -> 74         0.12240
      71 -> 75        -0.12745
      71 -> 76        -0.13078
      71 -> 78         0.12800
      72 -> 75         0.11728
      72 -> 76         0.45320
      73 -> 76        -0.38999

 The electronic state is 1-A.
 Alpha  occ. eigenvalues --  -89.18819 -24.78581 -24.78453 -24.77586 -24.77358
 Alpha  occ. eigenvalues --  -24.77232 -24.77023 -24.77010 -24.76885 -24.76745
 Alpha  occ. eigenvalues --  -24.76713 -19.21528 -19.21449 -10.48082 -10.44885
 Alpha  occ. eigenvalues --  -10.43385 -10.42647  -8.21264  -6.17924  -6.17576
 Alpha  occ. eigenvalues --   -6.17502  -1.35419  -1.34298  -1.32017  -1.31030
 Alpha  occ. eigenvalues --   -1.28857  -1.27618  -1.26824  -1.26098  -1.25950
 Alpha  occ. eigenvalues --   -1.25385  -1.15360  -1.07517  -0.85606  -0.81516
 Alpha  occ. eigenvalues --   -0.75745  -0.71654  -0.68598  -0.65258  -0.65059
 Alpha  occ. eigenvalues --   -0.64184  -0.63300  -0.62183  -0.61988  -0.60960
 Alpha  occ. eigenvalues --   -0.60392  -0.58763  -0.56174  -0.53589  -0.51982
 Alpha  occ. eigenvalues --   -0.51484  -0.50960  -0.50145  -0.49978  -0.49399
 Alpha  occ. eigenvalues --   -0.49023  -0.48579  -0.47916  -0.47356  -0.47071
 Alpha  occ. eigenvalues --   -0.46468  -0.46199  -0.45854  -0.45193  -0.44932
 Alpha  occ. eigenvalues --   -0.44720  -0.43805  -0.42943  -0.41737  -0.38484
 Alpha  occ. eigenvalues --   -0.37886  -0.36178  -0.35959
 Alpha virt. eigenvalues --   -0.03135  -0.02813   0.00916   0.02840   0.04652
 Alpha virt. eigenvalues --    0.05885   0.10502   0.13086   0.15681   0.17112
 Alpha virt. eigenvalues --    0.17633   0.19545   0.20559   0.23081   0.24472

 Mulliken charges:
               1
     1  C    0.476350
     2  C    0.525354
     3  C    0.333256
     4  F   -0.238026
     5  F   -0.257661
     6  S    1.031455
     7  O   -0.293053
     8  O   -0.297843
     9  F   -0.282854
    10  F   -0.271753
    11  F   -0.259499
    12  F   -0.264105
    13  F   -0.264374
    14  C    0.789393
    15  F   -0.243254
    16  F   -0.239032
    17  F   -0.244354
 Sum of Mulliken charges =  -0.00000

 Dipole moment (field-independent basis, Debye):
    X=              0.0090    Y=              0.4404    Z=             -0.3226  Tot=              0.5460
 Quadrupole moment (field-independent basis, Debye-Ang):
   XX=            -94.9815   YY=            -96.8643   ZZ=            -96.0349
   XY=             -0.8868   XZ=              0.8742   YZ=              0.6223

 Summary of Natural Population Analysis:

                                       Natural Population
                Natural  -----------------------------------------------
    Atom  No    Charge         Core      Valence    Rydberg      Total
 -----------------------------------------------------------------------
      C    1    0.64307      1.99883     3.30351    0.05458     5.35693
      C    2    0.65280      1.99882     3.29111    0.05727     5.34720
      C    3    0.47921      1.99916     3.45314    0.06849     5.52079
      F    4   -0.33166      1.99993     7.32199    0.00974     9.33166
      F    5   -0.34994      1.99993     7.34081    0.00920     9.34994
      S    6    2.00878      9.99906     3.77914    0.21302    13.99122
      O    7   -0.63384      1.99989     6.61018    0.02378     8.63384
      O    8   -0.62936      1.99989     6.60581    0.02366     8.62936
      F    9   -0.51674      1.99997     7.50659    0.01018     9.51674
      F   10   -0.34421      1.99994     7.33586    0.00841     9.34421
      F   11   -0.34048      1.99993     7.33208    0.00847     9.34048
      F   12   -0.34299      1.99993     7.33440    0.00865     9.34299
      F   13   -0.33968      1.99993     7.33139    0.00836     9.33968
      C   14    1.07655      1.99927     2.84903    0.07514     4.92345
      F   15   -0.34697      1.99993     7.33972    0.00732     9.34697
      F   16   -0.34276      1.99993     7.33548    0.00735     9.34276
      F   17   -0.34178      1.99993     7.33467    0.00718     9.34178
 =======================================================================
   * Total *   -0.00000     41.99427   103.40492    0.60081   146.00000

 Normal termination of Gaussian 16 at Mon Aug 24 18:34:06 2020.
