 Gaussian 16, Revision A.03,

 ---------------------------------
 # opt=CalcAll B3LYP/6-31G* scf=qc
 ---------------------------------

 -------------------
 Title Card Required
 -------------------
 Symbolic Z-matrix:
 Charge =  0 Multiplicity = 1

 SCF Done:  E(RB3LYP) =  -1699.25692239     a.u. after    8 cycles
 SCF Done:  E(RB3LYP) =  -1699.27760573     a.u. after   15 cycles
 SCF Done:  E(RB3LYP) =  -1699.32061952     a.u. after   15 cycles
 SCF Done:  E(RB3LYP) =  -1699.33436454     a.u. after   15 cycles
 SCF Done:  E(RB3LYP) =  -1699.34649401     a.u. after   15 cycles
 SCF Done:  E(RB3LYP) =  -1699.35255032     a.u. after   13 cycles
 SCF Done:  E(RB3LYP) =  -1699.35443705     a.u. after   13 cycles
 SCF Done:  E(RB3LYP) =  -1699.35477364     a.u. after    9 cycles
 SCF Done:  E(RB3LYP) =  -1699.35478332     a.u. after    6 cycles
 Optimization completed.
    -- Stationary point found.
 Normal termination of Gaussian 16 at Mon Aug 24 18:20:09 2020.

 ----------------------------------------------------------------------
 # freq B3LYP/6-31G* scf=qc volume NMR pop=NPA density=current Geom=All
 Check Guess=Read
 ----------------------------------------------------------------------

 Structure from the checkpoint file:  "sulfonylfluoride_4_conf152.chk"
 -------------------
 Title Card Required
 -------------------
 Charge =  0 Multiplicity = 1

 SCF Done:  E(RB3LYP) =  -1699.35478332     a.u. after    1 cycles

      1  C    Isotropic =    77.1975   Anisotropy =    16.0289

      2  C    Isotropic =    75.7537   Anisotropy =    15.6917

      3  C    Isotropic =    68.5771   Anisotropy =    11.6937

      4  F    Isotropic =   305.0542   Anisotropy =    76.6113

      5  F    Isotropic =   297.6538   Anisotropy =    63.7244

      6  S    Isotropic =   219.3107   Anisotropy =   368.0188

      7  O    Isotropic =    91.7480   Anisotropy =    56.1588

      8  O    Isotropic =    91.7934   Anisotropy =    58.2929

      9  F    Isotropic =   122.6357   Anisotropy =   370.0732

     10  F    Isotropic =   320.4754   Anisotropy =    97.1647

     11  F    Isotropic =   316.5575   Anisotropy =    89.2146

     12  F    Isotropic =   320.6277   Anisotropy =    90.4756

     13  F    Isotropic =   327.4555   Anisotropy =    87.7166

     14  C    Isotropic =    68.8962   Anisotropy =    13.9248

     15  F    Isotropic =   273.6095   Anisotropy =   100.9900

     16  F    Isotropic =   277.8064   Anisotropy =   104.8301

     17  F    Isotropic =   281.0927   Anisotropy =   114.3272

  Exact polarizability:  72.600  -0.951  66.233  -2.375   0.596  62.428
 Approx polarizability:  99.296   3.168 107.835  -5.378  -1.942 103.680

                      1                      2                      3
                      A                      A                      A
 Frequencies --     26.0424                47.4070                54.5694
 Red. masses --     18.2904                17.8347                18.3329
 Frc consts  --      0.0073                 0.0236                 0.0322
 IR Inten    --      0.0493                 0.0999                 0.0927

                      4                      5                      6
                      A                      A                      A
 Frequencies --    103.7219               113.6351               147.1139
 Red. masses --     18.6864                18.2927                18.0177
 Frc consts  --      0.1184                 0.1392                 0.2298
 IR Inten    --      0.1656                 0.3129                 1.7167

                      7                      8                      9
                      A                      A                      A
 Frequencies --    166.8460               185.0358               213.4852
 Red. masses --     17.8257                17.2243                18.7097
 Frc consts  --      0.2924                 0.3475                 0.5024
 IR Inten    --      1.3026                 4.1208                 4.1149

                     10                     11                     12
                      A                      A                      A
 Frequencies --    221.7899               242.6932               260.4415
 Red. masses --     18.6583                18.3539                18.4507
 Frc consts  --      0.5408                 0.6369                 0.7374
 IR Inten    --      1.3089                 3.7233                 1.0497

                     13                     14                     15
                      A                      A                      A
 Frequencies --    284.1833               300.4087               310.4691
 Red. masses --     18.3519                18.3944                18.6722
 Frc consts  --      0.8732                 0.9780                 1.0604
 IR Inten    --      0.7719                 0.6506                 0.4167

                     16                     17                     18
                      A                      A                      A
 Frequencies --    323.7842               330.6119               358.9292
 Red. masses --     18.2284                17.9867                18.3235
 Frc consts  --      1.1259                 1.1583                 1.3908
 IR Inten    --      0.5449                 0.6497                 1.3186

                     19                     20                     21
                      A                      A                      A
 Frequencies --    374.6262               425.0812               455.8703
 Red. masses --     18.2629                18.2935                18.0999
 Frc consts  --      1.5101                 1.9476                 2.2162
 IR Inten    --      3.2760                 8.5986                11.9642

                     22                     23                     24
                      A                      A                      A
 Frequencies --    469.6572               491.6738               529.9811
 Red. masses --     18.0740                17.8261                17.9356
 Frc consts  --      2.3489                 2.5390                 2.9681
 IR Inten    --      3.2080                 8.2274                 7.4287

                     25                     26                     27
                      A                      A                      A
 Frequencies --    577.6951               580.2649               635.6522
 Red. masses --     18.1953                19.5933                17.3200
 Frc consts  --      3.5777                 3.8870                 4.1232
 IR Inten    --     28.1089                69.6080                11.7534

                     28                     29                     30
                      A                      A                      A
 Frequencies --    645.3356               655.9980               747.1782
 Red. masses --     17.9164                17.4946                17.1574
 Frc consts  --      4.3962                 4.4357                 5.6435
 IR Inten    --     31.6493                 2.7997                44.9973

                     31                     32                     33
                      A                      A                      A
 Frequencies --    785.3214               929.3864              1017.5426
 Red. masses --     21.1162                13.8633                13.6671
 Frc consts  --      7.6729                 7.0552                 8.3374
 IR Inten    --    209.5432                78.2219               129.3165

                     34                     35                     36
                      A                      A                      A
 Frequencies --   1107.7469              1162.8872              1191.5828
 Red. masses --     13.6960                14.2811                14.8822
 Frc consts  --      9.9021                11.3785                12.4499
 IR Inten    --    155.4437                 7.2832                68.8738

                     37                     38                     39
                      A                      A                      A
 Frequencies --   1212.1215              1217.8697              1239.0579
 Red. masses --     14.3824                13.2757                13.0881
 Frc consts  --     12.4501                11.6014                11.8389
 IR Inten    --    116.3951               101.5537               134.6260

                     40                     41                     42
                      A                      A                      A
 Frequencies --   1266.5060              1268.7603              1289.7310
 Red. masses --     13.2225                13.0876                12.7528
 Frc consts  --     12.4962                12.4127                12.4984
 IR Inten    --    267.7004               312.2091                55.1781

                     43                     44                     45
                      A                      A                      A
 Frequencies --   1307.2344              1360.4570              1419.7553
 Red. masses --     12.4895                12.5151                20.7577
 Frc consts  --     12.5749                13.6475                24.6522
 IR Inten    --     40.9655                46.2891               217.4307

 - Thermochemistry -
 -------------------
 Temperature   298.150 Kelvin.  Pressure   1.00000 Atm.
 Atom     1 has atomic number  6 and mass  12.00000

 Molecular mass:   301.94593 amu.
 Principal axes and moments of inertia in atomic units:
                           1         2         3
     Eigenvalues --  2553.723174973.103895344.59291
           X            0.99997  -0.00573  -0.00593
           Y            0.00579   0.99994   0.00876
           Z            0.00588  -0.00879   0.99994
 This molecule is an asymmetric top.
 Rotational symmetry number  1.
 Warning -- assumption of classical behavior for rotation
           may cause significant error
 Rotational temperatures (Kelvin)      0.03392     0.01742     0.01621
 Rotational constants (GHZ):           0.70671     0.36290     0.33768
 Zero-point vibrational energy     167813.0 (Joules/Mol)
                                   40.10827 (Kcal/Mol)
 Warning -- explicit consideration of  26 degrees of freedom as
           vibrations may cause significant error
 Vibrational temperatures:     37.47    68.21    78.51   149.23   163.50
          (Kelvin)            211.66   240.05   266.23   307.16   319.11
                              349.18   374.72   408.88   432.22   446.70
                              465.85   475.68   516.42   539.00   611.60
                              655.90   675.73   707.41   762.52   831.17
                              834.87   914.56   928.49   943.83  1075.02
                             1129.90  1337.18  1464.02  1593.80  1673.14
                             1714.42  1743.97  1752.24  1782.73  1822.22
                             1825.46  1855.64  1880.82  1957.39  2042.71

 Zero-point correction=                           0.063917 (Hartree/Particle)
 Thermal correction to Energy=                    0.079759
 Thermal correction to Enthalpy=                  0.080703
 Thermal correction to Gibbs Free Energy=         0.019597
 Sum of electronic and zero-point Energies=          -1699.290867
 Sum of electronic and thermal Energies=             -1699.275025
 Sum of electronic and thermal Enthalpies=           -1699.274080
 Sum of electronic and thermal Free Energies=        -1699.335187

                     E (Thermal)             CV                S
                      KCal/Mol        Cal/Mol-Kelvin    Cal/Mol-Kelvin
 Total                   50.049             55.801            128.609
 Electronic               0.000              0.000              0.000
 Translational            0.889              2.981             43.012
 Rotational               0.889              2.981             32.584
 Vibrational             48.272             49.840             53.012
 Vibration     1          0.593              1.985              6.110
 Vibration     2          0.595              1.979              4.923
 Vibration     3          0.596              1.976              4.645
 Vibration     4          0.605              1.946              3.383
 Vibration     5          0.607              1.938              3.206
 Vibration     6          0.617              1.906              2.709
 Vibration     7          0.624              1.883              2.471
 Vibration     8          0.631              1.860              2.277
 Vibration     9          0.644              1.820              2.014
 Vibration    10          0.648              1.808              1.944
 Vibration    11          0.659              1.775              1.783
 Vibration    12          0.668              1.745              1.659
 Vibration    13          0.683              1.703              1.508
 Vibration    14          0.693              1.673              1.415
 Vibration    15          0.699              1.654              1.360
 Vibration    16          0.708              1.628              1.291
 Vibration    17          0.713              1.614              1.257
 Vibration    18          0.734              1.557              1.127
 Vibration    19          0.746              1.524              1.061
 Vibration    20          0.787              1.416              0.875
 Vibration    21          0.814              1.348              0.778
 Vibration    22          0.827              1.317              0.739
 Vibration    23          0.847              1.268              0.679
 Vibration    24          0.885              1.184              0.587
 Vibration    25          0.934              1.080              0.490
 Vibration    26          0.937              1.074              0.485

 Optimization completed.
    -- Stationary point found.
 Normal termination of Gaussian 16 at Mon Aug 24 18:27:19 2020.
 Gaussian 16:  ES64L-G16RevA.03 25-Dec-2016

 ----------------------------------------------------------------------
 # TD(NStates=10, Root=1) B3LYP/6-31G* scf=qc volume pop=NPA density=cu
 rrent Geom=AllCheck Guess=Read
 ----------------------------------------------------------------------

 Structure from the checkpoint file:  "sulfonylfluoride_4_conf153.chk"
 -------------------
 Title Card Required
 -------------------
 Charge =  0 Multiplicity = 1

                         Standard orientation:
 ---------------------------------------------------------------------
 Center     Atomic      Atomic             Coordinates (Angstroms)
 Number     Number       Type             X           Y           Z
 ---------------------------------------------------------------------
      1          6           0       -1.364744    0.195115   -0.653492
      2          6           0       -0.273770    1.148680   -0.089086
      3          6           0        0.964425    0.555023    0.642644
      4          9           0        1.766287    1.584510    0.955364
      5          9           0        0.577514   -0.072522    1.763261
      6         16           0        2.018302   -0.651137   -0.350441
      7          8           0        1.427392   -1.968475   -0.306130
      8          8           0        2.478787   -0.002550   -1.556508
      9          9           0        3.238374   -0.640838    0.703606
     10          9           0        0.186136    1.868466   -1.134311
     11          9           0       -0.858663    1.982536    0.801782
     12          9           0       -0.786853   -0.585633   -1.598940
     13          9           0       -2.285002    0.991585   -1.240156
     14          6           0       -2.117831   -0.727175    0.339473
     15          9           0       -1.303039   -1.678905    0.806247
     16          9           0       -2.597804   -0.015108    1.366678
     17          9           0       -3.135920   -1.305586   -0.304541
 ---------------------------------------------------------------------

 SCF Done:  E(RB3LYP) =  -1699.35478332     a.u. after    1 cycles

 Excitation energies and oscillator strengths:

 Excited State   1:      Singlet-A      7.3391 eV  168.94 nm  f=0.0012  <S**2>=0.000
      71 -> 74         0.13348
      72 -> 74        -0.46304
      73 -> 74         0.48847
 This state for optimization and/or second-order correction.
 Total Energy, E(TD-HF/TD-DFT) =  -1699.08507707
 Copying the excited state density for this state as the 1-particle RhoCI density.

 Excited State   2:      Singlet-A      7.5736 eV  163.71 nm  f=0.0453  <S**2>=0.000
      72 -> 74         0.48825
      73 -> 74         0.46187
      73 -> 75        -0.11547

 Excited State   3:      Singlet-A      7.8483 eV  157.98 nm  f=0.0006  <S**2>=0.000
      70 -> 74         0.12207
      71 -> 74         0.61599
      72 -> 75         0.19314
      73 -> 75        -0.20478

 Excited State   4:      Singlet-A      8.2639 eV  150.03 nm  f=0.0044  <S**2>=0.000
      71 -> 74        -0.23189
      71 -> 75        -0.23724
      72 -> 75         0.44640
      72 -> 77        -0.10390
      73 -> 75        -0.33717
      73 -> 76        -0.18601

 Excited State   5:      Singlet-A      8.3886 eV  147.80 nm  f=0.0056  <S**2>=0.000
      70 -> 74         0.66324
      71 -> 74        -0.10982

 Excited State   6:      Singlet-A      8.5959 eV  144.24 nm  f=0.0497  <S**2>=0.000
      71 -> 75         0.33057
      72 -> 75         0.35384
      72 -> 76        -0.13355
      73 -> 75         0.35463
      73 -> 76        -0.26299

 Excited State   7:      Singlet-A      8.6880 eV  142.71 nm  f=0.0230  <S**2>=0.000
      71 -> 75         0.50274
      71 -> 76         0.14219
      71 -> 77         0.13019
      72 -> 77        -0.18346
      73 -> 75        -0.31581

 Excited State   8:      Singlet-A      8.7847 eV  141.14 nm  f=0.0338  <S**2>=0.000
      72 -> 75         0.18594
      72 -> 76         0.25544
      72 -> 77        -0.10994
      73 -> 75         0.18162
      73 -> 76         0.39804
      73 -> 77         0.38139
      73 -> 78         0.10869

 Excited State   9:      Singlet-A      8.9020 eV  139.28 nm  f=0.0028  <S**2>=0.000
      69 -> 74         0.13087
      71 -> 77         0.16144
      72 -> 76         0.58258
      72 -> 77         0.16350
      73 -> 76        -0.21148

 Excited State  10:      Singlet-A      8.9145 eV  139.08 nm  f=0.0072  <S**2>=0.000
      69 -> 74        -0.12164
      71 -> 77         0.18589
      72 -> 75         0.16467
      72 -> 77         0.40567
      72 -> 78         0.12436
      73 -> 76         0.36095
      73 -> 77        -0.24501

 The electronic state is 1-A.
 Alpha  occ. eigenvalues --  -89.18789 -24.78827 -24.78433 -24.77269 -24.77249
 Alpha  occ. eigenvalues --  -24.77212 -24.77110 -24.76913 -24.76887 -24.76736
 Alpha  occ. eigenvalues --  -24.76688 -19.21472 -19.21419 -10.48119 -10.44915
 Alpha  occ. eigenvalues --  -10.43355 -10.42633  -8.21222  -6.17877  -6.17534
 Alpha  occ. eigenvalues --   -6.17467  -1.35471  -1.34365  -1.32383  -1.30562
 Alpha  occ. eigenvalues --   -1.28541  -1.27644  -1.26693  -1.26128  -1.25966
 Alpha  occ. eigenvalues --   -1.25437  -1.15310  -1.07510  -0.85873  -0.80980
 Alpha  occ. eigenvalues --   -0.75859  -0.72165  -0.68431  -0.65575  -0.64551
 Alpha  occ. eigenvalues --   -0.64112  -0.63431  -0.62431  -0.62339  -0.60250
 Alpha  occ. eigenvalues --   -0.59928  -0.58938  -0.56385  -0.53398  -0.52447
 Alpha  occ. eigenvalues --   -0.51736  -0.50843  -0.50022  -0.49979  -0.49286
 Alpha  occ. eigenvalues --   -0.48510  -0.48201  -0.47456  -0.47218  -0.47066
 Alpha  occ. eigenvalues --   -0.46791  -0.46324  -0.45912  -0.45563  -0.45078
 Alpha  occ. eigenvalues --   -0.44761  -0.43816  -0.42436  -0.41508  -0.38520
 Alpha  occ. eigenvalues --   -0.37937  -0.36203  -0.36075
 Alpha virt. eigenvalues --   -0.04097  -0.00522   0.00409   0.01426   0.05154
 Alpha virt. eigenvalues --    0.05933   0.10979   0.12046   0.15527   0.17197
 Alpha virt. eigenvalues --    0.17466   0.18584   0.21865   0.23321   0.24886

 Mulliken charges:
               1
     1  C    0.475600
     2  C    0.496297
     3  C    0.348987
     4  F   -0.241997
     5  F   -0.241057
     6  S    1.043920
     7  O   -0.308325
     8  O   -0.286769
     9  F   -0.275248
    10  F   -0.268337
    11  F   -0.270021
    12  F   -0.266353
    13  F   -0.265790
    14  C    0.782998
    15  F   -0.242051
    16  F   -0.239228
    17  F   -0.242625
 Sum of Mulliken charges =  -0.00000

 Dipole moment (field-independent basis, Debye):
    X=             -0.2006    Y=             -0.3798    Z=             -0.3341  Tot=              0.5441
 Quadrupole moment (field-independent basis, Debye-Ang):
   XX=            -97.4066   YY=            -96.4075   ZZ=            -95.7546
   XY=              0.5531   XZ=             -1.4201   YZ=              0.3358

 Summary of Natural Population Analysis:

                                       Natural Population
                Natural  -----------------------------------------------
    Atom  No    Charge         Core      Valence    Rydberg      Total
 -----------------------------------------------------------------------
      C    1    0.64229      1.99883     3.30473    0.05415     5.35771
      C    2    0.63184      1.99883     3.31009    0.05924     5.36816
      C    3    0.47887      1.99908     3.45278    0.06927     5.52113
      F    4   -0.33176      1.99993     7.32196    0.00987     9.33176
      F    5   -0.33391      1.99993     7.32449    0.00950     9.33391
      S    6    2.02497      9.99906     3.76998    0.20599    13.97503
      O    7   -0.63542      1.99988     6.61142    0.02412     8.63542
      O    8   -0.61093      1.99989     6.58725    0.02379     8.61093
      F    9   -0.51625      1.99997     7.50589    0.01039     9.51625
      F   10   -0.34539      1.99993     7.33667    0.00878     9.34539
      F   11   -0.35361      1.99993     7.34423    0.00944     9.35361
      F   12   -0.35430      1.99993     7.34594    0.00843     9.35430
      F   13   -0.33766      1.99993     7.32923    0.00849     9.33766
      C   14    1.07427      1.99925     2.85262    0.07386     4.92573
      F   15   -0.34705      1.99992     7.33958    0.00754     9.34705
      F   16   -0.34383      1.99993     7.33658    0.00732     9.34383
      F   17   -0.34213      1.99993     7.33485    0.00736     9.34213
 =======================================================================
   * Total *    0.00000     41.99416   103.40829    0.59755   146.00000

 Normal termination of Gaussian 16 at Mon Aug 24 18:37:57 2020.
