 Gaussian 16, Revision A.03,

 ---------------------------------
 # opt=CalcAll B3LYP/6-31G* scf=qc
 ---------------------------------

 -------------------
 Title Card Required
 -------------------
 Symbolic Z-matrix:
 Charge =  0 Multiplicity = 1

 SCF Done:  E(RB3LYP) =  -919.374804274     a.u. after    8 cycles
 SCF Done:  E(RB3LYP) =  -919.380803488     a.u. after   11 cycles
 SCF Done:  E(RB3LYP) =  -919.380987084     a.u. after    9 cycles
 SCF Done:  E(RB3LYP) =  -919.380989864     a.u. after    4 cycles
 Optimization completed.
    -- Stationary point found.
 Normal termination of Gaussian 16 at Mon Aug 24 17:43:10 2020.

 ----------------------------------------------------------------------
 # freq B3LYP/6-31G* scf=qc volume NMR pop=NPA density=current Geom=All
 Check Guess=Read
 ----------------------------------------------------------------------

 Structure from the checkpoint file:  "sulfonylfluoride_6_conf12.chk"
 -------------------
 Title Card Required
 -------------------
 Charge =  0 Multiplicity = 1

 SCF Done:  E(RB3LYP) =  -919.380989864     a.u. after    1 cycles

      1  C    Isotropic =   126.7609   Anisotropy =    45.1802

      2  H    Isotropic =    28.1440   Anisotropy =     3.4920

      3  H    Isotropic =    28.2995   Anisotropy =     3.8303

      4  C    Isotropic =    69.8204   Anisotropy =   159.3552

      5  C    Isotropic =    65.0582   Anisotropy =   157.3945

      6  C    Isotropic =    67.7496   Anisotropy =   166.8122

      7  C    Isotropic =    66.5463   Anisotropy =   172.3566

      8  C    Isotropic =    67.4588   Anisotropy =   167.5250

      9  C    Isotropic =    64.4000   Anisotropy =   160.8102

     10  S    Isotropic =   199.7982   Anisotropy =   298.3416

     11  O    Isotropic =    91.3546   Anisotropy =    76.0367

     12  O    Isotropic =    87.9075   Anisotropy =    70.6212

     13  F    Isotropic =   122.4902   Anisotropy =   350.2095

     14  H    Isotropic =    24.9568   Anisotropy =     7.2726

     15  H    Isotropic =    24.9028   Anisotropy =     4.7488

     16  H    Isotropic =    24.8646   Anisotropy =     4.2722

     17  H    Isotropic =    24.8603   Anisotropy =     4.7390

     18  H    Isotropic =    24.8784   Anisotropy =     7.3718

  Exact polarizability: 119.445   0.021  93.570  17.023  -1.499  56.476
 Approx polarizability: 175.265  -2.214 167.025  35.939  -4.971  92.321

                      1                      2                      3
                      A                      A                      A
 Frequencies --     24.2949                61.2494                81.6559
 Red. masses --      5.4917                 5.9438                 7.0046
 Frc consts  --      0.0019                 0.0131                 0.0275
 IR Inten    --      0.1790                 1.2083                 1.7782

                      4                      5                      6
                      A                      A                      A
 Frequencies --    208.2138               241.0520               267.7592
 Red. masses --      6.4223                 8.3087                 8.9243
 Frc consts  --      0.1640                 0.2844                 0.3770
 IR Inten    --      1.7456                 0.1048                 1.0800

                      7                      8                      9
                      A                      A                      A
 Frequencies --    355.5025               410.0382               414.4192
 Red. masses --      1.9861                10.5727                 3.0773
 Frc consts  --      0.1479                 1.0473                 0.3114
 IR Inten    --      1.0462                 9.8494                 0.6917

                     10                     11                     12
                      A                      A                      A
 Frequencies --    440.7625               463.6053               532.8614
 Red. masses --      7.7625                 5.6433                 6.0114
 Frc consts  --      0.8885                 0.7146                 1.0057
 IR Inten    --     10.4316                 9.5177                76.5322

                     13                     14                     15
                      A                      A                      A
 Frequencies --    609.0764               634.8666               685.9939
 Red. masses --      5.5286                 6.2698                 6.9509
 Frc consts  --      1.2084                 1.4889                 1.9272
 IR Inten    --     20.6374                 0.0284                23.7741

                     16                     17                     18
                      A                      A                      A
 Frequencies --    709.7082               766.8572               810.7347
 Red. masses --      1.7159                 2.7455                 4.0912
 Frc consts  --      0.5092                 0.9512                 1.5844
 IR Inten    --     31.4239                27.2639               115.6678

                     19                     20                     21
                      A                      A                      A
 Frequencies --    835.9776               854.7872               917.5637
 Red. masses --      4.2075                 1.2556                 1.8016
 Frc consts  --      1.7324                 0.5405                 0.8937
 IR Inten    --      0.1128                 0.1139                10.3559

                     22                     23                     24
                      A                      A                      A
 Frequencies --    930.8740               967.7007              1001.8569
 Red. masses --      1.4451                 1.3570                 1.2745
 Frc consts  --      0.7378                 0.7487                 0.7537
 IR Inten    --      5.8800                 0.0413                 0.0340

                     25                     26                     27
                      A                      A                      A
 Frequencies --   1019.2508              1058.8917              1113.9337
 Red. masses --      6.1137                 2.2448                 1.5817
 Frc consts  --      3.7421                 1.4829                 1.1564
 IR Inten    --      1.0734                 1.6605                 4.2753

                     28                     29                     30
                      A                      A                      A
 Frequencies --   1162.5795              1195.6366              1197.6588
 Red. masses --      2.5840                 1.2558                 1.3764
 Frc consts  --      2.0577                 1.0577                 1.1632
 IR Inten    --    105.5566                25.1999                48.8921

                     31                     32                     33
                      A                      A                      A
 Frequencies --   1218.0346              1232.3110              1310.3946
 Red. masses --      1.1405                 2.6966                 1.5429
 Frc consts  --      0.9969                 2.4128                 1.5610
 IR Inten    --      0.1203                 7.0065                23.1210

                     34                     35                     36
                      A                      A                      A
 Frequencies --   1361.9051              1372.2954              1394.3853
 Red. masses --      5.1072                 1.3314                 9.3789
 Frc consts  --      5.5812                 1.4772                10.7440
 IR Inten    --      3.4360                 0.9659               180.7975

                     37                     38                     39
                      A                      A                      A
 Frequencies --   1485.1123              1504.5260              1547.7423
 Red. masses --      1.1092                 2.2136                 2.2168
 Frc consts  --      1.4414                 2.9522                 3.1287
 IR Inten    --      7.9213                 8.4238                 6.6758

                     40                     41                     42
                      A                      A                      A
 Frequencies --   1647.0378              1665.2691              3091.8877
 Red. masses --      5.5108                 5.5073                 1.0601
 Frc consts  --      8.8078                 8.9983                 5.9712
 IR Inten    --      0.5992                 0.0428                 3.6940

                     43                     44                     45
                      A                      A                      A
 Frequencies --   3151.3987              3186.1698              3190.6303
 Red. masses --      1.1063                 1.0858                 1.0878
 Frc consts  --      6.4733                 6.4945                 6.5248
 IR Inten    --      0.0970                 2.3881                 0.4804

                     46                     47                     48
                      A                      A                      A
 Frequencies --   3198.0989              3207.2240              3215.9445
 Red. masses --      1.0911                 1.0945                 1.0981
 Frc consts  --      6.5752                 6.6334                 6.6916
 IR Inten    --     11.4743                26.4405                12.7282

 - Thermochemistry -
 -------------------
 Temperature   298.150 Kelvin.  Pressure   1.00000 Atm.
 Atom     1 has atomic number  6 and mass  12.00000

 Molecular mass:   174.01508 amu.
 Principal axes and moments of inertia in atomic units:
                           1         2         3
     Eigenvalues --   768.732053094.415273355.57826
           X            0.99992   0.00286   0.01208
           Y           -0.00269   0.99990  -0.01378
           Z           -0.01212   0.01374   0.99983
 This molecule is an asymmetric top.
 Rotational symmetry number  1.
 Warning -- assumption of classical behavior for rotation
           may cause significant error
 Rotational temperatures (Kelvin)      0.11267     0.02799     0.02581
 Rotational constants (GHZ):           2.34769     0.58323     0.53783
 Zero-point vibrational energy     346652.2 (Joules/Mol)
                                   82.85188 (Kcal/Mol)
 Warning -- explicit consideration of  13 degrees of freedom as
           vibrations may cause significant error
 Vibrational temperatures:     34.95    88.12   117.48   299.57   346.82
          (Kelvin)            385.25   511.49   589.95   596.26   634.16
                              667.02   766.67   876.33   913.43   986.99
                             1021.11  1103.34  1166.47  1202.79  1229.85
                             1320.17  1339.32  1392.31  1441.45  1466.47
                             1523.51  1602.70  1672.69  1720.25  1723.16
                             1752.48  1773.02  1885.37  1959.48  1974.43
                             2006.21  2136.75  2164.68  2226.86  2369.72
                             2395.95  4448.54  4534.16  4584.19  4590.61
                             4601.35  4614.48  4627.03

 Zero-point correction=                           0.132033 (Hartree/Particle)
 Thermal correction to Energy=                    0.141745
 Thermal correction to Enthalpy=                  0.142689
 Thermal correction to Gibbs Free Energy=         0.095088
 Sum of electronic and zero-point Energies=           -919.248957
 Sum of electronic and thermal Energies=              -919.239245
 Sum of electronic and thermal Enthalpies=            -919.238301
 Sum of electronic and thermal Free Energies=         -919.285902

                     E (Thermal)             CV                S
                      KCal/Mol        Cal/Mol-Kelvin    Cal/Mol-Kelvin
 Total                   88.946             36.176            100.185
 Electronic               0.000              0.000              0.000
 Translational            0.889              2.981             41.369
 Rotational               0.889              2.981             30.457
 Vibrational             87.169             30.214             28.358
 Vibration     1          0.593              1.985              6.248
 Vibration     2          0.597              1.973              4.417
 Vibration     3          0.600              1.962              3.851
 Vibration     4          0.642              1.828              2.059
 Vibration     5          0.658              1.778              1.795
 Vibration     6          0.673              1.732              1.611
 Vibration     7          0.731              1.564              1.142
 Vibration     8          0.774              1.448              0.926
 Vibration     9          0.778              1.439              0.911
 Vibration    10          0.801              1.381              0.824
 Vibration    11          0.821              1.331              0.756
 Vibration    12          0.888              1.177              0.581
 Vibration    13          0.968              1.013              0.434

                           ! Non-Optimized Parameters !
 Normal termination of Gaussian 16 at Mon Aug 24 17:46:18 2020.
 Gaussian 16:  ES64L-G16RevA.03 25-Dec-2016

 ----------------------------------------------------------------------
 # TD(NStates=10, Root=1) B3LYP/6-31G* scf=qc volume pop=NPA density=cu
 rrent Geom=AllCheck Guess=Read
 ----------------------------------------------------------------------

 Structure from the checkpoint file:  "sulfonylfluoride_6_conf13.chk"
 -------------------
 Title Card Required
 -------------------
 Charge =  0 Multiplicity = 1

                         Standard orientation:
 ---------------------------------------------------------------------
 Center     Atomic      Atomic             Coordinates (Angstroms)
 Number     Number       Type             X           Y           Z
 ---------------------------------------------------------------------
      1          6           0        0.601920    0.001084    1.168894
      2          1           0        0.844467   -0.909582    1.722683
      3          1           0        0.804438    0.860981    1.815401
      4          6           0       -0.797931    0.003323    0.622350
      5          6           0       -1.450827   -1.205661    0.350916
      6          6           0       -2.748451   -1.206437   -0.158782
      7          6           0       -3.402072    0.001742   -0.408334
      8          6           0       -2.753650    1.210516   -0.147867
      9          6           0       -1.456647    1.211777    0.363138
     10         16           0        1.901191    0.124674   -0.103787
     11          8           0        1.636318    1.215664   -1.022558
     12          8           0        3.201746   -0.067334    0.513045
     13          9           0        1.564941   -1.249146   -0.903522
     14          1           0       -0.941281   -2.147257    0.538932
     15          1           0       -3.247863   -2.149689   -0.361096
     16          1           0       -4.413737    0.001312   -0.804490
     17          1           0       -3.256920    2.153197   -0.342879
     18          1           0       -0.951197    2.153871    0.557948
 ---------------------------------------------------------------------

 SCF Done:  E(RB3LYP) =  -919.380989864     a.u. after    1 cycles

 Excitation energies and oscillator strengths:

 Excited State   1:      Singlet-A      5.3284 eV  232.69 nm  f=0.0032  <S**2>=0.000
      44 -> 46         0.54256
      45 -> 47        -0.44970
 This state for optimization and/or second-order correction.
 Total Energy, E(TD-HF/TD-DFT) =  -919.185174969
 Copying the excited state density for this state as the 1-particle RhoCI density.

 Excited State   2:      Singlet-A      5.9306 eV  209.06 nm  f=0.1279  <S**2>=0.000
      44 -> 47         0.32336
      45 -> 46         0.62371

 Excited State   3:      Singlet-A      6.7079 eV  184.83 nm  f=0.0810  <S**2>=0.000
      44 -> 46        -0.25139
      44 -> 47         0.12997
      44 -> 48         0.11289
      45 -> 47        -0.33169
      45 -> 48         0.53252

 Excited State   4:      Singlet-A      6.8027 eV  182.26 nm  f=0.2699  <S**2>=0.000
      43 -> 46        -0.10962
      44 -> 46         0.20133
      44 -> 47         0.39284
      44 -> 48        -0.38799
      45 -> 46        -0.19489
      45 -> 47         0.21275
      45 -> 48         0.20893

 Excited State   5:      Singlet-A      6.9994 eV  177.14 nm  f=0.4548  <S**2>=0.000
      41 -> 46         0.13600
      44 -> 46        -0.21750
      44 -> 47         0.39212
      45 -> 46        -0.21152
      45 -> 47        -0.24027
      45 -> 48        -0.38467

 Excited State   6:      Singlet-A      7.0409 eV  176.09 nm  f=0.0157  <S**2>=0.000
      43 -> 46         0.59075
      44 -> 48        -0.34820

 Excited State   7:      Singlet-A      7.1022 eV  174.57 nm  f=0.1743  <S**2>=0.000
      43 -> 46         0.34041
      44 -> 46         0.19535
      44 -> 47         0.18090
      44 -> 48         0.45235
      45 -> 47         0.24280
      45 -> 48         0.10336

 Excited State   8:      Singlet-A      7.4418 eV  166.61 nm  f=0.0035  <S**2>=0.000
      39 -> 46        -0.10017
      40 -> 46        -0.19017
      41 -> 46        -0.18734
      42 -> 46         0.62146

 Excited State   9:      Singlet-A      7.5361 eV  164.52 nm  f=0.0106  <S**2>=0.000
      39 -> 46        -0.14814
      40 -> 46         0.50209
      41 -> 46         0.35797
      42 -> 46         0.23816

 Excited State  10:      Singlet-A      7.5517 eV  164.18 nm  f=0.0048  <S**2>=0.000
      41 -> 46         0.10757
      42 -> 48         0.12269
      43 -> 47         0.52995
      43 -> 48        -0.39551

 The electronic state is 1-A.
 Alpha  occ. eigenvalues --  -89.15016 -24.73462 -19.17472 -19.17408 -10.25783
 Alpha  occ. eigenvalues --  -10.22474 -10.21078 -10.20997 -10.20798 -10.20719
 Alpha  occ. eigenvalues --  -10.20677  -8.17415  -6.14101  -6.13749  -6.13610
 Alpha  occ. eigenvalues --   -1.24627  -1.11393  -1.03330  -0.87931  -0.81851
 Alpha  occ. eigenvalues --   -0.76281  -0.74208  -0.65644  -0.62549  -0.60950
 Alpha  occ. eigenvalues --   -0.55396  -0.53036  -0.52239  -0.50208  -0.48757
 Alpha  occ. eigenvalues --   -0.47718  -0.44361  -0.44134  -0.43562  -0.43273
 Alpha  occ. eigenvalues --   -0.42712  -0.38477  -0.37945  -0.36985  -0.36019
 Alpha  occ. eigenvalues --   -0.34128  -0.33955  -0.32360  -0.26733  -0.26482
 Alpha virt. eigenvalues --   -0.03339  -0.01860   0.01491   0.05227   0.07062
 Alpha virt. eigenvalues --    0.09563   0.09899   0.10428   0.12277   0.14490
 Alpha virt. eigenvalues --    0.14792   0.16387   0.17276   0.18167   0.22855

 Mulliken charges:
               1
     1  C   -0.598247
     2  H    0.218920
     3  H    0.216901
     4  C    0.161608
     5  C   -0.158803
     6  C   -0.127645
     7  C   -0.131864
     8  C   -0.128249
     9  C   -0.151916
    10  S    1.214131
    11  O   -0.473953
    12  O   -0.477253
    13  F   -0.313503
    14  H    0.150249
    15  H    0.150243
    16  H    0.143697
    17  H    0.151156
    18  H    0.154530
 Sum of Mulliken charges =  -0.00000

 Dipole moment (field-independent basis, Debye):
    X=             -4.5541    Y=             -0.5953    Z=              2.0755  Tot=              5.0400
 Quadrupole moment (field-independent basis, Debye-Ang):
   XX=            -74.5060   YY=            -65.2556   ZZ=            -70.3757
   XY=             -0.9672   XZ=              3.4033   YZ=              1.6852

 Summary of Natural Population Analysis:

                                       Natural Population
                Natural  -----------------------------------------------
    Atom  No    Charge         Core      Valence    Rydberg      Total
 -----------------------------------------------------------------------
      C    1   -0.71815      1.99916     4.69911    0.01989     6.71815
      H    2    0.27919      0.00000     0.71871    0.00211     0.72081
      H    3    0.27779      0.00000     0.72015    0.00206     0.72221
      C    4   -0.07837      1.99905     4.05940    0.01991     6.07837
      C    5   -0.19183      1.99907     4.17496    0.01780     6.19183
      C    6   -0.19763      1.99914     4.18072    0.01776     6.19763
      C    7   -0.24665      1.99915     4.23007    0.01743     6.24665
      C    8   -0.19685      1.99915     4.17997    0.01774     6.19685
      C    9   -0.18775      1.99907     4.17099    0.01769     6.18775
      S   10    2.37798      9.99891     3.42024    0.20287    13.62202
      O   11   -0.89756      1.99988     6.87389    0.02379     8.89756
      O   12   -0.89902      1.99989     6.87575    0.02339     8.89902
      F   13   -0.51015      1.99997     7.50105    0.00914     9.51015
      H   14    0.23657      0.00000     0.76222    0.00121     0.76343
      H   15    0.23782      0.00000     0.76134    0.00084     0.76218
      H   16    0.23702      0.00000     0.76218    0.00080     0.76298
      H   17    0.23827      0.00000     0.76089    0.00084     0.76173
      H   18    0.23934      0.00000     0.75948    0.00118     0.76066
 =======================================================================
   * Total *    0.00000     29.99243    59.61111    0.39646    90.00000

 Normal termination of Gaussian 16 at Mon Aug 24 17:50:47 2020.
