 Gaussian 16, Revision A.03,

 ---------------------------------
 # opt=CalcAll B3LYP/6-31G* scf=qc
 ---------------------------------

 -------------------
 Title Card Required
 -------------------
 Symbolic Z-matrix:
 Charge =  0 Multiplicity = 1

 SCF Done:  E(RB3LYP) =  -1699.23606171     a.u. after    9 cycles
 SCF Done:  E(RB3LYP) =  -1699.27671324     a.u. after   15 cycles
 SCF Done:  E(RB3LYP) =  -1699.32282584     a.u. after   15 cycles
 SCF Done:  E(RB3LYP) =  -1699.34628937     a.u. after   15 cycles
 SCF Done:  E(RB3LYP) =  -1699.35181479     a.u. after   13 cycles
 SCF Done:  E(RB3LYP) =  -1699.35499615     a.u. after   15 cycles
 SCF Done:  E(RB3LYP) =  -1699.35288088     a.u. after   15 cycles
 SCF Done:  E(RB3LYP) =  -1699.35455056     a.u. after   12 cycles
 SCF Done:  E(RB3LYP) =  -1699.35521722     a.u. after    5 cycles
 SCF Done:  E(RB3LYP) =  -1699.35540755     a.u. after    7 cycles
 SCF Done:  E(RB3LYP) =  -1699.35540819     a.u. after    2 cycles
 Optimization completed.
    -- Stationary point found.
 Normal termination of Gaussian 16 at Mon Aug 24 18:43:07 2020.

 ----------------------------------------------------------------------
 # freq B3LYP/6-31G* scf=qc volume NMR pop=NPA density=current Geom=All
 Check Guess=Read
 ----------------------------------------------------------------------

 Structure from the checkpoint file:  "sulfonylfluoride_4_conf22.chk"
 -------------------
 Title Card Required
 -------------------
 Charge =  0 Multiplicity = 1

 SCF Done:  E(RB3LYP) =  -1699.35540819     a.u. after    1 cycles

      1  C    Isotropic =    77.9233   Anisotropy =    14.3761

      2  C    Isotropic =    76.2465   Anisotropy =    13.0573

      3  C    Isotropic =    68.2273   Anisotropy =    13.9841

      4  F    Isotropic =   304.9276   Anisotropy =    82.9628

      5  F    Isotropic =   294.7308   Anisotropy =    73.4341

      6  S    Isotropic =   219.0232   Anisotropy =   366.8485

      7  O    Isotropic =    91.0161   Anisotropy =    76.2042

      8  O    Isotropic =   100.3957   Anisotropy =    86.4826

      9  F    Isotropic =   119.8373   Anisotropy =   351.0523

     10  F    Isotropic =   314.4286   Anisotropy =    81.2300

     11  F    Isotropic =   319.3782   Anisotropy =    73.0744

     12  F    Isotropic =   323.7640   Anisotropy =    74.5665

     13  F    Isotropic =   318.5480   Anisotropy =    70.6557

     14  C    Isotropic =    68.4232   Anisotropy =    12.3977

     15  F    Isotropic =   278.3644   Anisotropy =   106.7270

     16  F    Isotropic =   279.0661   Anisotropy =   116.0342

     17  F    Isotropic =   275.0301   Anisotropy =   106.5384

  Exact polarizability:  76.630  -1.611  63.079  -0.105   2.150  62.740
 Approx polarizability: 101.076   0.932  98.283   2.210   6.143 111.469

                      1                      2                      3
                      A                      A                      A
 Frequencies --     31.3972                47.9547                59.2421
 Red. masses --     18.4143                17.6829                18.6559
 Frc consts  --      0.0107                 0.0240                 0.0386
 IR Inten    --      0.0741                 0.0992                 0.1101

                      4                      5                      6
                      A                      A                      A
 Frequencies --     76.9920               107.7455               133.2330
 Red. masses --     18.1596                18.3138                17.8592
 Frc consts  --      0.0634                 0.1253                 0.1868
 IR Inten    --      0.0371                 0.4545                 1.3428

                      7                      8                      9
                      A                      A                      A
 Frequencies --    180.3480               183.7969               207.3697
 Red. masses --     18.2121                18.0934                17.8710
 Frc consts  --      0.3490                 0.3601                 0.4528
 IR Inten    --      2.6185                 2.0163                 3.3157

                     10                     11                     12
                      A                      A                      A
 Frequencies --    234.5622               235.7979               260.3110
 Red. masses --     18.6767                18.4289                18.1146
 Frc consts  --      0.6054                 0.6037                 0.7232
 IR Inten    --      0.5101                 0.9906                 1.9018

                     13                     14                     15
                      A                      A                      A
 Frequencies --    281.7422               285.8060               309.3241
 Red. masses --     18.4084                18.2889                18.6253
 Frc consts  --      0.8609                 0.8802                 1.0500
 IR Inten    --      0.3902                 4.0799                 0.4569

                     16                     17                     18
                      A                      A                      A
 Frequencies --    321.3054               340.7454               361.3937
 Red. masses --     18.2294                18.5060                17.9583
 Frc consts  --      1.1088                 1.2660                 1.3819
 IR Inten    --      1.1507                 0.6208                 1.6880

                     19                     20                     21
                      A                      A                      A
 Frequencies --    381.7892               416.0848               436.4653
 Red. masses --     18.2357                18.3217                18.2219
 Frc consts  --      1.5661                 1.8689                 2.0452
 IR Inten    --      2.3829                 8.4116                16.1829

                     22                     23                     24
                      A                      A                      A
 Frequencies --    479.1752               512.5583               528.9229
 Red. masses --     18.2321                17.7363                17.8888
 Frc consts  --      2.4665                 2.7454                 2.9486
 IR Inten    --      4.4097                 9.6156                 5.1921

                     25                     26                     27
                      A                      A                      A
 Frequencies --    574.2563               582.8750               604.1646
 Red. masses --     18.2074                18.5037                18.3711
 Frc consts  --      3.5376                 3.7039                 3.9509
 IR Inten    --     76.0561                26.8328                24.1593

                     28                     29                     30
                      A                      A                      A
 Frequencies --    644.0269               683.5990               742.5544
 Red. masses --     17.6464                17.4025                16.9795
 Frc consts  --      4.3123                 4.7914                 5.5161
 IR Inten    --     20.1411                12.7369                42.4248

                     31                     32                     33
                      A                      A                      A
 Frequencies --    790.4207               891.5505              1004.0554
 Red. masses --     21.1758                14.4834                13.3227
 Frc consts  --      7.7948                 6.7829                 7.9133
 IR Inten    --    123.0038               202.2301                30.3029

                     34                     35                     36
                      A                      A                      A
 Frequencies --   1141.2963              1161.6917              1201.1263
 Red. masses --     13.7578                13.6559                16.2310
 Frc consts  --     10.5584                10.8580                13.7966
 IR Inten    --    123.0219               108.0200                31.0025

                     37                     38                     39
                      A                      A                      A
 Frequencies --   1209.3872              1213.1456              1236.3950
 Red. masses --     13.4993                13.1927                13.5191
 Frc consts  --     11.6330                11.4395                12.1762
 IR Inten    --     53.5510                21.3795                64.1591

                     40                     41                     42
                      A                      A                      A
 Frequencies --   1251.8305              1272.2286              1282.9140
 Red. masses --     13.1805                13.1622                12.8123
 Frc consts  --     12.1695                12.5519                12.4243
 IR Inten    --    225.6867               353.4487               247.4445

                     43                     44                     45
                      A                      A                      A
 Frequencies --   1319.2970              1366.8716              1417.6110
 Red. masses --     12.3925                12.5015                20.7517
 Frc consts  --     12.7085                13.7616                24.5707
 IR Inten    --     43.1390                60.3609               217.7335

 - Thermochemistry -
 -------------------
 Temperature   298.150 Kelvin.  Pressure   1.00000 Atm.
 Atom     1 has atomic number  6 and mass  12.00000

 Molecular mass:   301.94593 amu.
 Principal axes and moments of inertia in atomic units:
                           1         2         3
     Eigenvalues --  2200.924225581.628986008.82470
           X            0.99999  -0.00390  -0.00245
           Y            0.00393   0.99992   0.01237
           Z            0.00240  -0.01238   0.99992
 This molecule is an asymmetric top.
 Rotational symmetry number  1.
 Warning -- assumption of classical behavior for rotation
           may cause significant error
 Rotational temperatures (Kelvin)      0.03935     0.01552     0.01441
 Rotational constants (GHZ):           0.81999     0.32334     0.30035
 Zero-point vibrational energy     167509.3 (Joules/Mol)
                                   40.03567 (Kcal/Mol)
 Warning -- explicit consideration of  27 degrees of freedom as
           vibrations may cause significant error
 Vibrational temperatures:     45.17    69.00    85.24   110.77   155.02
          (Kelvin)            191.69   259.48   264.44   298.36   337.48
                              339.26   374.53   405.36   411.21   445.05
                              462.29   490.26   519.96   549.31   598.65
                              627.98   689.43   737.46   761.00   826.23
                              838.63   869.26   926.61   983.55  1068.37
                             1137.24  1282.74  1444.61  1642.07  1671.42
                             1728.15  1740.04  1745.45  1778.90  1801.10
                             1830.45  1845.83  1898.17  1966.62  2039.63

 Zero-point correction=                           0.063801 (Hartree/Particle)
 Thermal correction to Energy=                    0.079708
 Thermal correction to Enthalpy=                  0.080652
 Thermal correction to Gibbs Free Energy=         0.019377
 Sum of electronic and zero-point Energies=          -1699.291607
 Sum of electronic and thermal Energies=             -1699.275701
 Sum of electronic and thermal Enthalpies=           -1699.274756
 Sum of electronic and thermal Free Energies=        -1699.336031

                     E (Thermal)             CV                S
                      KCal/Mol        Cal/Mol-Kelvin    Cal/Mol-Kelvin
 Total                   50.017             55.872            128.963
 Electronic               0.000              0.000              0.000
 Translational            0.889              2.981             43.012
 Rotational               0.889              2.981             32.668
 Vibrational             48.240             49.910             53.283
 Vibration     1          0.594              1.983              5.739
 Vibration     2          0.595              1.978              4.900
 Vibration     3          0.597              1.974              4.482
 Vibration     4          0.599              1.965              3.966
 Vibration     5          0.606              1.943              3.309
 Vibration     6          0.613              1.920              2.899
 Vibration     7          0.629              1.866              2.325
 Vibration     8          0.631              1.862              2.289
 Vibration     9          0.641              1.829              2.067
 Vibration    10          0.654              1.788              1.844
 Vibration    11          0.655              1.786              1.834
 Vibration    12          0.668              1.745              1.660
 Vibration    13          0.681              1.707              1.523
 Vibration    14          0.684              1.700              1.499
 Vibration    15          0.699              1.656              1.366
 Vibration    16          0.707              1.633              1.303
 Vibration    17          0.720              1.594              1.209
 Vibration    18          0.736              1.552              1.116
 Vibration    19          0.751              1.509              1.032
 Vibration    20          0.779              1.435              0.905
 Vibration    21          0.797              1.391              0.838
 Vibration    22          0.836              1.296              0.712
 Vibration    23          0.868              1.222              0.627
 Vibration    24          0.884              1.186              0.590
 Vibration    25          0.931              1.087              0.496
 Vibration    26          0.940              1.068              0.480
 Vibration    27          0.963              1.023              0.443

 Optimization completed.
    -- Stationary point found.
 Normal termination of Gaussian 16 at Mon Aug 24 18:50:17 2020.
 Gaussian 16:  ES64L-G16RevA.03 25-Dec-2016

 ----------------------------------------------------------------------
 # TD(NStates=10, Root=1) B3LYP/6-31G* scf=qc volume pop=NPA density=cu
 rrent Geom=AllCheck Guess=Read
 ----------------------------------------------------------------------

 Structure from the checkpoint file:  "sulfonylfluoride_4_conf23.chk"
 -------------------
 Title Card Required
 -------------------
 Charge =  0 Multiplicity = 1

                         Standard orientation:
 ---------------------------------------------------------------------
 Center     Atomic      Atomic             Coordinates (Angstroms)
 Number     Number       Type             X           Y           Z
 ---------------------------------------------------------------------
      1          6           0       -1.131403   -0.405055    0.197692
      2          6           0       -0.273336    0.800259   -0.269234
      3          6           0        1.197871    0.865066    0.244933
      4          9           0        1.767576    1.940590   -0.326201
      5          9           0        1.215254    0.997132    1.576593
      6         16           0        2.351254   -0.554335   -0.195445
      7          8           0        2.104857   -1.000515   -1.547543
      8          8           0        3.658991   -0.220440    0.319425
      9          9           0        1.701824   -1.637458    0.806696
     10          9           0       -0.245817    0.822717   -1.615641
     11          9           0       -0.855296    1.939429    0.183934
     12          9           0       -0.935833   -0.603792    1.521666
     13          9           0       -0.728514   -1.501197   -0.483207
     14          6           0       -2.657281   -0.231711   -0.037638
     15          9           0       -2.892828    0.149383   -1.299491
     16          9           0       -3.261692   -1.403148    0.184782
     17          9           0       -3.158671    0.681416    0.799485
 ---------------------------------------------------------------------

 SCF Done:  E(RB3LYP) =  -1699.35540819     a.u. after    1 cycles

 Excitation energies and oscillator strengths:

 Excited State   1:      Singlet-A      7.5122 eV  165.04 nm  f=0.0003  <S**2>=0.000
      72 -> 74         0.59760
      72 -> 75        -0.28800
      72 -> 76         0.12004
      73 -> 74        -0.14571
 This state for optimization and/or second-order correction.
 Total Energy, E(TD-HF/TD-DFT) =  -1699.07933812
 Copying the excited state density for this state as the 1-particle RhoCI density.

 Excited State   2:      Singlet-A      7.6785 eV  161.47 nm  f=0.0020  <S**2>=0.000
      71 -> 74         0.10010
      71 -> 75        -0.19867
      72 -> 74         0.19347
      72 -> 75         0.51604
      73 -> 74        -0.24813
      73 -> 75         0.25958

 Excited State   3:      Singlet-A      7.7330 eV  160.33 nm  f=0.0030  <S**2>=0.000
      70 -> 75        -0.17222
      72 -> 74        -0.25255
      72 -> 75        -0.21245
      73 -> 74        -0.17263
      73 -> 75         0.54551

 Excited State   4:      Singlet-A      8.0656 eV  153.72 nm  f=0.0106  <S**2>=0.000
      70 -> 74        -0.29911
      71 -> 74         0.55971
      71 -> 75         0.14079
      73 -> 74        -0.19571

 Excited State   5:      Singlet-A      8.0814 eV  153.42 nm  f=0.1168  <S**2>=0.000
      71 -> 74         0.25786
      72 -> 74         0.11862
      73 -> 74         0.55623
      73 -> 75         0.26972

 Excited State   6:      Singlet-A      8.4196 eV  147.26 nm  f=0.0090  <S**2>=0.000
      70 -> 75        -0.15172
      71 -> 75         0.56479
      72 -> 75         0.21946
      72 -> 78        -0.12530
      73 -> 76         0.16483

 Excited State   7:      Singlet-A      8.5899 eV  144.34 nm  f=0.0535  <S**2>=0.000
      70 -> 74         0.56938
      70 -> 75         0.13429
      71 -> 74         0.26169
      73 -> 76        -0.20313

 Excited State   8:      Singlet-A      8.6495 eV  143.34 nm  f=0.0265  <S**2>=0.000
      70 -> 75         0.60348
      71 -> 75         0.19638
      73 -> 75         0.15435
      73 -> 76         0.13473
      73 -> 77         0.10302

 Excited State   9:      Singlet-A      8.8626 eV  139.90 nm  f=0.0018  <S**2>=0.000
      70 -> 74         0.13558
      70 -> 75        -0.10008
      71 -> 74         0.11144
      72 -> 76         0.44194
      72 -> 78         0.13219
      73 -> 76         0.46687

 Excited State  10:      Singlet-A      8.9712 eV  138.20 nm  f=0.0185  <S**2>=0.000
      69 -> 75        -0.13484
      70 -> 76        -0.11362
      71 -> 74        -0.12244
      71 -> 75         0.12741
      71 -> 76         0.13082
      71 -> 78         0.12800
      72 -> 75         0.11728
      72 -> 76         0.45310
      73 -> 76        -0.39009

 The electronic state is 1-A.
 Alpha  occ. eigenvalues --  -89.18819 -24.78581 -24.78453 -24.77586 -24.77358
 Alpha  occ. eigenvalues --  -24.77232 -24.77023 -24.77010 -24.76884 -24.76745
 Alpha  occ. eigenvalues --  -24.76713 -19.21528 -19.21449 -10.48082 -10.44885
 Alpha  occ. eigenvalues --  -10.43385 -10.42647  -8.21264  -6.17924  -6.17576
 Alpha  occ. eigenvalues --   -6.17502  -1.35419  -1.34298  -1.32018  -1.31030
 Alpha  occ. eigenvalues --   -1.28857  -1.27618  -1.26824  -1.26098  -1.25950
 Alpha  occ. eigenvalues --   -1.25386  -1.15360  -1.07517  -0.85606  -0.81517
 Alpha  occ. eigenvalues --   -0.75745  -0.71654  -0.68598  -0.65258  -0.65059
 Alpha  occ. eigenvalues --   -0.64184  -0.63300  -0.62183  -0.61988  -0.60961
 Alpha  occ. eigenvalues --   -0.60393  -0.58763  -0.56174  -0.53589  -0.51983
 Alpha  occ. eigenvalues --   -0.51484  -0.50960  -0.50145  -0.49979  -0.49399
 Alpha  occ. eigenvalues --   -0.49023  -0.48579  -0.47916  -0.47356  -0.47070
 Alpha  occ. eigenvalues --   -0.46468  -0.46199  -0.45854  -0.45193  -0.44932
 Alpha  occ. eigenvalues --   -0.44720  -0.43805  -0.42943  -0.41737  -0.38484
 Alpha  occ. eigenvalues --   -0.37886  -0.36178  -0.35959
 Alpha virt. eigenvalues --   -0.03135  -0.02813   0.00916   0.02840   0.04652
 Alpha virt. eigenvalues --    0.05885   0.10502   0.13087   0.15681   0.17113
 Alpha virt. eigenvalues --    0.17633   0.19545   0.20558   0.23081   0.24471

 Mulliken charges:
               1
     1  C    0.476365
     2  C    0.525355
     3  C    0.333255
     4  F   -0.257662
     5  F   -0.238027
     6  S    1.031461
     7  O   -0.297845
     8  O   -0.293056
     9  F   -0.282854
    10  F   -0.259503
    11  F   -0.271755
    12  F   -0.264369
    13  F   -0.264109
    14  C    0.789390
    15  F   -0.243253
    16  F   -0.244358
    17  F   -0.239035
 Sum of Mulliken charges =  -0.00000

 Dipole moment (field-independent basis, Debye):
    X=             -0.0090    Y=              0.4405    Z=             -0.3226  Tot=              0.5461
 Quadrupole moment (field-independent basis, Debye-Ang):
   XX=            -94.9818   YY=            -96.8642   ZZ=            -96.0349
   XY=              0.8866   XZ=             -0.8744   YZ=              0.6224

 Summary of Natural Population Analysis:

                                       Natural Population
                Natural  -----------------------------------------------
    Atom  No    Charge         Core      Valence    Rydberg      Total
 -----------------------------------------------------------------------
      C    1    0.64307      1.99883     3.30352    0.05458     5.35693
      C    2    0.65280      1.99882     3.29111    0.05727     5.34720
      C    3    0.47921      1.99916     3.45315    0.06849     5.52079
      F    4   -0.34994      1.99993     7.34081    0.00920     9.34994
      F    5   -0.33166      1.99993     7.32199    0.00974     9.33166
      S    6    2.00879      9.99906     3.77913    0.21302    13.99121
      O    7   -0.62936      1.99989     6.60581    0.02366     8.62936
      O    8   -0.63384      1.99989     6.61017    0.02378     8.63384
      F    9   -0.51674      1.99997     7.50659    0.01018     9.51674
      F   10   -0.34049      1.99993     7.33208    0.00847     9.34049
      F   11   -0.34420      1.99994     7.33586    0.00841     9.34420
      F   12   -0.33968      1.99993     7.33138    0.00836     9.33968
      F   13   -0.34299      1.99993     7.33441    0.00865     9.34299
      C   14    1.07655      1.99927     2.84904    0.07514     4.92345
      F   15   -0.34696      1.99993     7.33972    0.00732     9.34696
      F   16   -0.34178      1.99993     7.33467    0.00718     9.34178
      F   17   -0.34276      1.99993     7.33549    0.00735     9.34276
 =======================================================================
   * Total *    0.00000     41.99427   103.40492    0.60081   146.00000

 Normal termination of Gaussian 16 at Mon Aug 24 18:59:57 2020.
