 Gaussian 16, Revision A.03,

 ---------------------------------
 # opt=CalcAll B3LYP/6-31G* scf=qc
 ---------------------------------

 -------------------
 Title Card Required
 -------------------
 Symbolic Z-matrix:
 Charge =  0 Multiplicity = 1

 SCF Done:  E(RB3LYP) =  -880.058552184     a.u. after    8 cycles
 SCF Done:  E(RB3LYP) =  -880.063761249     a.u. after   15 cycles
 SCF Done:  E(RB3LYP) =  -880.064038500     a.u. after   13 cycles
 SCF Done:  E(RB3LYP) =  -880.064044704     a.u. after    3 cycles
 Optimization completed.
    -- Stationary point found.
 Normal termination of Gaussian 16 at Mon Aug 24 17:08:30 2020.

 ----------------------------------------------------------------------
 # freq B3LYP/6-31G* scf=qc volume NMR pop=NPA density=current Geom=All
 Check Guess=Read
 ----------------------------------------------------------------------

 Structure from the checkpoint file:  "sulfonylfluoride_1_conf32.chk"
 -------------------
 Title Card Required
 -------------------
 Charge =  0 Multiplicity = 1

 SCF Done:  E(RB3LYP) =  -880.064044704     a.u. after    1 cycles

      1  C    Isotropic =    67.5156   Anisotropy =   169.1606

      2  C    Isotropic =    62.2920   Anisotropy =   178.5542

      3  C    Isotropic =    67.5156   Anisotropy =   169.1606

      4  C    Isotropic =    67.8822   Anisotropy =   170.9429

      5  C    Isotropic =    55.6212   Anisotropy =   111.5168

      6  C    Isotropic =    67.8824   Anisotropy =   170.9430

      7  S    Isotropic =   212.0626   Anisotropy =   320.0975

      8  O    Isotropic =   106.4393   Anisotropy =    75.6368

      9  O    Isotropic =   106.4375   Anisotropy =    75.6353

     10  F    Isotropic =    97.6821   Anisotropy =   363.9205

     11  H    Isotropic =    24.7471   Anisotropy =     4.7283

     12  H    Isotropic =    24.6549   Anisotropy =     4.6499

     13  H    Isotropic =    24.7471   Anisotropy =     4.7283

     14  H    Isotropic =    24.3791   Anisotropy =     7.8326

     15  H    Isotropic =    24.3792   Anisotropy =     7.8326

  Exact polarizability: 107.804  -0.000  88.191  -3.158   0.000  39.458
 Approx polarizability: 161.463  -0.000 163.826  -6.081   0.001  64.312

                      1                      2                      3
                      A                      A                      A
 Frequencies --     40.7003               115.6105               184.5615
 Red. masses --      5.7887                 7.1220                 6.9874
 Frc consts  --      0.0056                 0.0561                 0.1402
 IR Inten    --      0.0552                 0.2961                 1.2276

                      4                      5                      6
                      A                      A                      A
 Frequencies --    270.8823               311.8064               334.8431
 Red. masses --      6.5956                 8.7873                 9.5036
 Frc consts  --      0.2851                 0.5034                 0.6278
 IR Inten    --      1.9734                 1.9049                 1.3699

                      7                      8                      9
                      A                      A                      A
 Frequencies --    413.3353               437.6768               467.1867
 Red. masses --      2.9688                 7.3561                12.2811
 Frc consts  --      0.2988                 0.8302                 1.5793
 IR Inten    --      0.0202                 3.6448                 7.7418

                     10                     11                     12
                      A                      A                      A
 Frequencies --    517.3382               574.9548               626.5316
 Red. masses --      5.6332                14.4313                 6.4428
 Frc consts  --      0.8883                 2.8108                 1.4901
 IR Inten    --     13.5604               120.7633                 0.0002

                     13                     14                     15
                      A                      A                      A
 Frequencies --    693.0540               718.5895               761.0451
 Red. masses --      2.8095                 7.5832                 1.4277
 Frc consts  --      0.7951                 2.3071                 0.4872
 IR Inten    --     12.1395                29.0574                92.6679

                     16                     17                     18
                      A                      A                      A
 Frequencies --    794.3608               860.9425               945.9293
 Red. masses --     11.4536                 1.2431                 1.3028
 Frc consts  --      4.2582                 0.5429                 0.6868
 IR Inten    --    181.0577                 0.1119                 1.0435

                     19                     20                     21
                      A                      A                      A
 Frequencies --    983.6260              1012.5077              1015.0937
 Red. masses --      1.3550                 1.2810                 6.4280
 Frc consts  --      0.7724                 0.7737                 3.9025
 IR Inten    --      0.0331                 0.0386                 2.2259

                     22                     23                     24
                      A                      A                      A
 Frequencies --   1049.9508              1100.6657              1113.0685
 Red. masses --      2.9513                 3.0031                 1.5564
 Frc consts  --      1.9169                 2.1435                 1.1361
 IR Inten    --      1.4470                18.1940                 4.2630

                     25                     26                     27
                      A                      A                      A
 Frequencies --   1183.4488              1198.2951              1213.0231
 Red. masses --     10.1821                 1.1069                 1.1741
 Frc consts  --      8.4021                 0.9365                 1.0179
 IR Inten    --    214.0949                 0.0746                 0.5005

                     28                     29                     30
                      A                      A                      A
 Frequencies --   1346.4882              1362.5581              1389.7792
 Red. masses --      1.6089                 3.9744                13.6758
 Frc consts  --      1.7186                 4.3474                15.5630
 IR Inten    --      0.2103                40.9225               135.7491

                     31                     32                     33
                      A                      A                      A
 Frequencies --   1495.4580              1526.5833              1644.4963
 Red. masses --      2.1979                 2.0367                 5.3143
 Frc consts  --      2.8960                 2.7965                 8.4677
 IR Inten    --     22.7966                 3.2843                 2.9806

                     34                     35                     36
                      A                      A                      A
 Frequencies --   1645.5541              3196.9846              3209.2353
 Red. masses --      5.7524                 1.0865                 1.0901
 Frc consts  --      9.1775                 6.5429                 6.6147
 IR Inten    --      0.1222                 0.8694                10.6141

                     37                     38                     39
                      A                      A                      A
 Frequencies --   3217.5944              3233.7858              3234.6396
 Red. masses --      1.0947                 1.0931                 1.0949
 Frc consts  --      6.6771                 6.7349                 6.7496
 IR Inten    --     10.6771                 0.3359                 4.3227

 - Thermochemistry -
 -------------------
 Temperature   298.150 Kelvin.  Pressure   1.00000 Atm.
 Atom     1 has atomic number  6 and mass  12.00000

 Molecular mass:   159.99943 amu.
 Principal axes and moments of inertia in atomic units:
                           1         2         3
     Eigenvalues --   698.490642189.297312502.69428
           X            0.99998   0.00000  -0.00572
           Y           -0.00000   1.00000   0.00000
           Z            0.00572  -0.00000   0.99998
 This molecule is an asymmetric top.
 Rotational symmetry number  1.
 Warning -- assumption of classical behavior for rotation
           may cause significant error
 Rotational temperatures (Kelvin)      0.12400     0.03956     0.03461
 Rotational constants (GHZ):           2.58377     0.82435     0.72112
 Zero-point vibrational energy     271804.6 (Joules/Mol)
                                   64.96286 (Kcal/Mol)
 Warning -- explicit consideration of  11 degrees of freedom as
           vibrations may cause significant error
 Vibrational temperatures:     58.56   166.34   265.54   389.74   448.62
          (Kelvin)            481.76   594.70   629.72   672.18   744.33
                              827.23   901.44   997.15  1033.89  1094.97
                             1142.91  1238.70  1360.98  1415.22  1456.77
                             1460.49  1510.65  1583.61  1601.46  1702.72
                             1724.08  1745.27  1937.30  1960.42  1999.58
                             2151.63  2196.41  2366.06  2367.59  4599.75
                             4617.37  4629.40  4652.70  4653.92

 Zero-point correction=                           0.103525 (Hartree/Particle)
 Thermal correction to Energy=                    0.111875
 Thermal correction to Enthalpy=                  0.112819
 Thermal correction to Gibbs Free Energy=         0.069228
 Sum of electronic and zero-point Energies=           -879.960520
 Sum of electronic and thermal Energies=              -879.952170
 Sum of electronic and thermal Enthalpies=            -879.951225
 Sum of electronic and thermal Free Energies=         -879.994817

                     E (Thermal)             CV                S
                      KCal/Mol        Cal/Mol-Kelvin    Cal/Mol-Kelvin
 Total                   70.203             31.362             91.745
 Electronic               0.000              0.000              0.000
 Translational            0.889              2.981             41.119
 Rotational               0.889              2.981             29.727
 Vibrational             68.425             25.400             20.899
 Vibration     1          0.594              1.981              5.225
 Vibration     2          0.608              1.936              3.172
 Vibration     3          0.631              1.861              2.282
 Vibration     4          0.675              1.727              1.591
 Vibration     5          0.700              1.651              1.353
 Vibration     6          0.716              1.606              1.237
 Vibration     7          0.777              1.441              0.915
 Vibration     8          0.798              1.388              0.834
 Vibration     9          0.824              1.323              0.745
 Vibration    10          0.872              1.212              0.616
 Vibration    11          0.931              1.085              0.495

 Optimization completed.
    -- Stationary point found.
 Normal termination of Gaussian 16 at Mon Aug 24 17:12:27 2020.
 Gaussian 16:  ES64L-G16RevA.03 25-Dec-2016

 ----------------------------------------------------------------------
 # TD(NStates=10, Root=1) B3LYP/6-31G* scf=qc volume pop=NPA density=cu
 rrent Geom=AllCheck Guess=Read
 ----------------------------------------------------------------------

 Structure from the checkpoint file:  "sulfonylfluoride_1_conf33.chk"
 -------------------
 Title Card Required
 -------------------
 Charge =  0 Multiplicity = 1

                         Standard orientation:
 ---------------------------------------------------------------------
 Center     Atomic      Atomic             Coordinates (Angstroms)
 Number     Number       Type             X           Y           Z
 ---------------------------------------------------------------------
      1          6           0        2.369744    1.213033   -0.006385
      2          6           0        3.062399    0.000002   -0.035458
      3          6           0        2.369745   -1.213030   -0.006385
      4          6           0        0.976766   -1.222279    0.047558
      5          6           0        0.301654    0.000000    0.069661
      6          6           0        0.976765    1.222281    0.047557
      7         16           0       -1.474168   -0.000005    0.134900
      8          8           0       -1.957444   -1.272898    0.636946
      9          8           0       -1.957464    1.272841    0.637047
     10          9           0       -1.805623    0.000054   -1.455324
     11          1           0        2.913319    2.152919   -0.021212
     12          1           0        4.147970    0.000003   -0.075826
     13          1           0        2.913321   -2.152915   -0.021213
     14          1           0        0.419768   -2.152182    0.083273
     15          1           0        0.419763    2.152181    0.083264
 ---------------------------------------------------------------------

 SCF Done:  E(RB3LYP) =  -880.064044704     a.u. after    1 cycles

 Excitation energies and oscillator strengths:

 Excited State   1:      Singlet-A      5.2821 eV  234.73 nm  f=0.0136  <S**2>=0.000
      40 -> 43        -0.38088
      41 -> 42         0.59457
 This state for optimization and/or second-order correction.
 Total Energy, E(TD-HF/TD-DFT) =  -879.869932824
 Copying the excited state density for this state as the 1-particle RhoCI density.

 Excited State   2:      Singlet-A      5.8987 eV  210.19 nm  f=0.1108  <S**2>=0.000
      40 -> 42         0.63560
      41 -> 43         0.29406

 Excited State   3:      Singlet-A      6.2793 eV  197.45 nm  f=0.0020  <S**2>=0.000
      38 -> 42        -0.20606
      39 -> 42         0.66824

 Excited State   4:      Singlet-A      6.5879 eV  188.20 nm  f=0.0103  <S**2>=0.000
      37 -> 42         0.67869
      41 -> 43         0.17204

 Excited State   5:      Singlet-A      6.7152 eV  184.63 nm  f=0.0030  <S**2>=0.000
      38 -> 42         0.64011
      39 -> 42         0.19506
      40 -> 43         0.16859
      41 -> 42         0.10935

 Excited State   6:      Singlet-A      6.9297 eV  178.92 nm  f=0.2430  <S**2>=0.000
      37 -> 43        -0.13570
      38 -> 42        -0.19136
      40 -> 43         0.52299
      41 -> 42         0.33530
      41 -> 44        -0.20183

 Excited State   7:      Singlet-A      7.0130 eV  176.79 nm  f=0.5301  <S**2>=0.000
      37 -> 42        -0.14175
      40 -> 42        -0.27693
      40 -> 44         0.17210
      41 -> 43         0.59247

 Excited State   8:      Singlet-A      7.1429 eV  173.58 nm  f=0.0008  <S**2>=0.000
      39 -> 43         0.70399

 Excited State   9:      Singlet-A      7.3679 eV  168.28 nm  f=0.0085  <S**2>=0.000
      35 -> 42        -0.34393
      37 -> 43         0.57655
      41 -> 44        -0.16747

 Excited State  10:      Singlet-A      7.4338 eV  166.78 nm  f=0.0006  <S**2>=0.000
      35 -> 42         0.61243
      37 -> 43         0.32579
      41 -> 44        -0.11192

 The electronic state is 1-A.
 Alpha  occ. eigenvalues --  -89.15410 -24.73156 -19.17449 -19.17449 -10.25284
 Alpha  occ. eigenvalues --  -10.23280 -10.23279 -10.22790 -10.22539 -10.22533
 Alpha  occ. eigenvalues --   -8.17709  -6.14388  -6.14057  -6.13937  -1.24473
 Alpha  occ. eigenvalues --   -1.11427  -1.03497  -0.89502  -0.80126  -0.78299
 Alpha  occ. eigenvalues --   -0.69901  -0.64277  -0.62257  -0.57541  -0.53633
 Alpha  occ. eigenvalues --   -0.51254  -0.50248  -0.47888  -0.47727  -0.45828
 Alpha  occ. eigenvalues --   -0.44094  -0.43598  -0.40673  -0.39497  -0.38197
 Alpha  occ. eigenvalues --   -0.37937  -0.34241  -0.34139  -0.32499  -0.29115
 Alpha  occ. eigenvalues --   -0.28608
 Alpha virt. eigenvalues --   -0.06081  -0.03517   0.02442   0.05403   0.08488
 Alpha virt. eigenvalues --    0.10362   0.11395   0.12382   0.13627   0.14711
 Alpha virt. eigenvalues --    0.16435   0.17786   0.24524   0.27186   0.28004

 Mulliken charges:
               1
     1  C   -0.117590
     2  C   -0.134135
     3  C   -0.117590
     4  C   -0.129948
     5  C   -0.158070
     6  C   -0.129948
     7  S    1.179319
     8  O   -0.486444
     9  O   -0.486442
    10  F   -0.306042
    11  H    0.166993
    12  H    0.152493
    13  H    0.166993
    14  H    0.200206
    15  H    0.200204
 Sum of Mulliken charges =  -0.00000

 Dipole moment (field-independent basis, Debye):
    X=              6.0665    Y=              0.0000    Z=             -0.6940  Tot=              6.1061
 Quadrupole moment (field-independent basis, Debye-Ang):
   XX=            -62.0786   YY=            -59.2987   ZZ=            -66.4610
   XY=             -0.0001   XZ=              1.7727   YZ=             -0.0001

 Summary of Natural Population Analysis:

                                       Natural Population
                Natural  -----------------------------------------------
    Atom  No    Charge         Core      Valence    Rydberg      Total
 -----------------------------------------------------------------------
      C    1   -0.17005      1.99914     4.15389    0.01702     6.17005
      C    2   -0.27087      1.99917     4.25427    0.01744     6.27087
      C    3   -0.17005      1.99914     4.15389    0.01702     6.17005
      C    4   -0.17178      1.99904     4.15269    0.02006     6.17178
      C    5   -0.36987      1.99874     4.34236    0.02878     6.36987
      C    6   -0.17178      1.99904     4.15269    0.02006     6.17178
      S    7    2.38816      9.99872     3.40906    0.20406    13.61184
      O    8   -0.90731      1.99988     6.88447    0.02295     8.90731
      O    9   -0.90730      1.99988     6.88447    0.02295     8.90730
      F   10   -0.51427      1.99997     7.50484    0.00946     9.51427
      H   11    0.24530      0.00000     0.75392    0.00078     0.75470
      H   12    0.24287      0.00000     0.75635    0.00078     0.75713
      H   13    0.24530      0.00000     0.75392    0.00078     0.75470
      H   14    0.26584      0.00000     0.73285    0.00131     0.73416
      H   15    0.26583      0.00000     0.73285    0.00131     0.73417
 =======================================================================
   * Total *    0.00000     27.99272    53.62253    0.38475    82.00000

 Normal termination of Gaussian 16 at Mon Aug 24 17:17:34 2020.
