 Gaussian 16, Revision A.03,

 ---------------------------------
 # opt=CalcAll B3LYP/6-31G* scf=qc
 ---------------------------------

 -------------------
 Title Card Required
 -------------------
 Symbolic Z-matrix:
 Charge =  0 Multiplicity = 1

 SCF Done:  E(RB3LYP) =  -919.372710603     a.u. after    9 cycles
 SCF Done:  E(RB3LYP) =  -919.379944254     a.u. after   11 cycles
 SCF Done:  E(RB3LYP) =  -919.380775123     a.u. after   13 cycles
 SCF Done:  E(RB3LYP) =  -919.380954129     a.u. after   13 cycles
 SCF Done:  E(RB3LYP) =  -919.380989026     a.u. after    7 cycles
 SCF Done:  E(RB3LYP) =  -919.380989852     a.u. after    3 cycles
 SCF Done:  E(RB3LYP) =  -919.380989881     a.u. after    2 cycles
 Optimization completed.
    -- Stationary point found.
 Normal termination of Gaussian 16 at Mon Aug 24 18:13:20 2020.

 ----------------------------------------------------------------------
 # freq B3LYP/6-31G* scf=qc volume NMR pop=NPA density=current Geom=All
 Check Guess=Read
 ----------------------------------------------------------------------

 Structure from the checkpoint file:  "sulfonylfluoride_6_conf42.chk"
 -------------------
 Title Card Required
 -------------------
 Charge =  0 Multiplicity = 1

 SCF Done:  E(RB3LYP) =  -919.380989881     a.u. after    1 cycles

      1  C    Isotropic =   126.7495   Anisotropy =    45.1978

      2  H    Isotropic =    28.1442   Anisotropy =     3.4904

      3  H    Isotropic =    28.2989   Anisotropy =     3.8300

      4  C    Isotropic =    69.8208   Anisotropy =   159.3551

      5  C    Isotropic =    65.0595   Anisotropy =   157.3776

      6  C    Isotropic =    67.7499   Anisotropy =   166.8109

      7  C    Isotropic =    66.5458   Anisotropy =   172.3577

      8  C    Isotropic =    67.4579   Anisotropy =   167.5275

      9  C    Isotropic =    64.3995   Anisotropy =   160.8269

     10  S    Isotropic =   199.7779   Anisotropy =   298.3362

     11  O    Isotropic =    91.3410   Anisotropy =    76.0511

     12  O    Isotropic =    87.8917   Anisotropy =    70.6246

     13  F    Isotropic =   122.4508   Anisotropy =   350.2907

     14  H    Isotropic =    24.9574   Anisotropy =     7.2713

     15  H    Isotropic =    24.9028   Anisotropy =     4.7485

     16  H    Isotropic =    24.8645   Anisotropy =     4.2723

     17  H    Isotropic =    24.8601   Anisotropy =     4.7394

     18  H    Isotropic =    24.8778   Anisotropy =     7.3730

  Exact polarizability: 119.454  -0.019  93.573  17.021   1.499  56.474
 Approx polarizability: 175.276   2.217 167.032  35.934   4.967  92.316

                      1                      2                      3
                      A                      A                      A
 Frequencies --     24.3291                61.2181                81.6681
 Red. masses --      5.4908                 5.9461                 7.0035
 Frc consts  --      0.0019                 0.0131                 0.0275
 IR Inten    --      0.1792                 1.2073                 1.7796

                      4                      5                      6
                      A                      A                      A
 Frequencies --    208.1792               241.0346               267.7447
 Red. masses --      6.4212                 8.3088                 8.9263
 Frc consts  --      0.1640                 0.2844                 0.3770
 IR Inten    --      1.7447                 0.1054                 1.0804

                      7                      8                      9
                      A                      A                      A
 Frequencies --    355.4648               410.0328               414.4199
 Red. masses --      1.9860                10.5771                 3.0772
 Frc consts  --      0.1478                 1.0477                 0.3114
 IR Inten    --      1.0466                 9.8492                 0.6913

                     10                     11                     12
                      A                      A                      A
 Frequencies --    440.7542               463.5852               532.8540
 Red. masses --      7.7563                 5.6465                 6.0107
 Frc consts  --      0.8878                 0.7150                 1.0055
 IR Inten    --     10.4268                 9.5234                76.5362

                     13                     14                     15
                      A                      A                      A
 Frequencies --    609.0735               634.8659               685.9064
 Red. masses --      5.5289                 6.2699                 6.9489
 Frc consts  --      1.2084                 1.4889                 1.9262
 IR Inten    --     20.6325                 0.0286                23.7738

                     16                     17                     18
                      A                      A                      A
 Frequencies --    709.7055               766.8485               810.6754
 Red. masses --      1.7164                 2.7454                 4.0899
 Frc consts  --      0.5094                 0.9512                 1.5836
 IR Inten    --     31.4178                27.2574               115.7230

                     19                     20                     21
                      A                      A                      A
 Frequencies --    835.9844               854.7949               917.5372
 Red. masses --      4.2075                 1.2555                 1.8014
 Frc consts  --      1.7325                 0.5405                 0.8935
 IR Inten    --      0.1137                 0.1126                10.3615

                     22                     23                     24
                      A                      A                      A
 Frequencies --    930.8865               967.7068              1001.8601
 Red. masses --      1.4452                 1.3570                 1.2745
 Frc consts  --      0.7379                 0.7487                 0.7537
 IR Inten    --      5.8879                 0.0413                 0.0340

                     25                     26                     27
                      A                      A                      A
 Frequencies --   1019.2497              1058.8922              1113.9340
 Red. masses --      6.1135                 2.2448                 1.5817
 Frc consts  --      3.7420                 1.4829                 1.1564
 IR Inten    --      1.0735                 1.6598                 4.2752

                     28                     29                     30
                      A                      A                      A
 Frequencies --   1162.5693              1195.6357              1197.6554
 Red. masses --      2.5858                 1.2561                 1.3756
 Frc consts  --      2.0591                 1.0580                 1.1625
 IR Inten    --    105.6254                25.2403                48.7461

                     31                     32                     33
                      A                      A                      A
 Frequencies --   1218.0365              1232.3210              1310.3640
 Red. masses --      1.1405                 2.6965                 1.5427
 Frc consts  --      0.9969                 2.4126                 1.5607
 IR Inten    --      0.1194                 7.0081                23.1322

                     34                     35                     36
                      A                      A                      A
 Frequencies --   1361.9053              1372.2981              1394.3708
 Red. masses --      5.1075                 1.3314                 9.3774
 Frc consts  --      5.5815                 1.4773                10.7421
 IR Inten    --      3.4443                 0.9655               180.7862

                     37                     38                     39
                      A                      A                      A
 Frequencies --   1485.0974              1504.5257              1547.7423
 Red. masses --      1.1092                 2.2135                 2.2167
 Frc consts  --      1.4414                 2.9520                 3.1287
 IR Inten    --      7.9214                 8.4251                 6.6739

                     40                     41                     42
                      A                      A                      A
 Frequencies --   1647.0360              1665.2676              3091.9073
 Red. masses --      5.5107                 5.5073                 1.0602
 Frc consts  --      8.8077                 8.9981                 5.9713
 IR Inten    --      0.5992                 0.0428                 3.6938

                     43                     44                     45
                      A                      A                      A
 Frequencies --   3151.4363              3186.1589              3190.6247
 Red. masses --      1.1063                 1.0858                 1.0878
 Frc consts  --      6.4734                 6.4945                 6.5248
 IR Inten    --      0.0969                 2.3984                 0.4814

                     46                     47                     48
                      A                      A                      A
 Frequencies --   3198.0964              3207.2227              3215.9446
 Red. masses --      1.0911                 1.0945                 1.0981
 Frc consts  --      6.5752                 6.6334                 6.6916
 IR Inten    --     11.4626                26.4347                12.7319

 - Thermochemistry -
 -------------------
 Temperature   298.150 Kelvin.  Pressure   1.00000 Atm.
 Atom     1 has atomic number  6 and mass  12.00000

 Molecular mass:   174.01508 amu.
 Principal axes and moments of inertia in atomic units:
                           1         2         3
     Eigenvalues --   768.741343094.822073355.96844
           X            0.99992  -0.00285   0.01208
           Y            0.00269   0.99990   0.01383
           Z           -0.01212  -0.01379   0.99983
 This molecule is an asymmetric top.
 Rotational symmetry number  1.
 Warning -- assumption of classical behavior for rotation
           may cause significant error
 Rotational temperatures (Kelvin)      0.11267     0.02799     0.02581
 Rotational constants (GHZ):           2.34766     0.58315     0.53777
 Zero-point vibrational energy     346650.4 (Joules/Mol)
                                   82.85143 (Kcal/Mol)
 Warning -- explicit consideration of  13 degrees of freedom as
           vibrations may cause significant error
 Vibrational temperatures:     35.00    88.08   117.50   299.52   346.80
          (Kelvin)            385.22   511.43   589.95   596.26   634.15
                              667.00   766.66   876.32   913.43   986.87
                             1021.11  1103.32  1166.38  1202.80  1229.86
                             1320.13  1339.34  1392.31  1441.45  1466.47
                             1523.51  1602.70  1672.68  1720.25  1723.16
                             1752.48  1773.04  1885.32  1959.48  1974.43
                             2006.19  2136.72  2164.68  2226.86  2369.72
                             2395.95  4448.57  4534.21  4584.17  4590.60
                             4601.35  4614.48  4627.03

 Zero-point correction=                           0.132032 (Hartree/Particle)
 Thermal correction to Energy=                    0.141744
 Thermal correction to Enthalpy=                  0.142689
 Thermal correction to Gibbs Free Energy=         0.095088
 Sum of electronic and zero-point Energies=           -919.248958
 Sum of electronic and thermal Energies=              -919.239246
 Sum of electronic and thermal Enthalpies=            -919.238301
 Sum of electronic and thermal Free Energies=         -919.285902

                     E (Thermal)             CV                S
                      KCal/Mol        Cal/Mol-Kelvin    Cal/Mol-Kelvin
 Total                   88.946             36.177            100.184
 Electronic               0.000              0.000              0.000
 Translational            0.889              2.981             41.369
 Rotational               0.889              2.981             30.458
 Vibrational             87.168             30.215             28.357
 Vibration     1          0.593              1.985              6.245
 Vibration     2          0.597              1.973              4.418
 Vibration     3          0.600              1.962              3.850
 Vibration     4          0.641              1.828              2.060
 Vibration     5          0.658              1.778              1.795
 Vibration     6          0.673              1.732              1.611
 Vibration     7          0.731              1.564              1.142
 Vibration     8          0.774              1.448              0.926
 Vibration     9          0.778              1.439              0.911
 Vibration    10          0.801              1.381              0.824
 Vibration    11          0.821              1.331              0.756
 Vibration    12          0.888              1.177              0.581
 Vibration    13          0.968              1.013              0.434

 Optimization completed.
    -- Stationary point found.
 Normal termination of Gaussian 16 at Mon Aug 24 18:16:47 2020.
 Gaussian 16:  ES64L-G16RevA.03 25-Dec-2016

 ----------------------------------------------------------------------
 # TD(NStates=10, Root=1) B3LYP/6-31G* scf=qc volume pop=NPA density=cu
 rrent Geom=AllCheck Guess=Read
 ----------------------------------------------------------------------

 Structure from the checkpoint file:  "sulfonylfluoride_6_conf43.chk"
 -------------------
 Title Card Required
 -------------------
 Charge =  0 Multiplicity = 1

                         Standard orientation:
 ---------------------------------------------------------------------
 Center     Atomic      Atomic             Coordinates (Angstroms)
 Number     Number       Type             X           Y           Z
 ---------------------------------------------------------------------
      1          6           0       -0.601773    0.000063   -1.168806
      2          1           0       -0.844220   -0.911077   -1.721854
      3          1           0       -0.804321    0.859424   -1.816012
      4          6           0        0.798060    0.002835   -0.622235
      5          6           0        1.451353   -1.205902   -0.350660
      6          6           0        2.749007   -1.206202    0.158964
      7          6           0        3.402264    0.002218    0.408299
      8          6           0        2.753453    1.210752    0.147678
      9          6           0        1.456425    1.211535   -0.363265
     10         16           0       -1.901301    0.124699    0.103655
     11          8           0       -1.636417    1.216254    1.021760
     12          8           0       -3.201770   -0.067500   -0.513306
     13          9           0       -1.565530   -1.248626    0.904481
     14          1           0        0.942092   -2.147686   -0.538522
     15          1           0        3.248723   -2.149268    0.361390
     16          1           0        4.413951    0.002164    0.804402
     17          1           0        3.256443    2.153618    0.342516
     18          1           0        0.950679    2.153444   -0.558201
 ---------------------------------------------------------------------

 SCF Done:  E(RB3LYP) =  -919.380989881     a.u. after    1 cycles

 Excitation energies and oscillator strengths:

 Excited State   1:      Singlet-A      5.3283 eV  232.69 nm  f=0.0032  <S**2>=0.000
      44 -> 46         0.54257
      45 -> 47        -0.44966
 This state for optimization and/or second-order correction.
 Total Energy, E(TD-HF/TD-DFT) =  -919.185177581
 Copying the excited state density for this state as the 1-particle RhoCI density.

 Excited State   2:      Singlet-A      5.9305 eV  209.06 nm  f=0.1280  <S**2>=0.000
      44 -> 47         0.32327
      45 -> 46         0.62374

 Excited State   3:      Singlet-A      6.7079 eV  184.83 nm  f=0.0811  <S**2>=0.000
      44 -> 46         0.25143
      44 -> 47        -0.12992
      44 -> 48         0.11331
      45 -> 47         0.33178
      45 -> 48         0.53237

 Excited State   4:      Singlet-A      6.8025 eV  182.26 nm  f=0.2694  <S**2>=0.000
      43 -> 46         0.10973
      44 -> 46         0.20137
      44 -> 47         0.39280
      44 -> 48         0.38777
      45 -> 46        -0.19478
      45 -> 47         0.21273
      45 -> 48        -0.20941

 Excited State   5:      Singlet-A      6.9993 eV  177.14 nm  f=0.4553  <S**2>=0.000
      41 -> 46         0.13615
      44 -> 46        -0.21729
      44 -> 47         0.39234
      45 -> 46        -0.21156
      45 -> 47        -0.24011
      45 -> 48         0.38463

 Excited State   6:      Singlet-A      7.0407 eV  176.10 nm  f=0.0153  <S**2>=0.000
      43 -> 46         0.59157
      44 -> 48        -0.34714

 Excited State   7:      Singlet-A      7.1021 eV  174.57 nm  f=0.1744  <S**2>=0.000
      43 -> 46         0.33897
      44 -> 46        -0.19551
      44 -> 47        -0.18098
      44 -> 48         0.45324
      45 -> 47        -0.24303
      45 -> 48         0.10319

 Excited State   8:      Singlet-A      7.4415 eV  166.61 nm  f=0.0035  <S**2>=0.000
      39 -> 46        -0.10001
      40 -> 46         0.19007
      41 -> 46        -0.18779
      42 -> 46         0.62147

 Excited State   9:      Singlet-A      7.5358 eV  164.53 nm  f=0.0106  <S**2>=0.000
      39 -> 46         0.14827
      40 -> 46         0.50153
      41 -> 46        -0.35900
      42 -> 46        -0.23811

 Excited State  10:      Singlet-A      7.5517 eV  164.18 nm  f=0.0048  <S**2>=0.000
      41 -> 46        -0.10675
      42 -> 48         0.12286
      43 -> 47         0.53011
      43 -> 48         0.39566

 The electronic state is 1-A.
 Alpha  occ. eigenvalues --  -89.15015 -24.73461 -19.17472 -19.17408 -10.25784
 Alpha  occ. eigenvalues --  -10.22474 -10.21079 -10.20997 -10.20798 -10.20719
 Alpha  occ. eigenvalues --  -10.20677  -8.17415  -6.14101  -6.13749  -6.13610
 Alpha  occ. eigenvalues --   -1.24625  -1.11393  -1.03329  -0.87932  -0.81850
 Alpha  occ. eigenvalues --   -0.76282  -0.74208  -0.65644  -0.62549  -0.60950
 Alpha  occ. eigenvalues --   -0.55396  -0.53035  -0.52238  -0.50208  -0.48757
 Alpha  occ. eigenvalues --   -0.47718  -0.44360  -0.44133  -0.43562  -0.43273
 Alpha  occ. eigenvalues --   -0.42712  -0.38477  -0.37945  -0.36985  -0.36020
 Alpha  occ. eigenvalues --   -0.34128  -0.33955  -0.32360  -0.26733  -0.26483
 Alpha virt. eigenvalues --   -0.03340  -0.01861   0.01490   0.05226   0.07061
 Alpha virt. eigenvalues --    0.09562   0.09899   0.10428   0.12276   0.14490
 Alpha virt. eigenvalues --    0.14791   0.16386   0.17276   0.18167   0.22856

 Mulliken charges:
               1
     1  C   -0.598257
     2  H    0.218915
     3  H    0.216901
     4  C    0.161644
     5  C   -0.158818
     6  C   -0.127638
     7  C   -0.131868
     8  C   -0.128244
     9  C   -0.151916
    10  S    1.214104
    11  O   -0.473966
    12  O   -0.477261
    13  F   -0.313506
    14  H    0.150246
    15  H    0.150246
    16  H    0.143700
    17  H    0.151165
    18  H    0.154552
 Sum of Mulliken charges =  -0.00000

 Dipole moment (field-independent basis, Debye):
    X=              4.5553    Y=             -0.5968    Z=             -2.0749  Tot=              5.0411
 Quadrupole moment (field-independent basis, Debye-Ang):
   XX=            -74.5058   YY=            -65.2571   ZZ=            -70.3750
   XY=              0.9687   XZ=              3.4014   YZ=             -1.6834

 Summary of Natural Population Analysis:

                                       Natural Population
                Natural  -----------------------------------------------
    Atom  No    Charge         Core      Valence    Rydberg      Total
 -----------------------------------------------------------------------
      C    1   -0.71812      1.99916     4.69907    0.01989     6.71812
      H    2    0.27918      0.00000     0.71872    0.00210     0.72082
      H    3    0.27778      0.00000     0.72015    0.00206     0.72222
      C    4   -0.07837      1.99905     4.05941    0.01991     6.07837
      C    5   -0.19180      1.99907     4.17494    0.01780     6.19180
      C    6   -0.19763      1.99914     4.18072    0.01776     6.19763
      C    7   -0.24666      1.99915     4.23008    0.01743     6.24666
      C    8   -0.19682      1.99915     4.17994    0.01774     6.19682
      C    9   -0.18775      1.99907     4.17099    0.01770     6.18775
      S   10    2.37791      9.99891     3.42031    0.20287    13.62209
      O   11   -0.89757      1.99988     6.87390    0.02379     8.89757
      O   12   -0.89902      1.99989     6.87575    0.02339     8.89902
      F   13   -0.51015      1.99997     7.50105    0.00914     9.51015
      H   14    0.23657      0.00000     0.76223    0.00121     0.76343
      H   15    0.23782      0.00000     0.76133    0.00084     0.76218
      H   16    0.23702      0.00000     0.76218    0.00080     0.76298
      H   17    0.23827      0.00000     0.76089    0.00084     0.76173
      H   18    0.23935      0.00000     0.75946    0.00118     0.76065
 =======================================================================
   * Total *   -0.00000     29.99243    59.61112    0.39645    90.00000

 Normal termination of Gaussian 16 at Mon Aug 24 18:21:35 2020.
