 Gaussian 16, Revision A.03,

 ---------------------------------
 # opt=CalcAll B3LYP/6-31G* scf=qc
 ---------------------------------

 -------------------
 Title Card Required
 -------------------
 Symbolic Z-matrix:
 Charge =  0 Multiplicity = 1

 SCF Done:  E(RB3LYP) =  -896.089851348     a.u. after    8 cycles
 SCF Done:  E(RB3LYP) =  -896.095278913     a.u. after   11 cycles
 SCF Done:  E(RB3LYP) =  -896.095661125     a.u. after   13 cycles
 SCF Done:  E(RB3LYP) =  -896.095675599     a.u. after    9 cycles
 SCF Done:  E(RB3LYP) =  -896.095676126     a.u. after    3 cycles
 SCF Done:  E(RB3LYP) =  -896.095676163     a.u. after    2 cycles
 Optimization completed.
    -- Stationary point found.
 Normal termination of Gaussian 16 at Mon Aug 24 17:39:48 2020.

 ----------------------------------------------------------------------
 # freq B3LYP/6-31G* scf=qc volume NMR pop=NPA density=current Geom=All
 Check Guess=Read
 ----------------------------------------------------------------------

 Structure from the checkpoint file:  "sulfonylfluoride_3_conf92.chk"
 -------------------
 Title Card Required
 -------------------
 Charge =  0 Multiplicity = 1

 SCF Done:  E(RB3LYP) =  -896.095676163     a.u. after    1 cycles

      1  C    Isotropic =    59.4467   Anisotropy =   186.4637

      2  C    Isotropic =    68.7965   Anisotropy =   169.5512

      3  C    Isotropic =    46.3330   Anisotropy =   158.2644

      4  N    Isotropic =   -54.4679   Anisotropy =   516.7551

      5  C    Isotropic =    36.9810   Anisotropy =   102.9669

      6  C    Isotropic =    72.2062   Anisotropy =   166.2711

      7  S    Isotropic =   218.1854   Anisotropy =   333.1438

      8  O    Isotropic =    98.0555   Anisotropy =    68.9885

      9  O    Isotropic =   111.1454   Anisotropy =    72.1989

     10  F    Isotropic =   110.9634   Anisotropy =   355.5085

     11  H    Isotropic =    24.5090   Anisotropy =     4.9473

     12  H    Isotropic =    24.9260   Anisotropy =     4.8204

     13  H    Isotropic =    23.4902   Anisotropy =     5.2436

     14  H    Isotropic =    24.4344   Anisotropy =     8.2961

  Exact polarizability: 103.116   1.628  81.435  -2.572   1.442  39.810
 Approx polarizability: 152.785   1.384 154.167  -4.852   5.071  66.588

                      1                      2                      3
                      A                      A                      A
 Frequencies --     40.0236               114.3644               176.0245
 Red. masses --      6.7434                 7.1526                 8.2364
 Frc consts  --      0.0064                 0.0551                 0.1504
 IR Inten    --      0.8697                 0.0735                 0.3549

                      4                      5                      6
                      A                      A                      A
 Frequencies --    264.9303               298.2252               333.3393
 Red. masses --      7.2510                 9.3254                10.8031
 Frc consts  --      0.2999                 0.4887                 0.7072
 IR Inten    --      1.2693                 4.0700                 0.4090

                      7                      8                      9
                      A                      A                      A
 Frequencies --    411.0193               435.8875               468.2253
 Red. masses --      3.6161                 8.1193                13.5167
 Frc consts  --      0.3599                 0.9089                 1.7459
 IR Inten    --      0.5388                 9.9112                10.2110

                     10                     11                     12
                      A                      A                      A
 Frequencies --    523.5115               581.6706               625.1970
 Red. masses --      4.3524                15.9963                 7.4237
 Frc consts  --      0.7028                 3.1888                 1.7096
 IR Inten    --     10.3704               131.7094                 4.6383

                     13                     14                     15
                      A                      A                      A
 Frequencies --    735.5290               747.3242               786.7847
 Red. masses --      8.1408                 3.9144                 1.6018
 Frc consts  --      2.5949                 1.2881                 0.5842
 IR Inten    --     25.0760                 3.6196               116.1784

                     16                     17                     18
                      A                      A                      A
 Frequencies --    805.7582               925.2701               987.0443
 Red. masses --      5.5445                 1.2615                 1.4023
 Frc consts  --      2.1209                 0.6363                 0.8049
 IR Inten    --    117.7717                 0.2754                 0.1401

                     19                     20                     21
                      A                      A                      A
 Frequencies --   1009.1225              1020.8006              1067.8776
 Red. masses --      7.3335                 1.3112                 2.7601
 Frc consts  --      4.4000                 0.8050                 1.8544
 IR Inten    --      9.0685                 0.0386                 3.3946

                     22                     23                     24
                      A                      A                      A
 Frequencies --   1108.2237              1138.9634              1185.7764
 Red. masses --      2.1182                 2.3404                 1.1755
 Frc consts  --      1.5328                 1.7888                 0.9738
 IR Inten    --     18.8985                30.3700                 6.3321

                     25                     26                     27
                      A                      A                      A
 Frequencies --   1195.3445              1320.5497              1339.8375
 Red. masses --      7.0764                 2.3675                 2.4362
 Frc consts  --      5.9573                 2.4325                 2.5768
 IR Inten    --    126.9603                 3.6972                 2.3291

                     28                     29                     30
                      A                      A                      A
 Frequencies --   1390.6598              1471.6276              1501.9553
 Red. masses --     18.3100                 2.1322                 2.0986
 Frc consts  --     20.8632                 2.7206                 2.7893
 IR Inten    --    179.2521                32.4388                10.5982

                     31                     32                     33
                      A                      A                      A
 Frequencies --   1624.2697              1638.2385              3196.1034
 Red. masses --      5.1287                 6.0480                 1.0893
 Frc consts  --      7.9721                 9.5635                 6.5560
 IR Inten    --     11.5893                14.9431                 8.4444

                     34                     35                     36
                      A                      A                      A
 Frequencies --   3209.7936              3225.1724              3249.4793
 Red. masses --      1.0902                 1.0966                 1.0941
 Frc consts  --      6.6177                 6.7206                 6.8066
 IR Inten    --      8.0994                 9.6136                 1.8293

 - Thermochemistry -
 -------------------
 Temperature   298.150 Kelvin.  Pressure   1.00000 Atm.
 Atom     1 has atomic number  6 and mass  12.00000

 Molecular mass:   160.99468 amu.
 Principal axes and moments of inertia in atomic units:
                           1         2         3
     Eigenvalues --   687.136462143.561652446.92209
           X            0.99999   0.00069  -0.00508
           Y           -0.00065   0.99997   0.00813
           Z            0.00508  -0.00813   0.99995
 This molecule is an asymmetric top.
 Rotational symmetry number  1.
 Warning -- assumption of classical behavior for rotation
           may cause significant error
 Rotational temperatures (Kelvin)      0.12605     0.04041     0.03540
 Rotational constants (GHZ):           2.62647     0.84194     0.73756
 Zero-point vibrational energy     240173.8 (Joules/Mol)
                                   57.40292 (Kcal/Mol)
 Warning -- explicit consideration of  11 degrees of freedom as
           vibrations may cause significant error
 Vibrational temperatures:     57.59   164.54   253.26   381.18   429.08
          (Kelvin)            479.60   591.37   627.14   673.67   753.22
                              836.89   899.52  1058.26  1075.23  1132.01
                             1159.31  1331.26  1420.14  1451.90  1468.70
                             1536.44  1594.49  1638.71  1706.07  1719.83
                             1899.98  1927.73  2000.85  2117.34  2160.98
                             2336.96  2357.06  4598.48  4618.18  4640.30
                             4675.28

 Zero-point correction=                           0.091477 (Hartree/Particle)
 Thermal correction to Energy=                    0.099752
 Thermal correction to Enthalpy=                  0.100696
 Thermal correction to Gibbs Free Energy=         0.057153
 Sum of electronic and zero-point Energies=           -896.004199
 Sum of electronic and thermal Energies=              -895.995925
 Sum of electronic and thermal Enthalpies=            -895.994980
 Sum of electronic and thermal Free Energies=         -896.038523

                     E (Thermal)             CV                S
                      KCal/Mol        Cal/Mol-Kelvin    Cal/Mol-Kelvin
 Total                   62.595             30.461             91.643
 Electronic               0.000              0.000              0.000
 Translational            0.889              2.981             41.137
 Rotational               0.889              2.981             29.667
 Vibrational             60.818             24.500             20.838
 Vibration     1          0.594              1.981              5.258
 Vibration     2          0.607              1.938              3.193
 Vibration     3          0.628              1.872              2.370
 Vibration     4          0.671              1.737              1.629
 Vibration     5          0.691              1.677              1.427
 Vibration     6          0.715              1.609              1.244
 Vibration     7          0.775              1.446              0.923
 Vibration     8          0.796              1.392              0.840
 Vibration     9          0.825              1.321              0.743
 Vibration    10          0.878              1.198              0.602
 Vibration    11          0.938              1.071              0.482

 Optimization completed.
    -- Stationary point found.
 Normal termination of Gaussian 16 at Mon Aug 24 17:43:08 2020.
 Gaussian 16:  ES64L-G16RevA.03 25-Dec-2016

 ----------------------------------------------------------------------
 # TD(NStates=10, Root=1) B3LYP/6-31G* scf=qc volume pop=NPA density=cu
 rrent Geom=AllCheck Guess=Read
 ----------------------------------------------------------------------

 Structure from the checkpoint file:  "sulfonylfluoride_3_conf93.chk"
 -------------------
 Title Card Required
 -------------------
 Charge =  0 Multiplicity = 1

                         Standard orientation:
 ---------------------------------------------------------------------
 Center     Atomic      Atomic             Coordinates (Angstroms)
 Number     Number       Type             X           Y           Z
 ---------------------------------------------------------------------
      1          6           0       -2.415470    1.163715    0.002453
      2          6           0       -3.026178   -0.088720    0.015259
      3          6           0       -2.221456   -1.232475   -0.003099
      4          7           0       -0.886585   -1.182572   -0.037533
      5          6           0       -0.336609    0.023373   -0.046875
      6          6           0       -1.021193    1.235588   -0.027065
      7         16           0        1.468122    0.050013   -0.124061
      8          8           0        1.963938   -0.897005   -1.100197
      9          8           0        1.919238    1.430250   -0.077508
     10          9           0        1.782310   -0.581643    1.332907
     11          1           0       -3.010002    2.072369    0.015897
     12          1           0       -4.107066   -0.185318    0.038783
     13          1           0       -2.662405   -2.226356    0.008401
     14          1           0       -0.485144    2.177045   -0.033946
 ---------------------------------------------------------------------

 SCF Done:  E(RB3LYP) =  -896.095676163     a.u. after    1 cycles

 Excitation energies and oscillator strengths:

 Excited State   1:      Singlet-A      4.7731 eV  259.75 nm  f=0.0032  <S**2>=0.000
      41 -> 42         0.70293
 This state for optimization and/or second-order correction.
 Total Energy, E(TD-HF/TD-DFT) =  -895.920266738
 Copying the excited state density for this state as the 1-particle RhoCI density.

 Excited State   2:      Singlet-A      5.2420 eV  236.52 nm  f=0.0010  <S**2>=0.000
      41 -> 43         0.70231

 Excited State   3:      Singlet-A      5.4906 eV  225.81 nm  f=0.0552  <S**2>=0.000
      38 -> 42        -0.11043
      38 -> 43         0.16407
      39 -> 42        -0.17664
      39 -> 43         0.23145
      40 -> 42         0.55831
      40 -> 43         0.23865

 Excited State   4:      Singlet-A      5.9342 eV  208.93 nm  f=0.0177  <S**2>=0.000
      37 -> 42        -0.14227
      38 -> 42        -0.34535
      39 -> 42         0.50702
      40 -> 42         0.19784
      40 -> 43        -0.22499

 Excited State   5:      Singlet-A      6.1732 eV  200.84 nm  f=0.0581  <S**2>=0.000
      38 -> 42         0.53012
      40 -> 42         0.24968
      40 -> 43        -0.35387

 Excited State   6:      Singlet-A      6.4560 eV  192.05 nm  f=0.0031  <S**2>=0.000
      36 -> 42         0.33550
      37 -> 42         0.54691
      38 -> 43         0.11066
      40 -> 43        -0.23006

 Excited State   7:      Singlet-A      6.4791 eV  191.36 nm  f=0.0004  <S**2>=0.000
      36 -> 42         0.59726
      37 -> 42        -0.34957

 Excited State   8:      Singlet-A      6.5801 eV  188.42 nm  f=0.0022  <S**2>=0.000
      38 -> 43         0.55346
      39 -> 42        -0.14863
      39 -> 43        -0.37993

 Excited State   9:      Singlet-A      6.9543 eV  178.29 nm  f=0.0472  <S**2>=0.000
      36 -> 43         0.33270
      37 -> 43         0.50013
      38 -> 43        -0.22024
      39 -> 42        -0.17751
      39 -> 43        -0.12099
      40 -> 43        -0.15294

 Excited State  10:      Singlet-A      7.0977 eV  174.68 nm  f=0.0037  <S**2>=0.000
      36 -> 43         0.60188
      37 -> 43        -0.34290

 The electronic state is 1-A.
 Alpha  occ. eigenvalues --  -89.15274 -24.73414 -19.17584 -19.17446 -14.37615
 Alpha  occ. eigenvalues --  -10.28666 -10.26252 -10.24749 -10.24415 -10.23930
 Alpha  occ. eigenvalues --   -8.17618  -6.14296  -6.13957  -6.13841  -1.24735
 Alpha  occ. eigenvalues --   -1.11495  -1.03479  -0.99027  -0.84440  -0.81506
 Alpha  occ. eigenvalues --   -0.71437  -0.67320  -0.64081  -0.58189  -0.54217
 Alpha  occ. eigenvalues --   -0.52317  -0.51745  -0.49343  -0.48701  -0.45208
 Alpha  occ. eigenvalues --   -0.44458  -0.43554  -0.43192  -0.41312  -0.38224
 Alpha  occ. eigenvalues --   -0.35070  -0.34324  -0.32587  -0.32385  -0.30268
 Alpha  occ. eigenvalues --   -0.29660
 Alpha virt. eigenvalues --   -0.07328  -0.05508   0.01944   0.05334   0.07665
 Alpha virt. eigenvalues --    0.09894   0.10179   0.12154   0.13826   0.14957
 Alpha virt. eigenvalues --    0.15858   0.22507   0.25783   0.27118   0.29760

 Mulliken charges:
               1
     1  C   -0.130356
     2  C   -0.184025
     3  C    0.077471
     4  N   -0.330113
     5  C   -0.032052
     6  C   -0.103610
     7  S    1.198272
     8  O   -0.455213
     9  O   -0.474620
    10  F   -0.297368
    11  H    0.161368
    12  H    0.162448
    13  H    0.198508
    14  H    0.209288
 Sum of Mulliken charges =  -0.00000

 Dipole moment (field-independent basis, Debye):
    X=             -5.5307    Y=             -0.3546    Z=              0.6555  Tot=              5.5807
 Quadrupole moment (field-independent basis, Debye-Ang):
   XX=            -59.3879   YY=            -58.5883   ZZ=            -66.5056
   XY=              0.9273   XZ=              1.6482   YZ=             -1.1224

 Summary of Natural Population Analysis:

                                       Natural Population
                Natural  -----------------------------------------------
    Atom  No    Charge         Core      Valence    Rydberg      Total
 -----------------------------------------------------------------------
      C    1   -0.24795      1.99910     4.23183    0.01702     6.24795
      C    2   -0.35569      1.99908     4.34006    0.01656     6.35569
      C    3    0.01918      1.99913     3.96189    0.01981     5.98082
      N    4   -0.14221      1.99884     5.12576    0.01761     7.14221
      C    5   -0.24609      1.99877     4.21031    0.03701     6.24609
      C    6   -0.21068      1.99895     4.19616    0.01557     6.21068
      S    7    2.38600      9.99882     3.41121    0.20397    13.61400
      O    8   -0.88221      1.99988     6.85849    0.02384     8.88221
      O    9   -0.89252      1.99988     6.86981    0.02283     8.89252
      F   10   -0.50325      1.99997     7.49352    0.00976     9.50325
      H   11    0.25795      0.00000     0.74143    0.00062     0.74205
      H   12    0.26345      0.00000     0.73605    0.00049     0.73655
      H   13    0.26528      0.00000     0.73417    0.00055     0.73472
      H   14    0.28874      0.00000     0.71028    0.00098     0.71126
 =======================================================================
   * Total *    0.00000     27.99241    53.62097    0.38661    82.00000

 Normal termination of Gaussian 16 at Mon Aug 24 17:47:31 2020.
