 Gaussian 16, Revision A.03,

 ---------------------------------
 # opt=CalcAll B3LYP/6-31G* scf=qc
 ---------------------------------

 -------------------
 Title Card Required
 -------------------
 Symbolic Z-matrix:
 Charge =  0 Multiplicity = 1

 SCF Done:  E(RB3LYP) =  -1699.29087194     a.u. after    8 cycles
 SCF Done:  E(RB3LYP) =  -1699.31444847     a.u. after   15 cycles
 SCF Done:  E(RB3LYP) =  -1699.34373549     a.u. after   15 cycles
 SCF Done:  E(RB3LYP) =  -1699.34617740     a.u. after   17 cycles
 SCF Done:  E(RB3LYP) =  -1699.35137349     a.u. after   13 cycles
 SCF Done:  E(RB3LYP) =  -1699.34099893     a.u. after   18 cycles
 SCF Done:  E(RB3LYP) =  -1699.35287924     a.u. after   13 cycles
 SCF Done:  E(RB3LYP) =  -1699.35603021     a.u. after   13 cycles
 SCF Done:  E(RB3LYP) =  -1699.35658725     a.u. after   11 cycles
 SCF Done:  E(RB3LYP) =  -1699.35661718     a.u. after    6 cycles
 SCF Done:  E(RB3LYP) =  -1699.35661813     a.u. after    3 cycles
 SCF Done:  E(RB3LYP) =  -1699.35661815     a.u. after    2 cycles
 Optimization completed.
    -- Stationary point found.
 Normal termination of Gaussian 16 at Mon Aug 24 19:01:44 2020.

 ----------------------------------------------------------------------
 # freq B3LYP/6-31G* scf=qc volume NMR pop=NPA density=current Geom=All
 Check Guess=Read
 ----------------------------------------------------------------------

 Structure from the checkpoint file:  "sulfonylfluoride_4_conf242.chk"
 -------------------
 Title Card Required
 -------------------
 Charge =  0 Multiplicity = 1

 SCF Done:  E(RB3LYP) =  -1699.35661815     a.u. after    1 cycles

      1  C    Isotropic =    76.2996   Anisotropy =    13.2023

      2  C    Isotropic =    76.5801   Anisotropy =    15.3970

      3  C    Isotropic =    68.6978   Anisotropy =    16.1934

      4  F    Isotropic =   299.3932   Anisotropy =    63.6746

      5  F    Isotropic =   294.6353   Anisotropy =    67.0590

      6  S    Isotropic =   218.9350   Anisotropy =   371.3443

      7  O    Isotropic =    92.6767   Anisotropy =    60.6367

      8  O    Isotropic =    89.2389   Anisotropy =    56.8653

      9  F    Isotropic =   119.9710   Anisotropy =   370.4936

     10  F    Isotropic =   311.2008   Anisotropy =    78.1122

     11  F    Isotropic =   316.9889   Anisotropy =    66.9310

     12  F    Isotropic =   321.6210   Anisotropy =    79.3322

     13  F    Isotropic =   317.4265   Anisotropy =    76.3727

     14  C    Isotropic =    68.6883   Anisotropy =    12.6562

     15  F    Isotropic =   276.5920   Anisotropy =   105.0152

     16  F    Isotropic =   281.0888   Anisotropy =   115.4528

     17  F    Isotropic =   278.4496   Anisotropy =   105.3909

  Exact polarizability:  77.224   1.419  65.136   2.457  -0.100  61.403
 Approx polarizability:  96.020  -0.674 113.208   2.584  -1.615 101.772

                      1                      2                      3
                      A                      A                      A
 Frequencies --     35.4330                43.5479                48.7061
 Red. masses --     17.5587                18.0763                18.6305
 Frc consts  --      0.0130                 0.0202                 0.0260
 IR Inten    --      0.3071                 0.0208                 0.1035

                      4                      5                      6
                      A                      A                      A
 Frequencies --     68.4288               107.4151               151.3183
 Red. masses --     18.5929                17.8274                18.3966
 Frc consts  --      0.0513                 0.1212                 0.2482
 IR Inten    --      0.0568                 0.9216                 0.3414

                      7                      8                      9
                      A                      A                      A
 Frequencies --    171.3243               188.4225               209.0754
 Red. masses --     17.9633                17.1509                18.5257
 Frc consts  --      0.3107                 0.3588                 0.4771
 IR Inten    --      1.0307                 2.6369                 2.4500

                     10                     11                     12
                      A                      A                      A
 Frequencies --    222.4189               236.8707               271.8733
 Red. masses --     19.1192                18.3943                18.4565
 Frc consts  --      0.5573                 0.6081                 0.8038
 IR Inten    --      0.4260                 2.3643                 6.1795

                     13                     14                     15
                      A                      A                      A
 Frequencies --    290.9885               295.2567               304.9830
 Red. masses --     18.2577                18.4155                18.3988
 Frc consts  --      0.9109                 0.9459                 1.0083
 IR Inten    --      0.2096                 1.5201                 1.2443

                     16                     17                     18
                      A                      A                      A
 Frequencies --    334.2144               345.2405               366.2477
 Red. masses --     17.9073                18.3558                18.5873
 Frc consts  --      1.1785                 1.2890                 1.4690
 IR Inten    --      1.8305                 0.6533                 0.4174

                     19                     20                     21
                      A                      A                      A
 Frequencies --    380.6677               435.9125               440.6975
 Red. masses --     18.5618                18.0815                18.3331
 Frc consts  --      1.5848                 2.0243                 2.0978
 IR Inten    --      1.7200                15.8004                 5.1045

                     22                     23                     24
                      A                      A                      A
 Frequencies --    453.5299               523.9097               536.4325
 Red. masses --     18.0669                17.8924                17.5708
 Frc consts  --      2.1895                 2.8935                 2.9790
 IR Inten    --      7.6114                30.2338                 3.4917

                     25                     26                     27
                      A                      A                      A
 Frequencies --    563.0606               579.3908               616.8773
 Red. masses --     18.6345                18.1017                18.8866
 Frc consts  --      3.4808                 3.5802                 4.2345
 IR Inten    --     68.8944                23.6938                37.2720

                     28                     29                     30
                      A                      A                      A
 Frequencies --    654.4855               690.4419               740.1126
 Red. masses --     17.4580                17.1768                16.8025
 Frc consts  --      4.4060                 4.8244                 5.4228
 IR Inten    --      7.9492                47.8255               105.4369

                     31                     32                     33
                      A                      A                      A
 Frequencies --    770.1886               858.7950              1025.9633
 Red. masses --     18.6356                15.9763                13.3318
 Frc consts  --      6.5131                 6.9423                 8.2681
 IR Inten    --    140.8980                21.5008                91.1834

                     34                     35                     36
                      A                      A                      A
 Frequencies --   1134.2964              1168.5023              1190.7709
 Red. masses --     13.7945                13.7472                15.9300
 Frc consts  --     10.4571                11.0592                13.3083
 IR Inten    --     84.2392               149.1426               142.8111

                     37                     38                     39
                      A                      A                      A
 Frequencies --   1206.8879              1215.4214              1248.3181
 Red. masses --     14.0373                13.1726                13.1385
 Frc consts  --     12.0467                11.4650                12.0627
 IR Inten    --     41.0432                64.1828               138.6625

                     40                     41                     42
                      A                      A                      A
 Frequencies --   1267.9336              1272.1618              1287.1043
 Red. masses --     12.9552                13.2260                12.5447
 Frc consts  --     12.2712                12.6114                12.2444
 IR Inten    --    165.1070               346.4612               115.4916

                     43                     44                     45
                      A                      A                      A
 Frequencies --   1310.7123              1359.8152              1417.5458
 Red. masses --     12.7631                12.5608                20.7642
 Frc consts  --     12.9188                13.6844                24.5833
 IR Inten    --      9.2983                68.5685               225.8789

 - Thermochemistry -
 -------------------
 Temperature   298.150 Kelvin.  Pressure   1.00000 Atm.
 Atom     1 has atomic number  6 and mass  12.00000

 Molecular mass:   301.94593 amu.
 Principal axes and moments of inertia in atomic units:
                           1         2         3
     Eigenvalues --  2127.303656033.905796197.30966
           X            0.99999   0.00250   0.00487
           Y           -0.00254   0.99996   0.00823
           Z           -0.00485  -0.00824   0.99995
 This molecule is an asymmetric top.
 Rotational symmetry number  1.
 Warning -- assumption of classical behavior for rotation
           may cause significant error
 Rotational temperatures (Kelvin)      0.04072     0.01435     0.01398
 Rotational constants (GHZ):           0.84837     0.29910     0.29121
 Zero-point vibrational energy     167726.6 (Joules/Mol)
                                   40.08762 (Kcal/Mol)
 Warning -- explicit consideration of  27 degrees of freedom as
           vibrations may cause significant error
 Vibrational temperatures:     50.98    62.66    70.08    98.45   154.55
          (Kelvin)            217.71   246.50   271.10   300.81   320.01
                              340.80   391.17   418.67   424.81   438.80
                              480.86   496.72   526.95   547.70   627.18
                              634.07   652.53   753.79   771.81   810.12
                              833.61   887.55   941.66   993.39  1064.86
                             1108.13  1235.61  1476.13  1632.00  1681.21
                             1713.25  1736.44  1748.72  1796.05  1824.27
                             1830.36  1851.86  1885.82  1956.47  2039.53

 Zero-point correction=                           0.063884 (Hartree/Particle)
 Thermal correction to Energy=                    0.079753
 Thermal correction to Enthalpy=                  0.080697
 Thermal correction to Gibbs Free Energy=         0.019312
 Sum of electronic and zero-point Energies=          -1699.292734
 Sum of electronic and thermal Energies=             -1699.276865
 Sum of electronic and thermal Enthalpies=           -1699.275921
 Sum of electronic and thermal Free Energies=        -1699.337306

                     E (Thermal)             CV                S
                      KCal/Mol        Cal/Mol-Kelvin    Cal/Mol-Kelvin
 Total                   50.046             55.787            129.195
 Electronic               0.000              0.000              0.000
 Translational            0.889              2.981             43.012
 Rotational               0.889              2.981             32.742
 Vibrational             48.268             49.825             53.441
 Vibration     1          0.594              1.982              5.499
 Vibration     2          0.595              1.980              5.091
 Vibration     3          0.595              1.978              4.869
 Vibration     4          0.598              1.969              4.198
 Vibration     5          0.606              1.943              3.315
 Vibration     6          0.619              1.901              2.656
 Vibration     7          0.626              1.878              2.421
 Vibration     8          0.633              1.856              2.243
 Vibration     9          0.642              1.827              2.052
 Vibration    10          0.648              1.807              1.939
 Vibration    11          0.656              1.784              1.826
 Vibration    12          0.675              1.725              1.584
 Vibration    13          0.687              1.691              1.468
 Vibration    14          0.689              1.683              1.444
 Vibration    15          0.696              1.664              1.389
 Vibration    16          0.716              1.607              1.240
 Vibration    17          0.724              1.585              1.188
 Vibration    18          0.739              1.542              1.095
 Vibration    19          0.750              1.511              1.037
 Vibration    20          0.796              1.392              0.840
 Vibration    21          0.801              1.381              0.824
 Vibration    22          0.812              1.353              0.785
 Vibration    23          0.879              1.197              0.601
 Vibration    24          0.891              1.169              0.573
 Vibration    25          0.919              1.111              0.518
 Vibration    26          0.936              1.076              0.486
 Vibration    27          0.977              0.996              0.422

 Optimization completed.
    -- Stationary point found.
 Normal termination of Gaussian 16 at Mon Aug 24 19:08:32 2020.
 Gaussian 16:  ES64L-G16RevA.03 25-Dec-2016

 ----------------------------------------------------------------------
 # TD(NStates=10, Root=1) B3LYP/6-31G* scf=qc volume pop=NPA density=cu
 rrent Geom=AllCheck Guess=Read
 ----------------------------------------------------------------------

 Structure from the checkpoint file:  "sulfonylfluoride_4_conf243.chk"
 -------------------
 Title Card Required
 -------------------
 Charge =  0 Multiplicity = 1

                         Standard orientation:
 ---------------------------------------------------------------------
 Center     Atomic      Atomic             Coordinates (Angstroms)
 Number     Number       Type             X           Y           Z
 ---------------------------------------------------------------------
      1          6           0        1.639027    0.625338    0.120931
      2          6           0        0.182782    0.558856   -0.456155
      3          6           0       -0.902848    0.154391    0.578771
      4          9           0       -0.523718   -0.912497    1.293955
      5          9           0       -1.161113    1.186151    1.390021
      6         16           0       -2.518264   -0.313854   -0.286128
      7          8           0       -2.921915    0.764848   -1.159539
      8          8           0       -2.475791   -1.704262   -0.676555
      9          9           0       -3.417747   -0.218823    1.049460
     10          9           0       -0.139973    1.779253   -0.920141
     11          9           0        0.144114   -0.328273   -1.482689
     12          9           0        1.567040    0.931842    1.439295
     13          9           0        2.292891    1.613790   -0.521622
     14          6           0        2.488790   -0.663997   -0.038374
     15          9           0        2.789974   -0.856350   -1.326129
     16          9           0        3.621422   -0.518185    0.657555
     17          9           0        1.830152   -1.733636    0.424266
 ---------------------------------------------------------------------

 SCF Done:  E(RB3LYP) =  -1699.35661815     a.u. after    1 cycles

 Excitation energies and oscillator strengths:

 Excited State   1:      Singlet-A      7.2697 eV  170.55 nm  f=0.0054  <S**2>=0.000
      71 -> 74         0.10009
      72 -> 74         0.61728
      72 -> 77         0.13825
      73 -> 74        -0.28288
 This state for optimization and/or second-order correction.
 Total Energy, E(TD-HF/TD-DFT) =  -1699.08946108
 Copying the excited state density for this state as the 1-particle RhoCI density.

 Excited State   2:      Singlet-A      7.4129 eV  167.25 nm  f=0.1051  <S**2>=0.000
      72 -> 74         0.27830
      73 -> 74         0.61727
      73 -> 75        -0.14310

 Excited State   3:      Singlet-A      7.7698 eV  159.57 nm  f=0.0012  <S**2>=0.000
      71 -> 74         0.64968
      72 -> 75        -0.21591

 Excited State   4:      Singlet-A      8.1943 eV  151.30 nm  f=0.0034  <S**2>=0.000
      71 -> 74         0.19793
      71 -> 75         0.24705
      72 -> 75         0.56993
      72 -> 77        -0.12310
      73 -> 75        -0.10291
      73 -> 76        -0.14832

 Excited State   5:      Singlet-A      8.3779 eV  147.99 nm  f=0.0978  <S**2>=0.000
      69 -> 74        -0.13093
      70 -> 74         0.44776
      72 -> 75         0.10472
      73 -> 74         0.14046
      73 -> 75         0.44890
      73 -> 76        -0.11119

 Excited State   6:      Singlet-A      8.5280 eV  145.38 nm  f=0.0042  <S**2>=0.000
      70 -> 74         0.41231
      71 -> 75         0.17174
      73 -> 75        -0.31108
      73 -> 76         0.38016
      73 -> 77        -0.15707

 Excited State   7:      Singlet-A      8.6736 eV  142.95 nm  f=0.0038  <S**2>=0.000
      71 -> 75         0.53602
      71 -> 76         0.15153
      71 -> 77         0.15381
      72 -> 75        -0.14336
      72 -> 77         0.29687
      72 -> 79         0.10137
      73 -> 75         0.10585

 Excited State   8:      Singlet-A      8.7379 eV  141.89 nm  f=0.0556  <S**2>=0.000
      69 -> 74        -0.15012
      70 -> 74        -0.18597
      72 -> 77        -0.15968
      73 -> 75         0.27647
      73 -> 76         0.46216
      73 -> 77         0.25849

 Excited State   9:      Singlet-A      8.8511 eV  140.08 nm  f=0.0120  <S**2>=0.000
      69 -> 74        -0.16004
      70 -> 74        -0.16665
      71 -> 75        -0.13334
      71 -> 77        -0.24345
      71 -> 79        -0.10036
      72 -> 75         0.13318
      72 -> 76         0.15186
      72 -> 77         0.34390
      73 -> 76         0.20554
      73 -> 77        -0.33884

 Excited State  10:      Singlet-A      8.9006 eV  139.30 nm  f=0.0055  <S**2>=0.000
      69 -> 74         0.25045
      70 -> 74         0.18985
      71 -> 77        -0.15792
      72 -> 76         0.12572
      72 -> 77         0.35503
      73 -> 77         0.44023

 The electronic state is 1-A.
 Alpha  occ. eigenvalues --  -89.18549 -24.78808 -24.78590 -24.77936 -24.77340
 Alpha  occ. eigenvalues --  -24.77211 -24.77123 -24.77050 -24.76933 -24.76789
 Alpha  occ. eigenvalues --  -24.76769 -19.21291 -19.21264 -10.48141 -10.44905
 Alpha  occ. eigenvalues --  -10.43587 -10.42825  -8.20990  -6.17647  -6.17303
 Alpha  occ. eigenvalues --   -6.17230  -1.35539  -1.34344  -1.32524  -1.31148
 Alpha  occ. eigenvalues --   -1.28377  -1.27952  -1.26660  -1.26381  -1.26160
 Alpha  occ. eigenvalues --   -1.25494  -1.15097  -1.07287  -0.85712  -0.81422
 Alpha  occ. eigenvalues --   -0.76064  -0.71039  -0.68608  -0.66097  -0.64633
 Alpha  occ. eigenvalues --   -0.64205  -0.63225  -0.63015  -0.62500  -0.60285
 Alpha  occ. eigenvalues --   -0.59828  -0.59201  -0.56270  -0.53231  -0.52489
 Alpha  occ. eigenvalues --   -0.51641  -0.50929  -0.50315  -0.50081  -0.49697
 Alpha  occ. eigenvalues --   -0.49364  -0.48764  -0.47729  -0.47167  -0.46984
 Alpha  occ. eigenvalues --   -0.46430  -0.46268  -0.45747  -0.45355  -0.45020
 Alpha  occ. eigenvalues --   -0.44889  -0.43952  -0.42622  -0.41519  -0.39120
 Alpha  occ. eigenvalues --   -0.37816  -0.36002  -0.35481
 Alpha virt. eigenvalues --   -0.04356  -0.00509   0.00670   0.01551   0.05325
 Alpha virt. eigenvalues --    0.05923   0.11301   0.12771   0.15364   0.17045
 Alpha virt. eigenvalues --    0.17201   0.18869   0.19818   0.24128   0.25801

 Mulliken charges:
               1
     1  C    0.464879
     2  C    0.483096
     3  C    0.345994
     4  F   -0.237697
     5  F   -0.237013
     6  S    1.062796
     7  O   -0.276969
     8  O   -0.309176
     9  F   -0.272516
    10  F   -0.263363
    11  F   -0.269428
    12  F   -0.270205
    13  F   -0.267076
    14  C    0.784849
    15  F   -0.243725
    16  F   -0.246877
    17  F   -0.247569
 Sum of Mulliken charges =  -0.00000

 Dipole moment (field-independent basis, Debye):
    X=             -0.6729    Y=             -0.1233    Z=             -0.4040  Tot=              0.7945
 Quadrupole moment (field-independent basis, Debye-Ang):
   XX=            -96.2625   YY=            -96.1980   ZZ=            -95.9897
   XY=             -0.5073   XZ=              1.8470   YZ=             -0.0033

 Summary of Natural Population Analysis:

                                       Natural Population
                Natural  -----------------------------------------------
    Atom  No    Charge         Core      Valence    Rydberg      Total
 -----------------------------------------------------------------------
      C    1    0.63197      1.99887     3.31281    0.05635     5.36803
      C    2    0.63473      1.99884     3.30870    0.05773     5.36527
      C    3    0.48003      1.99909     3.45053    0.07035     5.51997
      F    4   -0.32904      1.99993     7.31973    0.00939     9.32904
      F    5   -0.33045      1.99993     7.32072    0.00980     9.33045
      S    6    2.04083      9.99909     3.75089    0.20919    13.95917
      O    7   -0.59515      1.99989     6.57148    0.02378     8.59515
      O    8   -0.65584      1.99988     6.63209    0.02387     8.65584
      F    9   -0.50849      1.99997     7.49824    0.01028     9.50849
      F   10   -0.33982      1.99993     7.33140    0.00849     9.33982
      F   11   -0.36380      1.99994     7.35527    0.00859     9.36380
      F   12   -0.35191      1.99994     7.34373    0.00825     9.35191
      F   13   -0.34272      1.99993     7.33428    0.00851     9.34272
      C   14    1.07171      1.99925     2.85469    0.07434     4.92829
      F   15   -0.34586      1.99993     7.33862    0.00731     9.34586
      F   16   -0.34533      1.99993     7.33816    0.00724     9.34533
      F   17   -0.35085      1.99993     7.34363    0.00730     9.35085
 =======================================================================
   * Total *   -0.00000     41.99425   103.40498    0.60077   146.00000

 Normal termination of Gaussian 16 at Mon Aug 24 19:17:24 2020.
