 Gaussian 16, Revision A.03,

 ---------------------------------
 # opt=CalcAll B3LYP/6-31G* scf=qc
 ---------------------------------

 -------------------
 Title Card Required
 -------------------
 Symbolic Z-matrix:
 Charge =  0 Multiplicity = 1

 SCF Done:  E(RB3LYP) =  -896.087738506     a.u. after    8 cycles
 SCF Done:  E(RB3LYP) =  -896.094906627     a.u. after   17 cycles
 SCF Done:  E(RB3LYP) =  -896.095596069     a.u. after   13 cycles
 SCF Done:  E(RB3LYP) =  -896.095674629     a.u. after   11 cycles
 SCF Done:  E(RB3LYP) =  -896.095676101     a.u. after    3 cycles
 Optimization completed.
    -- Stationary point found.
 Normal termination of Gaussian 16 at Mon Aug 24 17:23:46 2020.

 ----------------------------------------------------------------------
 # freq B3LYP/6-31G* scf=qc volume NMR pop=NPA density=current Geom=All
 Check Guess=Read
 ----------------------------------------------------------------------

 Structure from the checkpoint file:  "sulfonylfluoride_3_conf112.chk"
 -------------------
 Title Card Required
 -------------------
 Charge =  0 Multiplicity = 1

 SCF Done:  E(RB3LYP) =  -896.095676101     a.u. after    1 cycles

      1  C    Isotropic =    59.4419   Anisotropy =   186.4638

      2  C    Isotropic =    68.7978   Anisotropy =   169.5543

      3  C    Isotropic =    46.3381   Anisotropy =   158.2527

      4  N    Isotropic =   -54.4554   Anisotropy =   516.7323

      5  C    Isotropic =    36.9767   Anisotropy =   102.9451

      6  C    Isotropic =    72.1888   Anisotropy =   166.2779

      7  S    Isotropic =   218.1743   Anisotropy =   333.1262

      8  O    Isotropic =    98.0635   Anisotropy =    69.0261

      9  O    Isotropic =   111.1212   Anisotropy =    72.1709

     10  F    Isotropic =   110.9442   Anisotropy =   355.5763

     11  H    Isotropic =    24.5089   Anisotropy =     4.9481

     12  H    Isotropic =    24.9260   Anisotropy =     4.8203

     13  H    Isotropic =    23.4905   Anisotropy =     5.2436

     14  H    Isotropic =    24.4331   Anisotropy =     8.3010

  Exact polarizability: 103.122  -1.627  81.433   2.577   1.441  39.811
 Approx polarizability: 152.794  -1.380 154.165   4.863   5.070  66.589

                      1                      2                      3
                      A                      A                      A
 Frequencies --     40.0203               114.3633               176.0644
 Red. masses --      6.7434                 7.1527                 8.2380
 Frc consts  --      0.0064                 0.0551                 0.1505
 IR Inten    --      0.8700                 0.0734                 0.3550

                      4                      5                      6
                      A                      A                      A
 Frequencies --    264.9024               298.2071               333.3416
 Red. masses --      7.2488                 9.3255                10.8051
 Frc consts  --      0.2997                 0.4886                 0.7074
 IR Inten    --      1.2672                 4.0715                 0.4094

                      7                      8                      9
                      A                      A                      A
 Frequencies --    411.0350               435.8907               468.2036
 Red. masses --      3.6170                 8.1188                13.5158
 Frc consts  --      0.3600                 0.9089                 1.7457
 IR Inten    --      0.5388                 9.9094                10.2107

                     10                     11                     12
                      A                      A                      A
 Frequencies --    523.5093               581.6615               625.1979
 Red. masses --      4.3520                15.9998                 7.4237
 Frc consts  --      0.7027                 3.1894                 1.7097
 IR Inten    --     10.3672               131.7065                 4.6435

                     13                     14                     15
                      A                      A                      A
 Frequencies --    735.4850               747.3140               786.7823
 Red. masses --      8.1420                 3.9172                 1.6030
 Frc consts  --      2.5949                 1.2890                 0.5846
 IR Inten    --     25.0984                 3.5907               116.5056

                     16                     17                     18
                      A                      A                      A
 Frequencies --    805.7399               925.3071               987.0676
 Red. masses --      5.5241                 1.2615                 1.4022
 Frc consts  --      2.1130                 0.6364                 0.8049
 IR Inten    --    117.4884                 0.2766                 0.1407

                     19                     20                     21
                      A                      A                      A
 Frequencies --   1009.1134              1020.8214              1067.9091
 Red. masses --      7.3342                 1.3112                 2.7613
 Frc consts  --      4.4003                 0.8050                 1.8554
 IR Inten    --      9.0684                 0.0388                 3.3879

                     22                     23                     24
                      A                      A                      A
 Frequencies --   1108.2478              1138.9794              1185.7965
 Red. masses --      2.1206                 2.3367                 1.1758
 Frc consts  --      1.5345                 1.7860                 0.9741
 IR Inten    --     18.9439                30.2846                 6.3676

                     25                     26                     27
                      A                      A                      A
 Frequencies --   1195.3216              1320.4826              1339.8297
 Red. masses --      7.0684                 2.3706                 2.4335
 Frc consts  --      5.9503                 2.4354                 2.5739
 IR Inten    --    126.9257                 3.7012                 2.3338

                     28                     29                     30
                      A                      A                      A
 Frequencies --   1390.6665              1471.5823              1502.0089
 Red. masses --     18.3052                 2.1318                 2.0984
 Frc consts  --     20.8579                 2.7199                 2.7892
 IR Inten    --    179.2650                32.4307                10.6142

                     31                     32                     33
                      A                      A                      A
 Frequencies --   1624.2882              1638.1942              3196.1141
 Red. masses --      5.1281                 6.0479                 1.0893
 Frc consts  --      7.9713                 9.5627                 6.5561
 IR Inten    --     11.5841                14.9702                 8.4370

                     34                     35                     36
                      A                      A                      A
 Frequencies --   3209.7967              3225.1747              3249.3528
 Red. masses --      1.0902                 1.0966                 1.0941
 Frc consts  --      6.6177                 6.7206                 6.8061
 IR Inten    --      8.1054                 9.6090                 1.8366

 - Thermochemistry -
 -------------------
 Temperature   298.150 Kelvin.  Pressure   1.00000 Atm.
 Atom     1 has atomic number  6 and mass  12.00000

 Molecular mass:   160.99468 amu.
 Principal axes and moments of inertia in atomic units:
                           1         2         3
     Eigenvalues --   687.138212143.729412447.07368
           X            0.99999  -0.00069   0.00508
           Y            0.00064   0.99997   0.00813
           Z           -0.00508  -0.00812   0.99995
 This molecule is an asymmetric top.
 Rotational symmetry number  1.
 Warning -- assumption of classical behavior for rotation
           may cause significant error
 Rotational temperatures (Kelvin)      0.12605     0.04040     0.03539
 Rotational constants (GHZ):           2.62646     0.84187     0.73751
 Zero-point vibrational energy     240172.9 (Joules/Mol)
                                   57.40270 (Kcal/Mol)
 Warning -- explicit consideration of  11 degrees of freedom as
           vibrations may cause significant error
 Vibrational temperatures:     57.58   164.54   253.32   381.14   429.05
          (Kelvin)            479.60   591.39   627.15   673.64   753.21
                              836.88   899.52  1058.20  1075.22  1132.00
                             1159.28  1331.31  1420.17  1451.89  1468.73
                             1536.48  1594.52  1638.74  1706.10  1719.80
                             1899.88  1927.72  2000.86  2117.28  2161.06
                             2336.99  2357.00  4598.50  4618.18  4640.31
                             4675.09

 Zero-point correction=                           0.091477 (Hartree/Particle)
 Thermal correction to Energy=                    0.099751
 Thermal correction to Enthalpy=                  0.100695
 Thermal correction to Gibbs Free Energy=         0.057153
 Sum of electronic and zero-point Energies=           -896.004199
 Sum of electronic and thermal Energies=              -895.995925
 Sum of electronic and thermal Enthalpies=            -895.994981
 Sum of electronic and thermal Free Energies=         -896.038523

                     E (Thermal)             CV                S
                      KCal/Mol        Cal/Mol-Kelvin    Cal/Mol-Kelvin
 Total                   62.595             30.461             91.643
 Electronic               0.000              0.000              0.000
 Translational            0.889              2.981             41.137
 Rotational               0.889              2.981             29.668
 Vibrational             60.817             24.500             20.838
 Vibration     1          0.594              1.981              5.258
 Vibration     2          0.607              1.938              3.193
 Vibration     3          0.628              1.872              2.370
 Vibration     4          0.671              1.737              1.629
 Vibration     5          0.691              1.677              1.427
 Vibration     6          0.715              1.609              1.244
 Vibration     7          0.775              1.446              0.923
 Vibration     8          0.796              1.392              0.840
 Vibration     9          0.825              1.321              0.743
 Vibration    10          0.878              1.198              0.602
 Vibration    11          0.938              1.071              0.482

 Optimization completed.
    -- Stationary point found.
 Normal termination of Gaussian 16 at Mon Aug 24 17:27:05 2020.
 Gaussian 16:  ES64L-G16RevA.03 25-Dec-2016

 ----------------------------------------------------------------------
 # TD(NStates=10, Root=1) B3LYP/6-31G* scf=qc volume pop=NPA density=cu
 rrent Geom=AllCheck Guess=Read
 ----------------------------------------------------------------------

 Structure from the checkpoint file:  "sulfonylfluoride_3_conf113.chk"
 -------------------
 Title Card Required
 -------------------
 Charge =  0 Multiplicity = 1

                         Standard orientation:
 ---------------------------------------------------------------------
 Center     Atomic      Atomic             Coordinates (Angstroms)
 Number     Number       Type             X           Y           Z
 ---------------------------------------------------------------------
      1          6           0       -2.415242   -1.163841   -0.002517
      2          6           0       -3.026285    0.088469   -0.015400
      3          6           0       -2.221862    1.232373    0.003104
      4          7           0       -0.886924    1.182819    0.037666
      5          6           0       -0.336648   -0.022933    0.047129
      6          6           0       -1.021002   -1.235346    0.027237
      7         16           0        1.468178   -0.049960    0.124039
      8          8           0        1.964398    0.896946    1.100075
      9          8           0        1.918821   -1.430353    0.077538
     10          9           0        1.782521    0.581446   -1.333030
     11          1           0       -3.009538   -2.072648   -0.016066
     12          1           0       -4.107194    0.184787   -0.039089
     13          1           0       -2.663029    2.226156   -0.008408
     14          1           0       -0.484830   -2.176748    0.034320
 ---------------------------------------------------------------------

 SCF Done:  E(RB3LYP) =  -896.095676101     a.u. after    1 cycles

 Excitation energies and oscillator strengths:

 Excited State   1:      Singlet-A      4.7730 eV  259.76 nm  f=0.0032  <S**2>=0.000
      41 -> 42         0.70290
 This state for optimization and/or second-order correction.
 Total Energy, E(TD-HF/TD-DFT) =  -895.920271261
 Copying the excited state density for this state as the 1-particle RhoCI density.

 Excited State   2:      Singlet-A      5.2422 eV  236.51 nm  f=0.0010  <S**2>=0.000
      41 -> 43         0.70229

 Excited State   3:      Singlet-A      5.4905 eV  225.82 nm  f=0.0553  <S**2>=0.000
      38 -> 42        -0.11005
      38 -> 43         0.16372
      39 -> 42        -0.17662
      39 -> 43         0.23175
      40 -> 42         0.55847
      40 -> 43         0.23839

 Excited State   4:      Singlet-A      5.9343 eV  208.93 nm  f=0.0177  <S**2>=0.000
      37 -> 42         0.14231
      38 -> 42        -0.34623
      39 -> 42         0.50643
      40 -> 42         0.19765
      40 -> 43        -0.22509

 Excited State   5:      Singlet-A      6.1732 eV  200.84 nm  f=0.0581  <S**2>=0.000
      38 -> 42         0.52998
      40 -> 42         0.24942
      40 -> 43        -0.35399

 Excited State   6:      Singlet-A      6.4559 eV  192.05 nm  f=0.0031  <S**2>=0.000
      36 -> 42         0.33326
      37 -> 42         0.54831
      38 -> 43        -0.11034
      40 -> 43         0.22999

 Excited State   7:      Singlet-A      6.4793 eV  191.36 nm  f=0.0004  <S**2>=0.000
      36 -> 42         0.59854
      37 -> 42        -0.34750

 Excited State   8:      Singlet-A      6.5804 eV  188.41 nm  f=0.0022  <S**2>=0.000
      38 -> 43         0.55412
      39 -> 42        -0.14883
      39 -> 43        -0.37890

 Excited State   9:      Singlet-A      6.9544 eV  178.28 nm  f=0.0472  <S**2>=0.000
      36 -> 43         0.33215
      37 -> 43         0.50036
      38 -> 43         0.22016
      39 -> 42         0.17781
      39 -> 43         0.12120
      40 -> 43         0.15301

 Excited State  10:      Singlet-A      7.0982 eV  174.67 nm  f=0.0037  <S**2>=0.000
      36 -> 43         0.60215
      37 -> 43        -0.34255

 The electronic state is 1-A.
 Alpha  occ. eigenvalues --  -89.15274 -24.73414 -19.17585 -19.17447 -14.37616
 Alpha  occ. eigenvalues --  -10.28667 -10.26252 -10.24748 -10.24414 -10.23930
 Alpha  occ. eigenvalues --   -8.17619  -6.14297  -6.13957  -6.13842  -1.24735
 Alpha  occ. eigenvalues --   -1.11496  -1.03480  -0.99026  -0.84440  -0.81506
 Alpha  occ. eigenvalues --   -0.71437  -0.67319  -0.64082  -0.58189  -0.54217
 Alpha  occ. eigenvalues --   -0.52317  -0.51745  -0.49344  -0.48700  -0.45208
 Alpha  occ. eigenvalues --   -0.44458  -0.43554  -0.43193  -0.41312  -0.38225
 Alpha  occ. eigenvalues --   -0.35071  -0.34324  -0.32588  -0.32386  -0.30268
 Alpha  occ. eigenvalues --   -0.29660
 Alpha virt. eigenvalues --   -0.07329  -0.05508   0.01942   0.05334   0.07665
 Alpha virt. eigenvalues --    0.09894   0.10175   0.12154   0.13826   0.14957
 Alpha virt. eigenvalues --    0.15860   0.22506   0.25781   0.27120   0.29761

 Mulliken charges:
               1
     1  C   -0.130355
     2  C   -0.183991
     3  C    0.077448
     4  N   -0.330148
     5  C   -0.032071
     6  C   -0.103623
     7  S    1.198267
     8  O   -0.455177
     9  O   -0.474635
    10  F   -0.297350
    11  H    0.161369
    12  H    0.162449
    13  H    0.198497
    14  H    0.209321
 Sum of Mulliken charges =  -0.00000

 Dipole moment (field-independent basis, Debye):
    X=             -5.5306    Y=              0.3546    Z=             -0.6554  Tot=              5.5806
 Quadrupole moment (field-independent basis, Debye-Ang):
   XX=            -59.3863   YY=            -58.5898   ZZ=            -66.5054
   XY=             -0.9276   XZ=             -1.6474   YZ=             -1.1224

 Summary of Natural Population Analysis:

                                       Natural Population
                Natural  -----------------------------------------------
    Atom  No    Charge         Core      Valence    Rydberg      Total
 -----------------------------------------------------------------------
      C    1   -0.24795      1.99910     4.23183    0.01702     6.24795
      C    2   -0.35565      1.99908     4.34002    0.01656     6.35565
      C    3    0.01913      1.99913     3.96193    0.01981     5.98087
      N    4   -0.14224      1.99884     5.12580    0.01761     7.14224
      C    5   -0.24604      1.99877     4.21025    0.03702     6.24604
      C    6   -0.21068      1.99895     4.19616    0.01557     6.21068
      S    7    2.38596      9.99882     3.41126    0.20396    13.61404
      O    8   -0.88218      1.99988     6.85846    0.02384     8.88218
      O    9   -0.89254      1.99988     6.86983    0.02283     8.89254
      F   10   -0.50324      1.99997     7.49351    0.00976     9.50324
      H   11    0.25795      0.00000     0.74143    0.00062     0.74205
      H   12    0.26345      0.00000     0.73606    0.00049     0.73655
      H   13    0.26527      0.00000     0.73418    0.00055     0.73473
      H   14    0.28876      0.00000     0.71026    0.00098     0.71124
 =======================================================================
   * Total *   -0.00000     27.99241    53.62097    0.38661    82.00000

 Normal termination of Gaussian 16 at Mon Aug 24 17:31:10 2020.
