 Gaussian 16, Revision A.03,

 ---------------------------------
 # opt=CalcAll B3LYP/6-31G* scf=qc
 ---------------------------------

 -------------------
 Title Card Required
 -------------------
 Symbolic Z-matrix:
 Charge =  0 Multiplicity = 1

 SCF Done:  E(RB3LYP) =  -1699.11417597     a.u. after    8 cycles
 SCF Done:  E(RB3LYP) =  -1699.19508307     a.u. after   13 cycles
 SCF Done:  E(RB3LYP) =  -1699.25905929     a.u. after   15 cycles
 SCF Done:  E(RB3LYP) =  -1699.31712945     a.u. after   13 cycles
 SCF Done:  E(RB3LYP) =  -1699.33420854     a.u. after   13 cycles
 SCF Done:  E(RB3LYP) =  -1699.33814598     a.u. after    8 cycles
 SCF Done:  E(RB3LYP) =  -1699.34318732     a.u. after   13 cycles
 SCF Done:  E(RB3LYP) =  -1699.34797001     a.u. after   11 cycles
 SCF Done:  E(RB3LYP) =  -1699.35054488     a.u. after   14 cycles
 SCF Done:  E(RB3LYP) =  -1699.35082518     a.u. after   13 cycles
 SCF Done:  E(RB3LYP) =  -1699.35114556     a.u. after    4 cycles
 SCF Done:  E(RB3LYP) =  -1699.35223449     a.u. after    9 cycles
 SCF Done:  E(RB3LYP) =  -1699.35226052     a.u. after    5 cycles
 SCF Done:  E(RB3LYP) =  -1699.35226637     a.u. after    4 cycles
 SCF Done:  E(RB3LYP) =  -1699.35226633     a.u. after    3 cycles
 SCF Done:  E(RB3LYP) =  -1699.35226644     a.u. after    2 cycles
 Optimization completed.
    -- Stationary point found.
 Normal termination of Gaussian 16 at Mon Aug 24 19:05:25 2020.

 ----------------------------------------------------------------------
 # freq B3LYP/6-31G* scf=qc volume NMR pop=NPA density=current Geom=All
 Check Guess=Read
 ----------------------------------------------------------------------

 Structure from the checkpoint file:  "sulfonylfluoride_4_conf112.chk"
 -------------------
 Title Card Required
 -------------------
 Charge =  0 Multiplicity = 1

 SCF Done:  E(RB3LYP) =  -1699.35226644     a.u. after    1 cycles

      1  C    Isotropic =    76.8064   Anisotropy =    14.3136

      2  C    Isotropic =    75.0623   Anisotropy =    13.7422

      3  C    Isotropic =    67.6552   Anisotropy =    13.9205

      4  F    Isotropic =   298.4795   Anisotropy =    67.7869

      5  F    Isotropic =   301.6956   Anisotropy =    81.1328

      6  S    Isotropic =   218.3849   Anisotropy =   365.3667

      7  O    Isotropic =    91.2904   Anisotropy =    57.2871

      8  O    Isotropic =    91.9818   Anisotropy =    55.2993

      9  F    Isotropic =   122.5975   Anisotropy =   372.5572

     10  F    Isotropic =   311.7940   Anisotropy =    77.5531

     11  F    Isotropic =   312.4595   Anisotropy =    84.0187

     12  F    Isotropic =   315.0412   Anisotropy =    85.5648

     13  F    Isotropic =   315.9419   Anisotropy =    69.4508

     14  C    Isotropic =    68.5821   Anisotropy =    12.6983

     15  F    Isotropic =   276.8424   Anisotropy =   107.4479

     16  F    Isotropic =   276.5001   Anisotropy =   104.6752

     17  F    Isotropic =   280.4307   Anisotropy =   113.3769

  Exact polarizability:  70.671   2.058  67.271   1.227  -0.529  63.331
 Approx polarizability:  95.793   0.910 100.982   3.399  -1.853 113.882

                      1                      2                      3
                      A                      A                      A
 Frequencies --     41.9310                49.5568                58.2653
 Red. masses --     17.8045                18.5187                18.3228
 Frc consts  --      0.0184                 0.0268                 0.0366
 IR Inten    --      0.1448                 0.0160                 0.1719

                      4                      5                      6
                      A                      A                      A
 Frequencies --     81.4090               111.2786               146.2298
 Red. masses --     18.4897                18.1740                18.2182
 Frc consts  --      0.0722                 0.1326                 0.2295
 IR Inten    --      0.0454                 0.8101                 1.6382

                      7                      8                      9
                      A                      A                      A
 Frequencies --    157.6766               185.5301               215.0852
 Red. masses --     18.1490                16.9811                18.9685
 Frc consts  --      0.2659                 0.3444                 0.5170
 IR Inten    --      3.4987                 2.1242                 0.3042

                     10                     11                     12
                      A                      A                      A
 Frequencies --    228.4902               246.4817               282.4791
 Red. masses --     18.6582                18.2758                18.3468
 Frc consts  --      0.5739                 0.6542                 0.8625
 IR Inten    --      2.1216                 3.5676                 1.5200

                     13                     14                     15
                      A                      A                      A
 Frequencies --    289.2513               296.3975               316.8418
 Red. masses --     18.2187                18.5177                17.9728
 Frc consts  --      0.8981                 0.9585                 1.0630
 IR Inten    --      2.4278                 1.1475                 0.6600

                     16                     17                     18
                      A                      A                      A
 Frequencies --    326.6408               348.3763               358.7498
 Red. masses --     18.3720                18.5913                18.3574
 Frc consts  --      1.1549                 1.3294                 1.3920
 IR Inten    --      0.6221                 0.1054                 0.6454

                     19                     20                     21
                      A                      A                      A
 Frequencies --    381.1169               429.2323               445.9006
 Red. masses --     18.0308                18.1140                17.9157
 Frc consts  --      1.5431                 1.9663                 2.0987
 IR Inten    --      4.8640                 9.1652                 1.7001

                     22                     23                     24
                      A                      A                      A
 Frequencies --    458.1416               486.6817               530.0110
 Red. masses --     18.1861                17.9506                17.9486
 Frc consts  --      2.2490                 2.5051                 2.9706
 IR Inten    --     18.0614                 6.9724                 9.0460

                     25                     26                     27
                      A                      A                      A
 Frequencies --    577.7613               579.8916               634.3436
 Red. masses --     18.9703                18.7890                17.8324
 Frc consts  --      3.7310                 3.7226                 4.2278
 IR Inten    --     49.9030                33.9333                33.6064

                     28                     29                     30
                      A                      A                      A
 Frequencies --    636.2070               674.8015               744.9078
 Red. masses --     17.4701                17.5376                17.0516
 Frc consts  --      4.1662                 4.7051                 5.5747
 IR Inten    --      5.0145                 7.9676                55.0765

                     31                     32                     33
                      A                      A                      A
 Frequencies --    784.7897               908.4385              1019.3941
 Red. masses --     21.0447                13.9790                13.5996
 Frc consts  --      7.6366                 6.7970                 8.3265
 IR Inten    --    213.8805                66.6292               172.2740

                     34                     35                     36
                      A                      A                      A
 Frequencies --   1110.7241              1168.2807              1189.1864
 Red. masses --     13.6144                13.8076                15.4577
 Frc consts  --      9.8960                11.1036                12.8793
 IR Inten    --     40.0532               153.1068                27.1095

                     37                     38                     39
                      A                      A                      A
 Frequencies --   1200.9473              1217.9705              1243.9135
 Red. masses --     13.8882                13.5759                13.1987
 Frc consts  --     11.8017                11.8656                12.0326
 IR Inten    --    104.7968                76.9979                86.2895

                     40                     41                     42
                      A                      A                      A
 Frequencies --   1258.5833              1266.5879              1276.3318
 Red. masses --     13.2999                13.0328                12.6817
 Frc consts  --     12.4126                12.3185                12.1718
 IR Inten    --    310.5228               255.5847                56.7979

                     43                     44                     45
                      A                      A                      A
 Frequencies --   1301.1594              1362.5342              1418.9087
 Red. masses --     12.6292                12.5579                20.7750
 Frc consts  --     12.5976                13.7361                24.6433
 IR Inten    --    100.5971                54.2629               222.0077

 - Thermochemistry -
 -------------------
 Temperature   298.150 Kelvin.  Pressure   1.00000 Atm.
 Atom     1 has atomic number  6 and mass  12.00000

 Molecular mass:   301.94593 amu.
 Principal axes and moments of inertia in atomic units:
                           1         2         3
     Eigenvalues --  2627.239104740.967075491.60445
           X            0.99995   0.01014   0.00136
           Y           -0.01014   0.99995   0.00031
           Z           -0.00136  -0.00033   1.00000
 This molecule is an asymmetric top.
 Rotational symmetry number  1.
 Warning -- assumption of classical behavior for rotation
           may cause significant error
 Rotational temperatures (Kelvin)      0.03297     0.01827     0.01577
 Rotational constants (GHZ):           0.68693     0.38067     0.32864
 Zero-point vibrational energy     167760.8 (Joules/Mol)
                                   40.09580 (Kcal/Mol)
 Warning -- explicit consideration of  26 degrees of freedom as
           vibrations may cause significant error
 Vibrational temperatures:     60.33    71.30    83.83   117.13   160.11
          (Kelvin)            210.39   226.86   266.94   309.46   328.75
                              354.63   406.42   416.17   426.45   455.86
                              469.96   501.24   516.16   548.34   617.57
                              641.55   659.16   700.23   762.57   831.27
                              834.33   912.68   915.36   970.89  1071.76
                             1129.14  1307.04  1466.68  1598.08  1680.90
                             1710.97  1727.90  1752.39  1789.71  1810.82
                             1822.34  1836.36  1872.08  1960.38  2041.49

 Zero-point correction=                           0.063897 (Hartree/Particle)
 Thermal correction to Energy=                    0.079691
 Thermal correction to Enthalpy=                  0.080635
 Thermal correction to Gibbs Free Energy=         0.019936
 Sum of electronic and zero-point Energies=          -1699.288370
 Sum of electronic and thermal Energies=             -1699.272576
 Sum of electronic and thermal Enthalpies=           -1699.271632
 Sum of electronic and thermal Free Energies=        -1699.332331

                     E (Thermal)             CV                S
                      KCal/Mol        Cal/Mol-Kelvin    Cal/Mol-Kelvin
 Total                   50.007             55.775            127.752
 Electronic               0.000              0.000              0.000
 Translational            0.889              2.981             43.012
 Rotational               0.889              2.981             32.592
 Vibrational             48.229             49.814             52.148
 Vibration     1          0.595              1.980              5.166
 Vibration     2          0.595              1.978              4.835
 Vibration     3          0.596              1.974              4.515
 Vibration     4          0.600              1.962              3.857
 Vibration     5          0.607              1.940              3.246
 Vibration     6          0.617              1.907              2.721
 Vibration     7          0.621              1.894              2.577
 Vibration     8          0.632              1.860              2.272
 Vibration     9          0.645              1.818              2.000
 Vibration    10          0.651              1.798              1.891
 Vibration    11          0.661              1.769              1.756
 Vibration    12          0.682              1.706              1.519
 Vibration    13          0.686              1.694              1.478
 Vibration    14          0.690              1.680              1.437
 Vibration    15          0.704              1.641              1.326
 Vibration    16          0.710              1.622              1.277
 Vibration    17          0.726              1.579              1.174
 Vibration    18          0.734              1.557              1.128
 Vibration    19          0.751              1.510              1.035
 Vibration    20          0.791              1.407              0.861
 Vibration    21          0.805              1.370              0.808
 Vibration    22          0.816              1.343              0.772
 Vibration    23          0.843              1.280              0.692
 Vibration    24          0.885              1.184              0.587
 Vibration    25          0.934              1.079              0.490
 Vibration    26          0.937              1.075              0.486

 Optimization completed.
    -- Stationary point found.
 Normal termination of Gaussian 16 at Mon Aug 24 19:12:03 2020.
 Gaussian 16:  ES64L-G16RevA.03 25-Dec-2016

 ----------------------------------------------------------------------
 # TD(NStates=10, Root=1) B3LYP/6-31G* scf=qc volume pop=NPA density=cu
 rrent Geom=AllCheck Guess=Read
 ----------------------------------------------------------------------

 Structure from the checkpoint file:  "sulfonylfluoride_4_conf113.chk"
 -------------------
 Title Card Required
 -------------------
 Charge =  0 Multiplicity = 1

                         Standard orientation:
 ---------------------------------------------------------------------
 Center     Atomic      Atomic             Coordinates (Angstroms)
 Number     Number       Type             X           Y           Z
 ---------------------------------------------------------------------
      1          6           0        1.425903    0.414170    0.483124
      2          6           0        0.292934    1.100811   -0.360753
      3          6           0       -1.187578    0.857734    0.070153
      4          9           0       -1.374492    1.297792    1.321263
      5          9           0       -1.958138    1.560397   -0.776776
      6         16           0       -1.830476   -0.910050   -0.012430
      7          8           0       -1.813587   -1.355842   -1.386695
      8          8           0       -1.320884   -1.677864    1.100193
      9          9           0       -3.347390   -0.498115    0.346594
     10          9           0        0.455580    2.437960   -0.256716
     11          9           0        0.413992    0.746609   -1.659860
     12          9           0        0.930525    0.060095    1.690772
     13          9           0        2.415244    1.312821    0.663721
     14          6           0        2.066546   -0.839424   -0.170064
     15          9           0        1.119521   -1.714069   -0.542698
     16          9           0        2.780831   -0.484157   -1.241897
     17          9           0        2.872832   -1.427031    0.717388
 ---------------------------------------------------------------------

 SCF Done:  E(RB3LYP) =  -1699.35226644     a.u. after    1 cycles

 Excitation energies and oscillator strengths:

 Excited State   1:      Singlet-A      7.3205 eV  169.37 nm  f=0.0012  <S**2>=0.000
      71 -> 74         0.14499
      72 -> 74         0.62540
      72 -> 77        -0.12274
      73 -> 74        -0.24248
 This state for optimization and/or second-order correction.
 Total Energy, E(TD-HF/TD-DFT) =  -1699.08324333
 Copying the excited state density for this state as the 1-particle RhoCI density.

 Excited State   2:      Singlet-A      7.5184 eV  164.91 nm  f=0.0448  <S**2>=0.000
      72 -> 74         0.24304
      73 -> 74         0.63116
      73 -> 75        -0.11979

 Excited State   3:      Singlet-A      7.8425 eV  158.09 nm  f=0.0008  <S**2>=0.000
      71 -> 74         0.62587
      72 -> 74        -0.10388
      72 -> 75        -0.27424

 Excited State   4:      Singlet-A      8.2769 eV  149.80 nm  f=0.0065  <S**2>=0.000
      71 -> 74         0.22634
      71 -> 75         0.23995
      72 -> 75         0.53902
      72 -> 77         0.15191
      73 -> 75        -0.14737
      73 -> 76         0.18047

 Excited State   5:      Singlet-A      8.3210 eV  149.00 nm  f=0.0031  <S**2>=0.000
      68 -> 74        -0.10110
      70 -> 74         0.66052
      73 -> 74         0.11004
      73 -> 75         0.11195
      73 -> 77         0.11903

 Excited State   6:      Singlet-A      8.6120 eV  143.97 nm  f=0.0479  <S**2>=0.000
      70 -> 74        -0.11152
      71 -> 75        -0.36715
      72 -> 75         0.17192
      73 -> 75         0.40727
      73 -> 76         0.34467

 Excited State   7:      Singlet-A      8.6833 eV  142.78 nm  f=0.0333  <S**2>=0.000
      71 -> 75         0.51401
      71 -> 77        -0.10501
      71 -> 78         0.10586
      72 -> 77        -0.17050
      73 -> 75         0.35747

 Excited State   8:      Singlet-A      8.7467 eV  141.75 nm  f=0.0279  <S**2>=0.000
      72 -> 75        -0.13964
      72 -> 76         0.12390
      72 -> 77        -0.19683
      73 -> 75        -0.25975
      73 -> 76         0.46905
      73 -> 77         0.28895

 Excited State   9:      Singlet-A      8.8681 eV  139.81 nm  f=0.0027  <S**2>=0.000
      71 -> 77        -0.17484
      72 -> 74         0.11440
      72 -> 75        -0.11163
      72 -> 76         0.42108
      72 -> 77         0.43691
      72 -> 78        -0.11565
      73 -> 76         0.10002

 Excited State  10:      Singlet-A      8.9222 eV  138.96 nm  f=0.0022  <S**2>=0.000
      69 -> 74         0.17660
      72 -> 75         0.12688
      72 -> 76         0.49807
      72 -> 77        -0.31091
      72 -> 78         0.14827
      73 -> 76        -0.23305

 The electronic state is 1-A.
 Alpha  occ. eigenvalues --  -89.18695 -24.78432 -24.78199 -24.77486 -24.77203
 Alpha  occ. eigenvalues --  -24.77203 -24.77125 -24.76931 -24.76705 -24.76700
 Alpha  occ. eigenvalues --  -24.76662 -19.21365 -19.21353 -10.48010 -10.44766
 Alpha  occ. eigenvalues --  -10.43484 -10.42649  -8.21132  -6.17788  -6.17445
 Alpha  occ. eigenvalues --   -6.17375  -1.35420  -1.34253  -1.32075  -1.30929
 Alpha  occ. eigenvalues --   -1.28447  -1.27341  -1.26614  -1.26255  -1.26058
 Alpha  occ. eigenvalues --   -1.25272  -1.15243  -1.07430  -0.85523  -0.81014
 Alpha  occ. eigenvalues --   -0.75862  -0.71640  -0.68434  -0.65374  -0.64620
 Alpha  occ. eigenvalues --   -0.64128  -0.63113  -0.62699  -0.62172  -0.60101
 Alpha  occ. eigenvalues --   -0.59879  -0.59017  -0.56318  -0.53338  -0.52564
 Alpha  occ. eigenvalues --   -0.51521  -0.50349  -0.50252  -0.49662  -0.49384
 Alpha  occ. eigenvalues --   -0.49033  -0.48418  -0.47304  -0.47067  -0.46875
 Alpha  occ. eigenvalues --   -0.46666  -0.46231  -0.45726  -0.45248  -0.44856
 Alpha  occ. eigenvalues --   -0.44697  -0.43858  -0.42674  -0.41353  -0.38385
 Alpha  occ. eigenvalues --   -0.37909  -0.36080  -0.35960
 Alpha virt. eigenvalues --   -0.04121  -0.00424   0.00345   0.01446   0.04628
 Alpha virt. eigenvalues --    0.06346   0.10597   0.12902   0.15627   0.16213
 Alpha virt. eigenvalues --    0.17082   0.18684   0.22259   0.23798   0.25339

 Mulliken charges:
               1
     1  C    0.461808
     2  C    0.488441
     3  C    0.362057
     4  F   -0.239464
     5  F   -0.245509
     6  S    1.045144
     7  O   -0.292250
     8  O   -0.310370
     9  F   -0.276870
    10  F   -0.268776
    11  F   -0.265101
    12  F   -0.264960
    13  F   -0.262217
    14  C    0.794738
    15  F   -0.244930
    16  F   -0.240170
    17  F   -0.241573
 Sum of Mulliken charges =  -0.00000

 Dipole moment (field-independent basis, Debye):
    X=              0.4178    Y=             -0.5425    Z=             -0.1134  Tot=              0.6941
 Quadrupole moment (field-independent basis, Debye-Ang):
   XX=            -98.0645   YY=            -95.7746   ZZ=            -95.9617
   XY=             -0.2614   XZ=              0.4059   YZ=              0.4363

 Summary of Natural Population Analysis:

                                       Natural Population
                Natural  -----------------------------------------------
    Atom  No    Charge         Core      Valence    Rydberg      Total
 -----------------------------------------------------------------------
      C    1    0.64533      1.99885     3.30168    0.05414     5.35467
      C    2    0.63040      1.99886     3.31191    0.05884     5.36960
      C    3    0.47850      1.99910     3.45212    0.07029     5.52150
      F    4   -0.33071      1.99993     7.32120    0.00959     9.33071
      F    5   -0.33254      1.99993     7.32294    0.00967     9.33254
      S    6    2.02561      9.99904     3.77021    0.20514    13.97439
      O    7   -0.61110      1.99989     6.58744    0.02377     8.61110
      O    8   -0.63402      1.99988     6.61012    0.02402     8.63402
      F    9   -0.51797      1.99997     7.50751    0.01048     9.51797
      F   10   -0.34989      1.99993     7.34030    0.00966     9.34989
      F   11   -0.35245      1.99993     7.34407    0.00844     9.35245
      F   12   -0.34628      1.99993     7.33826    0.00809     9.34628
      F   13   -0.33734      1.99993     7.32889    0.00851     9.33734
      C   14    1.07227      1.99926     2.85377    0.07471     4.92773
      F   15   -0.35838      1.99992     7.35114    0.00732     9.35838
      F   16   -0.34128      1.99993     7.33395    0.00741     9.34128
      F   17   -0.34015      1.99993     7.33294    0.00729     9.34015
 =======================================================================
   * Total *    0.00000     41.99422   103.40843    0.59735   146.00000

 Normal termination of Gaussian 16 at Mon Aug 24 19:20:54 2020.
