 Gaussian 16, Revision A.03,

 ---------------------------------
 # opt=CalcAll B3LYP/6-31G* scf=qc
 ---------------------------------

 -------------------
 Title Card Required
 -------------------
 Symbolic Z-matrix:
 Charge =  0 Multiplicity = 1

 SCF Done:  E(RB3LYP) =  -896.085294817     a.u. after    8 cycles
 SCF Done:  E(RB3LYP) =  -896.092812895     a.u. after   15 cycles
 SCF Done:  E(RB3LYP) =  -896.093298757     a.u. after   13 cycles
 SCF Done:  E(RB3LYP) =  -896.093319762     a.u. after    7 cycles
 SCF Done:  E(RB3LYP) =  -896.093321408     a.u. after    6 cycles
 SCF Done:  E(RB3LYP) =  -896.093321994     a.u. after    5 cycles
 SCF Done:  E(RB3LYP) =  -896.093322037     a.u. after    3 cycles
 Optimization completed.
    -- Stationary point found.
 Normal termination of Gaussian 16 at Mon Aug 24 17:34:59 2020.

 ----------------------------------------------------------------------
 # freq B3LYP/6-31G* scf=qc volume NMR pop=NPA density=current Geom=All
 Check Guess=Read
 ----------------------------------------------------------------------

 Structure from the checkpoint file:  "sulfonylfluoride_3_conf32.chk"
 -------------------
 Title Card Required
 -------------------
 Charge =  0 Multiplicity = 1

 SCF Done:  E(RB3LYP) =  -896.093322037     a.u. after    1 cycles

      1  C    Isotropic =    59.3938   Anisotropy =   186.9352

      2  C    Isotropic =    69.6644   Anisotropy =   168.5716

      3  C    Isotropic =    46.5157   Anisotropy =   159.1693

      4  N    Isotropic =   -49.4963   Anisotropy =   509.6913

      5  C    Isotropic =    33.9343   Anisotropy =   102.6723

      6  C    Isotropic =    75.3525   Anisotropy =   156.1426

      7  S    Isotropic =   216.4888   Anisotropy =   317.4067

      8  O    Isotropic =    85.2877   Anisotropy =    66.1213

      9  O    Isotropic =    85.2640   Anisotropy =    66.1260

     10  F    Isotropic =   136.8116   Anisotropy =   356.3776

     11  H    Isotropic =    24.5414   Anisotropy =     4.9036

     12  H    Isotropic =    24.9649   Anisotropy =     4.7241

     13  H    Isotropic =    23.5528   Anisotropy =     5.1028

     14  H    Isotropic =    24.7396   Anisotropy =     8.1135

  Exact polarizability: 103.845   0.782  78.541  -0.001   0.002  43.195
 Approx polarizability: 153.701   2.245 143.292  -0.001   0.007  77.995

                      1                      2                      3
                      A                      A                      A
 Frequencies --     10.7991               115.5122               183.0401
 Red. masses --      6.6666                 6.9154                 8.3615
 Frc consts  --      0.0005                 0.0544                 0.1651
 IR Inten    --      0.2778                 0.0037                 0.3921

                      4                      5                      6
                      A                      A                      A
 Frequencies --    271.9850               291.9781               328.7862
 Red. masses --      7.2207                10.8366                 9.0640
 Frc consts  --      0.3147                 0.5443                 0.5773
 IR Inten    --      0.4917                 4.2725                 1.1576

                      7                      8                      9
                      A                      A                      A
 Frequencies --    397.6824               416.8885               474.5671
 Red. masses --      5.4680                 4.8889                15.8190
 Frc consts  --      0.5095                 0.5006                 2.0991
 IR Inten    --      1.6612                10.3355                 6.0245

                     10                     11                     12
                      A                      A                      A
 Frequencies --    530.3513               578.2280               624.3349
 Red. masses --      3.8832                16.4079                 7.4473
 Frc consts  --      0.6435                 3.2322                 1.7103
 IR Inten    --     16.4553               127.8702                 7.3271

                     13                     14                     15
                      A                      A                      A
 Frequencies --    726.4151               748.1745               789.5862
 Red. masses --      9.0753                 3.6297                 1.3975
 Frc consts  --      2.8215                 1.1971                 0.5133
 IR Inten    --     41.6528                 3.2071                33.0525

                     16                     17                     18
                      A                      A                      A
 Frequencies --    789.6634               921.1110               985.5609
 Red. masses --     13.5289                 1.2682                 1.4002
 Frc consts  --      4.9705                 0.6339                 0.8013
 IR Inten    --    141.1715                 0.1480                 0.1242

                     19                     20                     21
                      A                      A                      A
 Frequencies --   1008.0317              1018.8233              1068.5158
 Red. masses --      7.1849                 1.3082                 2.8904
 Frc consts  --      4.3015                 0.8000                 1.9443
 IR Inten    --     11.9566                 0.0200                 7.5588

                     22                     23                     24
                      A                      A                      A
 Frequencies --   1119.1236              1135.8217              1188.9422
 Red. masses --      1.9836                 2.5829                 1.1394
 Frc consts  --      1.4637                 1.9632                 0.9489
 IR Inten    --      3.4118                43.0802                 0.4869

                     25                     26                     27
                      A                      A                      A
 Frequencies --   1200.3127              1320.7002              1336.5357
 Red. masses --      7.9677                 2.3118                 2.4637
 Frc consts  --      6.7635                 2.3758                 2.5930
 IR Inten    --    121.4414                 1.8579                 0.2733

                     28                     29                     30
                      A                      A                      A
 Frequencies --   1395.2344              1471.4079              1500.6561
 Red. masses --     20.7657                 2.1130                 2.0737
 Frc consts  --     23.8172                 2.6954                 2.7515
 IR Inten    --    207.5245                26.8057                15.8159

                     31                     32                     33
                      A                      A                      A
 Frequencies --   1626.3261              1637.0558              3197.3749
 Red. masses --      5.1132                 6.0323                 1.0892
 Frc consts  --      7.9681                 9.5249                 6.5605
 IR Inten    --     18.1048                18.5607                 7.8342

                     34                     35                     36
                      A                      A                      A
 Frequencies --   3209.5164              3225.7531              3261.1921
 Red. masses --      1.0904                 1.0968                 1.0936
 Frc consts  --      6.6180                 6.7243                 6.8529
 IR Inten    --      7.9639                 9.9368                 0.7301

 - Thermochemistry -
 -------------------
 Temperature   298.150 Kelvin.  Pressure   1.00000 Atm.
 Atom     1 has atomic number  6 and mass  12.00000

 Molecular mass:   160.99468 amu.
 Principal axes and moments of inertia in atomic units:
                           1         2         3
     Eigenvalues --   687.660842145.207512464.12830
           X            0.99997   0.00807  -0.00000
           Y           -0.00807   0.99997   0.00001
           Z            0.00000  -0.00001   1.00000
 This molecule is an asymmetric top.
 Rotational symmetry number  1.
 Warning -- assumption of classical behavior for rotation
           may cause significant error
 Rotational temperatures (Kelvin)      0.12595     0.04038     0.03515
 Rotational constants (GHZ):           2.62446     0.84129     0.73241
 Zero-point vibrational energy     239887.1 (Joules/Mol)
                                   57.33439 (Kcal/Mol)
 Warning -- explicit consideration of  11 degrees of freedom as
           vibrations may cause significant error
 Vibrational temperatures:     15.54   166.20   263.35   391.33   420.09
          (Kelvin)            473.05   572.18   599.81   682.80   763.06
                              831.94   898.28  1045.15  1076.46  1136.04
                             1136.15  1325.27  1418.00  1450.33  1465.86
                             1537.36  1610.17  1634.19  1710.62  1726.98
                             1900.19  1922.98  2007.43  2117.03  2159.11
                             2339.92  2355.36  4600.31  4617.78  4641.14
                             4692.13

 Zero-point correction=                           0.091368 (Hartree/Particle)
 Thermal correction to Energy=                    0.099726
 Thermal correction to Enthalpy=                  0.100670
 Thermal correction to Gibbs Free Energy=         0.055876
 Sum of electronic and zero-point Energies=           -896.001954
 Sum of electronic and thermal Energies=              -895.993596
 Sum of electronic and thermal Enthalpies=            -895.992652
 Sum of electronic and thermal Free Energies=         -896.037446

                     E (Thermal)             CV                S
                      KCal/Mol        Cal/Mol-Kelvin    Cal/Mol-Kelvin
 Total                   62.579             30.551             94.277
 Electronic               0.000              0.000              0.000
 Translational            0.889              2.981             41.137
 Rotational               0.889              2.981             29.676
 Vibrational             60.802             24.589             23.464
 Vibration     1          0.593              1.987              7.858
 Vibration     2          0.608              1.937              3.174
 Vibration     3          0.631              1.863              2.297
 Vibration     4          0.675              1.725              1.584
 Vibration     5          0.687              1.689              1.462
 Vibration     6          0.712              1.618              1.266
 Vibration     7          0.764              1.475              0.971
 Vibration     8          0.780              1.434              0.903
 Vibration     9          0.831              1.306              0.725
 Vibration    10          0.885              1.183              0.586
 Vibration    11          0.935              1.078              0.489

 Optimization completed.
    -- Stationary point found.
 Normal termination of Gaussian 16 at Mon Aug 24 17:38:16 2020.
 Gaussian 16:  ES64L-G16RevA.03 25-Dec-2016

 ----------------------------------------------------------------------
 # TD(NStates=10, Root=1) B3LYP/6-31G* scf=qc volume pop=NPA density=cu
 rrent Geom=AllCheck Guess=Read
 ----------------------------------------------------------------------

 Structure from the checkpoint file:  "sulfonylfluoride_3_conf33.chk"
 -------------------
 Title Card Required
 -------------------
 Charge =  0 Multiplicity = 1

                         Standard orientation:
 ---------------------------------------------------------------------
 Center     Atomic      Atomic             Coordinates (Angstroms)
 Number     Number       Type             X           Y           Z
 ---------------------------------------------------------------------
      1          6           0        2.387641    1.176239    0.000005
      2          6           0        3.033786   -0.058475    0.000008
      3          6           0        2.259518   -1.221711    0.000004
      4          7           0        0.923151   -1.204473   -0.000011
      5          6           0        0.337416   -0.014771   -0.000019
      6          6           0        0.991900    1.214579   -0.000003
      7         16           0       -1.467657   -0.151749    0.000067
      8          8           0       -1.939690   -0.664333   -1.270082
      9          8           0       -1.939664   -0.663130    1.270717
     10          9           0       -1.805286    1.442867   -0.000673
     11          1           0        2.957278    2.100869    0.000008
     12          1           0        4.117085   -0.125112    0.000014
     13          1           0        2.724203   -2.204671    0.000009
     14          1           0        0.442741    2.146941   -0.000011
 ---------------------------------------------------------------------

 SCF Done:  E(RB3LYP) =  -896.093322037     a.u. after    1 cycles

 Excitation energies and oscillator strengths:

 Excited State   1:      Singlet-A      4.9389 eV  251.03 nm  f=0.0037  <S**2>=0.000
      41 -> 42         0.70327
 This state for optimization and/or second-order correction.
 Total Energy, E(TD-HF/TD-DFT) =  -895.911819417
 Copying the excited state density for this state as the 1-particle RhoCI density.

 Excited State   2:      Singlet-A      5.2828 eV  234.69 nm  f=0.0005  <S**2>=0.000
      41 -> 43         0.70344

 Excited State   3:      Singlet-A      5.5027 eV  225.31 nm  f=0.0471  <S**2>=0.000
      39 -> 42        -0.18496
      39 -> 43        -0.29053
      40 -> 42         0.56293
      40 -> 43        -0.23796

 Excited State   4:      Singlet-A      6.1278 eV  202.33 nm  f=0.0895  <S**2>=0.000
      38 -> 42        -0.20608
      39 -> 42         0.37284
      40 -> 42         0.31244
      40 -> 43         0.45553

 Excited State   5:      Singlet-A      6.2659 eV  197.87 nm  f=0.0058  <S**2>=0.000
      38 -> 42         0.66254
      40 -> 43         0.16875

 Excited State   6:      Singlet-A      6.6062 eV  187.68 nm  f=0.0008  <S**2>=0.000
      37 -> 42         0.69471

 Excited State   7:      Singlet-A      6.6417 eV  186.67 nm  f=0.0163  <S**2>=0.000
      36 -> 42        -0.23249
      38 -> 43         0.58455
      39 -> 42         0.21539
      40 -> 43        -0.20406

 Excited State   8:      Singlet-A      6.7931 eV  182.51 nm  f=0.0247  <S**2>=0.000
      36 -> 42         0.50732
      38 -> 43         0.33876
      39 -> 43        -0.25697
      40 -> 43         0.20372

 Excited State   9:      Singlet-A      7.0107 eV  176.85 nm  f=0.0017  <S**2>=0.000
      37 -> 43         0.69480

 Excited State  10:      Singlet-A      7.0372 eV  176.18 nm  f=0.1454  <S**2>=0.000
      36 -> 42         0.16922
      36 -> 43         0.41881
      38 -> 43        -0.15538
      39 -> 42         0.35046
      39 -> 43        -0.25655
      40 -> 43        -0.20377
      41 -> 44         0.16577

 The electronic state is 1-A.
 Alpha  occ. eigenvalues --  -89.15357 -24.73875 -19.17618 -19.17618 -14.37631
 Alpha  occ. eigenvalues --  -10.28893 -10.26239 -10.24756 -10.24462 -10.23811
 Alpha  occ. eigenvalues --   -8.17708  -6.14408  -6.14032  -6.13920  -1.24960
 Alpha  occ. eigenvalues --   -1.11663  -1.03521  -0.99065  -0.84441  -0.81569
 Alpha  occ. eigenvalues --   -0.71543  -0.67487  -0.64083  -0.58500  -0.53589
 Alpha  occ. eigenvalues --   -0.52918  -0.51111  -0.49949  -0.49207  -0.44573
 Alpha  occ. eigenvalues --   -0.44518  -0.43769  -0.43579  -0.41989  -0.38214
 Alpha  occ. eigenvalues --   -0.34977  -0.34797  -0.32766  -0.32311  -0.29837
 Alpha  occ. eigenvalues --   -0.29757
 Alpha virt. eigenvalues --   -0.06740  -0.05413   0.01041   0.02996   0.07905
 Alpha virt. eigenvalues --    0.09253   0.10388   0.11952   0.14790   0.15280
 Alpha virt. eigenvalues --    0.17078   0.21780   0.26114   0.26873   0.28467

 Mulliken charges:
               1
     1  C   -0.146654
     2  C   -0.176148
     3  C    0.073061
     4  N   -0.355222
     5  C   -0.011248
     6  C   -0.096255
     7  S    1.198166
     8  O   -0.443528
     9  O   -0.443515
    10  F   -0.306737
    11  H    0.155475
    12  H    0.161791
    13  H    0.195988
    14  H    0.194827
 Sum of Mulliken charges =  -0.00000

 Dipole moment (field-independent basis, Debye):
    X=              4.9142    Y=              0.6082    Z=             -0.0003  Tot=              4.9517
 Quadrupole moment (field-independent basis, Debye-Ang):
   XX=            -59.4285   YY=            -56.5197   ZZ=            -68.9853
   XY=             -3.8733   XZ=              0.0010   YZ=             -0.0014

 Summary of Natural Population Analysis:

                                       Natural Population
                Natural  -----------------------------------------------
    Atom  No    Charge         Core      Valence    Rydberg      Total
 -----------------------------------------------------------------------
      C    1   -0.27967      1.99910     4.26261    0.01796     6.27967
      C    2   -0.34047      1.99907     4.32489    0.01651     6.34047
      C    3    0.01090      1.99913     3.96977    0.02020     5.98910
      N    4   -0.16562      1.99886     5.14937    0.01740     7.16562
      C    5   -0.23437      1.99877     4.20113    0.03447     6.23437
      C    6   -0.20694      1.99895     4.19256    0.01544     6.20694
      S    7    2.39044      9.99880     3.40775    0.20300    13.60956
      O    8   -0.86717      1.99988     6.84325    0.02404     8.86717
      O    9   -0.86717      1.99988     6.84324    0.02404     8.86717
      F   10   -0.50537      1.99997     7.49644    0.00897     9.50537
      H   11    0.25569      0.00000     0.74371    0.00060     0.74431
      H   12    0.26342      0.00000     0.73608    0.00050     0.73658
      H   13    0.26472      0.00000     0.73472    0.00056     0.73528
      H   14    0.28161      0.00000     0.71734    0.00105     0.71839
 =======================================================================
   * Total *    0.00000     27.99240    53.62285    0.38474    82.00000

 Normal termination of Gaussian 16 at Mon Aug 24 17:42:46 2020.
