 Gaussian 16, Revision A.03,

 ---------------------------------
 # opt=CalcAll B3LYP/6-31G* scf=qc
 ---------------------------------

 -------------------
 Title Card Required
 -------------------
 Symbolic Z-matrix:
 Charge =  0 Multiplicity = 1

 SCF Done:  E(RB3LYP) =  -1217.09282292     a.u. after    8 cycles
 SCF Done:  E(RB3LYP) =  -1217.09748264     a.u. after   16 cycles
 SCF Done:  E(RB3LYP) =  -1217.09768380     a.u. after   11 cycles
 SCF Done:  E(RB3LYP) =  -1217.09769622     a.u. after    9 cycles
 SCF Done:  E(RB3LYP) =  -1217.09769716     a.u. after    3 cycles
 Optimization completed.
    -- Stationary point found.
 Normal termination of Gaussian 16 at Mon Aug 24 17:11:43 2020.

 ----------------------------------------------------------------------
 # freq B3LYP/6-31G* scf=qc volume NMR pop=NPA density=current Geom=All
 Check Guess=Read
 ----------------------------------------------------------------------

 Structure from the checkpoint file:  "sulfonylfluoride_10_conf32.chk"
 -------------------
 Title Card Required
 -------------------
 Charge =  0 Multiplicity = 1

 SCF Done:  E(RB3LYP) =  -1217.09769716     a.u. after    1 cycles

      1  C    Isotropic =    53.1269   Anisotropy =   114.2337

      2  C    Isotropic =    67.3580   Anisotropy =   171.3027

      3  C    Isotropic =    68.7336   Anisotropy =   169.8817

      4  C    Isotropic =    56.7385   Anisotropy =   159.5687

      5  C    Isotropic =    68.7368   Anisotropy =   169.8806

      6  C    Isotropic =    67.3577   Anisotropy =   171.3019

      7  C    Isotropic =    64.1544   Anisotropy =    14.9861

      8  F    Isotropic =   273.3577   Anisotropy =   119.6729

      9  F    Isotropic =   273.3584   Anisotropy =   119.6706

     10  F    Isotropic =   248.8281   Anisotropy =   121.9215

     11  S    Isotropic =   216.0281   Anisotropy =   332.0443

     12  O    Isotropic =   105.1004   Anisotropy =    73.2797

     13  O    Isotropic =   105.1270   Anisotropy =    73.2872

     14  F    Isotropic =    97.1499   Anisotropy =   361.6766

     15  H    Isotropic =    24.3018   Anisotropy =     7.8387

     16  H    Isotropic =    24.5148   Anisotropy =     8.1078

     17  H    Isotropic =    24.5151   Anisotropy =     8.1069

     18  H    Isotropic =    24.3017   Anisotropy =     7.8390

  Exact polarizability: 128.049  -0.000  96.075   2.774  -0.002  50.176
 Approx polarizability: 180.470  -0.000 181.007   5.609  -0.007  82.166

                      1                      2                      3
                      A                      A                      A
 Frequencies --     16.2200                42.2279                59.8958
 Red. masses --     14.3751                 5.3283                11.6780
 Frc consts  --      0.0022                 0.0056                 0.0247
 IR Inten    --      0.0010                 0.0907                 2.7213

                      4                      5                      6
                      A                      A                      A
 Frequencies --    128.0618               148.7873               219.1949
 Red. masses --     11.8234                12.9330                 9.2261
 Frc consts  --      0.1142                 0.1687                 0.2612
 IR Inten    --      4.2103                 0.0407                 0.0022

                      7                      8                      9
                      A                      A                      A
 Frequencies --    220.2874               264.8770               333.4346
 Red. masses --     16.8493                 9.6565                10.9966
 Frc consts  --      0.4817                 0.3992                 0.7203
 IR Inten    --      0.0601                 1.3711                 1.4527

                     10                     11                     12
                      A                      A                      A
 Frequencies --    388.1082               399.1535               413.8479
 Red. masses --      8.7494                 9.3739                 3.0201
 Frc consts  --      0.7765                 0.8799                 0.3048
 IR Inten    --      1.5753                 0.0002                 0.0767

                     13                     14                     15
                      A                      A                      A
 Frequencies --    424.0513               465.6345               471.6731
 Red. masses --      8.8782                11.1571                10.8589
 Frc consts  --      0.9406                 1.4253                 1.4234
 IR Inten    --     30.3329                 4.9737                 9.1305

                     16                     17                     18
                      A                      A                      A
 Frequencies --    514.0415               576.3532               591.2664
 Red. masses --      7.5742                11.8217                 7.9575
 Frc consts  --      1.1792                 2.3137                 1.6391
 IR Inten    --      7.7103                 0.0536                41.8798

                     19                     20                     21
                      A                      A                      A
 Frequencies --    597.9069               642.1251               708.4737
 Red. masses --      6.3101                 7.1387                11.5161
 Frc consts  --      1.3291                 1.7342                 3.4057
 IR Inten    --     62.6017                 0.2035                50.0777

                     22                     23                     24
                      A                      A                      A
 Frequencies --    733.0354               777.6029               808.9273
 Red. masses --      4.2402                13.5071                10.9402
 Frc consts  --      1.3424                 4.8120                 4.2179
 IR Inten    --      8.4476               130.0642               133.4602

                     25                     26                     27
                      A                      A                      A
 Frequencies --    860.0024               860.7120               982.9851
 Red. masses --      1.5504                 1.2419                 1.2645
 Frc consts  --      0.6756                 0.5421                 0.7199
 IR Inten    --     34.8195                 0.0016                 0.4306

                     28                     29                     30
                      A                      A                      A
 Frequencies --    986.6639              1032.3624              1087.4367
 Red. masses --      1.3519                 4.4284                 6.6920
 Frc consts  --      0.7754                 2.7807                 4.6624
 IR Inten    --      0.2209                24.3335               110.4803

                     31                     32                     33
                      A                      A                      A
 Frequencies --   1104.8681              1141.1176              1185.8321
 Red. masses --      2.7863                 1.4938                10.3298
 Frc consts  --      2.0040                 1.1460                 8.5583
 IR Inten    --     14.5115                32.2163               189.6098

                     34                     35                     36
                      A                      A                      A
 Frequencies --   1198.4043              1220.0603              1222.4411
 Red. masses --      9.9657                 1.1976                 6.3877
 Frc consts  --      8.4327                 1.0504                 5.6241
 IR Inten    --    254.2599                11.1456               163.7650

                     37                     38                     39
                      A                      A                      A
 Frequencies --   1339.5919              1340.6140              1361.0701
 Red. masses --      6.0179                 1.2770                10.9621
 Frc consts  --      6.3627                 1.3523                11.9647
 IR Inten    --    330.3844                 1.2829                12.0457

                     40                     41                     42
                      A                      A                      A
 Frequencies --   1394.1528              1447.4897              1542.7846
 Red. masses --     14.7411                 2.9946                 2.3174
 Frc consts  --     16.8811                 3.6968                 3.2498
 IR Inten    --    144.3554                56.2474                 1.1458

                     43                     44                     45
                      A                      A                      A
 Frequencies --   1637.8371              1663.7425              3226.7436
 Red. masses --      7.1626                 5.5935                 1.0892
 Frc consts  --     11.3204                 9.1224                 6.6815
 IR Inten    --      0.0001                 1.1432                 0.0578

                     46                     47                     48
                      A                      A                      A
 Frequencies --   3227.7915              3239.5768              3240.5329
 Red. masses --      1.0886                 1.0944                 1.0955
 Frc consts  --      6.6824                 6.7670                 6.7782
 IR Inten    --      1.2495                 0.0604                 1.7043

 - Thermochemistry -
 -------------------
 Temperature   298.150 Kelvin.  Pressure   1.00000 Atm.
 Atom     1 has atomic number  6 and mass  12.00000

 Molecular mass:   227.98681 amu.
 Principal axes and moments of inertia in atomic units:
                           1         2         3
     Eigenvalues --  1020.068916727.440077042.31024
           X            1.00000   0.00000   0.00289
           Y           -0.00000   1.00000  -0.00001
           Z           -0.00289   0.00001   1.00000
 This molecule is an asymmetric top.
 Rotational symmetry number  1.
 Warning -- assumption of classical behavior for rotation
           may cause significant error
 Rotational temperatures (Kelvin)      0.08491     0.01287     0.01230
 Rotational constants (GHZ):           1.76923     0.26827     0.25627
 Zero-point vibrational energy     284053.3 (Joules/Mol)
                                   67.89037 (Kcal/Mol)
 Warning -- explicit consideration of  19 degrees of freedom as
           vibrations may cause significant error
 Vibrational temperatures:     23.34    60.76    86.18   184.25   214.07
          (Kelvin)            315.37   316.94   381.10   479.74   558.40
                              574.29   595.43   610.12   669.94   678.63
                              739.59   829.24   850.70   860.25   923.87
                             1019.34  1054.67  1118.80  1163.87  1237.35
                             1238.37  1414.30  1419.59  1485.34  1564.58
                             1589.66  1641.81  1706.15  1724.24  1755.39
                             1758.82  1927.37  1928.84  1958.28  2005.87
                             2082.61  2219.72  2356.48  2393.75  4642.56
                             4644.07  4661.03  4662.40

 Zero-point correction=                           0.108190 (Hartree/Particle)
 Thermal correction to Energy=                    0.120187
 Thermal correction to Enthalpy=                  0.121131
 Thermal correction to Gibbs Free Energy=         0.067314
 Sum of electronic and zero-point Energies=          -1216.989507
 Sum of electronic and thermal Energies=             -1216.977510
 Sum of electronic and thermal Enthalpies=           -1216.976566
 Sum of electronic and thermal Free Energies=        -1217.030384

                     E (Thermal)             CV                S
                      KCal/Mol        Cal/Mol-Kelvin    Cal/Mol-Kelvin
 Total                   75.419             43.991            113.269
 Electronic               0.000              0.000              0.000
 Translational            0.889              2.981             42.175
 Rotational               0.889              2.981             32.247
 Vibrational             73.641             38.029             38.848
 Vibration     1          0.593              1.986              7.050
 Vibration     2          0.595              1.980              5.152
 Vibration     3          0.597              1.973              4.461
 Vibration     4          0.611              1.925              2.975
 Vibration     5          0.618              1.904              2.688
 Vibration     6          0.647              1.812              1.966
 Vibration     7          0.647              1.810              1.957
 Vibration     8          0.671              1.737              1.629
 Vibration     9          0.715              1.609              1.243
 Vibration    10          0.756              1.496              1.007
 Vibration    11          0.765              1.472              0.966
 Vibration    12          0.777              1.440              0.913
 Vibration    13          0.786              1.418              0.878
 Vibration    14          0.823              1.326              0.750
 Vibration    15          0.829              1.313              0.733
 Vibration    16          0.869              1.219              0.624
 Vibration    17          0.933              1.082              0.492
 Vibration    18          0.949              1.050              0.465
 Vibration    19          0.956              1.036              0.453

 Optimization completed.
    -- Stationary point found.
 Normal termination of Gaussian 16 at Mon Aug 24 17:16:17 2020.
 Gaussian 16:  ES64L-G16RevA.03 25-Dec-2016

 ----------------------------------------------------------------------
 # TD(NStates=10, Root=1) B3LYP/6-31G* scf=qc volume pop=NPA density=cu
 rrent Geom=AllCheck Guess=Read
 ----------------------------------------------------------------------

 Structure from the checkpoint file:  "sulfonylfluoride_10_conf33.chk"
 -------------------
 Title Card Required
 -------------------
 Charge =  0 Multiplicity = 1

                         Standard orientation:
 ---------------------------------------------------------------------
 Center     Atomic      Atomic             Coordinates (Angstroms)
 Number     Number       Type             X           Y           Z
 ---------------------------------------------------------------------
      1          6           0       -1.101744   -0.000049   -0.072981
      2          6           0       -0.426392    1.221175   -0.053527
      3          6           0        0.965352    1.214762   -0.005662
      4          6           0        1.656131   -0.000046    0.019768
      5          6           0        0.965360   -1.214847   -0.005670
      6          6           0       -0.426394   -1.221263   -0.053516
      7          6           0        3.165922    0.000002    0.013339
      8          9           0        3.665434    1.090066    0.631485
      9          9           0        3.665551   -1.089886    0.631691
     10          9           0        3.647166   -0.000079   -1.248707
     11         16           0       -2.881818   -0.000063   -0.130623
     12          8           0       -3.361552    1.273360   -0.631946
     13          8           0       -3.361602   -1.273963   -0.630684
     14          9           0       -3.195869    0.000742    1.460643
     15          1           0       -0.980772    2.152626   -0.083251
     16          1           0        1.512952    2.150573    0.015507
     17          1           0        1.512966   -2.150652    0.015472
     18          1           0       -0.980783   -2.152708   -0.083223
 ---------------------------------------------------------------------

 SCF Done:  E(RB3LYP) =  -1217.09769716     a.u. after    1 cycles

 Excitation energies and oscillator strengths:

 Excited State   1:      Singlet-A      5.1979 eV  238.53 nm  f=0.0191  <S**2>=0.000
      56 -> 59        -0.36159
      57 -> 58         0.60667
 This state for optimization and/or second-order correction.
 Total Energy, E(TD-HF/TD-DFT) =  -1216.90667946
 Copying the excited state density for this state as the 1-particle RhoCI density.

 Excited State   2:      Singlet-A      5.8206 eV  213.01 nm  f=0.1727  <S**2>=0.000
      56 -> 58         0.64590
      57 -> 59         0.26450

 Excited State   3:      Singlet-A      6.0502 eV  204.93 nm  f=0.0021  <S**2>=0.000
      54 -> 58        -0.17945
      55 -> 58         0.67739

 Excited State   4:      Singlet-A      6.3986 eV  193.77 nm  f=0.0018  <S**2>=0.000
      53 -> 58         0.68449
      57 -> 59        -0.14233

 Excited State   5:      Singlet-A      6.4861 eV  191.15 nm  f=0.0003  <S**2>=0.000
      54 -> 58         0.67016
      55 -> 58         0.17711

 Excited State   6:      Singlet-A      6.9141 eV  179.32 nm  f=0.2284  <S**2>=0.000
      53 -> 59         0.19784
      56 -> 59         0.55908
      57 -> 58         0.32668
      57 -> 60         0.14415

 Excited State   7:      Singlet-A      6.9866 eV  177.46 nm  f=0.4085  <S**2>=0.000
      55 -> 59         0.42862
      56 -> 58        -0.21223
      57 -> 59         0.49668

 Excited State   8:      Singlet-A      7.0097 eV  176.88 nm  f=0.2241  <S**2>=0.000
      55 -> 59         0.56008
      56 -> 58         0.15468
      57 -> 59        -0.37409

 Excited State   9:      Singlet-A      7.2847 eV  170.20 nm  f=0.0134  <S**2>=0.000
      50 -> 58         0.56593
      53 -> 59        -0.38551

 Excited State  10:      Singlet-A      7.3356 eV  169.02 nm  f=0.0197  <S**2>=0.000
      50 -> 58         0.41488
      53 -> 59         0.53783
      57 -> 60        -0.11711

 The electronic state is 1-A.
 Alpha  occ. eigenvalues --  -89.16553 -24.74526 -24.74526 -24.74296 -24.73953
 Alpha  occ. eigenvalues --  -19.18552 -19.18552 -10.45523 -10.26842 -10.25368
 Alpha  occ. eigenvalues --  -10.24778 -10.24778 -10.24336 -10.24334  -8.18845
 Alpha  occ. eigenvalues --   -6.15523  -6.15190  -6.15082  -1.32172  -1.25654
 Alpha  occ. eigenvalues --   -1.23618  -1.23151  -1.12550  -1.04631  -0.91587
 Alpha  occ. eigenvalues --   -0.83375  -0.80056  -0.74595  -0.69169  -0.66507
 Alpha  occ. eigenvalues --   -0.64027  -0.59999  -0.59875  -0.59662  -0.58196
 Alpha  occ. eigenvalues --   -0.53592  -0.51747  -0.49761  -0.49555  -0.47991
 Alpha  occ. eigenvalues --   -0.47599  -0.47282  -0.47183  -0.44679  -0.44491
 Alpha  occ. eigenvalues --   -0.43987  -0.43399  -0.41685  -0.41562  -0.39848
 Alpha  occ. eigenvalues --   -0.39279  -0.39058  -0.35422  -0.35240  -0.33573
 Alpha  occ. eigenvalues --   -0.30826  -0.30214
 Alpha virt. eigenvalues --   -0.08178  -0.05109   0.01156   0.03984   0.07840
 Alpha virt. eigenvalues --    0.09369   0.10691   0.11253   0.11347   0.12927
 Alpha virt. eigenvalues --    0.14673   0.18211   0.19539   0.19824   0.20423

 Mulliken charges:
               1
     1  C   -0.156516
     2  C   -0.134888
     3  C   -0.140137
     4  C   -0.019802
     5  C   -0.140135
     6  C   -0.134906
     7  C    0.786102
     8  F   -0.265638
     9  F   -0.265632
    10  F   -0.254553
    11  S    1.191775
    12  O   -0.479863
    13  O   -0.479865
    14  F   -0.301321
    15  H    0.209123
    16  H    0.188563
    17  H    0.188557
    18  H    0.209136
 Sum of Mulliken charges =  -0.00000

 Dipole moment (field-independent basis, Debye):
    X=              3.2412    Y=              0.0002    Z=              0.6809  Tot=              3.3120
 Quadrupole moment (field-independent basis, Debye-Ang):
   XX=           -106.9498   YY=            -77.6124   ZZ=            -85.5354
   XY=             -0.0015   XZ=             -2.6479   YZ=              0.0016

 Summary of Natural Population Analysis:

                                       Natural Population
                Natural  -----------------------------------------------
    Atom  No    Charge         Core      Valence    Rydberg      Total
 -----------------------------------------------------------------------
      C    1   -0.37304      1.99873     4.34578    0.02852     6.37304
      C    2   -0.15830      1.99904     4.13936    0.01990     6.15830
      C    3   -0.14843      1.99909     4.13180    0.01754     6.14843
      C    4   -0.19012      1.99891     4.17363    0.01757     6.19012
      C    5   -0.14844      1.99909     4.13181    0.01754     6.14844
      C    6   -0.15830      1.99904     4.13936    0.01990     6.15830
      C    7    1.11136      1.99911     2.81846    0.07108     4.88864
      F    8   -0.36107      1.99993     7.35483    0.00632     9.36107
      F    9   -0.36107      1.99993     7.35482    0.00632     9.36107
      F   10   -0.35897      1.99993     7.35264    0.00640     9.35897
      S   11    2.39751      9.99873     3.39972    0.20404    13.60249
      O   12   -0.90171      1.99988     6.87868    0.02314     8.90171
      O   13   -0.90172      1.99988     6.87870    0.02314     8.90172
      F   14   -0.50937      1.99997     7.49989    0.00952     9.50937
      H   15    0.27122      0.00000     0.72751    0.00127     0.72878
      H   16    0.25962      0.00000     0.73895    0.00143     0.74038
      H   17    0.25961      0.00000     0.73896    0.00143     0.74039
      H   18    0.27123      0.00000     0.72750    0.00127     0.72877
 =======================================================================
   * Total *   -0.00000     35.99126    77.53240    0.47634   114.00000

 Normal termination of Gaussian 16 at Mon Aug 24 17:22:42 2020.
