 Gaussian 16, Revision A.03,

 ---------------------------------
 # opt=CalcAll B3LYP/6-31G* scf=qc
 ---------------------------------

 -------------------
 Title Card Required
 -------------------
 Symbolic Z-matrix:
 Charge =  0 Multiplicity = 1

 SCF Done:  E(RB3LYP) =  -1699.30170606     a.u. after    9 cycles
 SCF Done:  E(RB3LYP) =  -1699.31574203     a.u. after   15 cycles
 SCF Done:  E(RB3LYP) =  -1699.34402773     a.u. after   13 cycles
 SCF Done:  E(RB3LYP) =  -1699.34879375     a.u. after   17 cycles
 SCF Done:  E(RB3LYP) =  -1699.35243559     a.u. after   13 cycles
 SCF Done:  E(RB3LYP) =  -1699.35362303     a.u. after   18 cycles
 SCF Done:  E(RB3LYP) =  -1699.35483837     a.u. after   13 cycles
 SCF Done:  E(RB3LYP) =  -1699.35503182     a.u. after   13 cycles
 SCF Done:  E(RB3LYP) =  -1699.35505445     a.u. after    9 cycles
 SCF Done:  E(RB3LYP) =  -1699.35505598     a.u. after    4 cycles
 SCF Done:  E(RB3LYP) =  -1699.35505606     a.u. after    3 cycles
 Optimization completed.
    -- Stationary point found.
 Normal termination of Gaussian 16 at Mon Aug 24 18:39:23 2020.

 ----------------------------------------------------------------------
 # freq B3LYP/6-31G* scf=qc volume NMR pop=NPA density=current Geom=All
 Check Guess=Read
 ----------------------------------------------------------------------

 Structure from the checkpoint file:  "sulfonylfluoride_4_conf42.chk"
 -------------------
 Title Card Required
 -------------------
 Charge =  0 Multiplicity = 1

 SCF Done:  E(RB3LYP) =  -1699.35505606     a.u. after    1 cycles

      1  C    Isotropic =    78.1173   Anisotropy =    14.9283

      2  C    Isotropic =    75.9963   Anisotropy =    12.7993

      3  C    Isotropic =    67.9803   Anisotropy =    14.6576

      4  F    Isotropic =   297.1382   Anisotropy =    72.0576

      5  F    Isotropic =   300.1293   Anisotropy =    76.2859

      6  S    Isotropic =   218.4601   Anisotropy =   373.0953

      7  O    Isotropic =    95.2055   Anisotropy =    74.9991

      8  O    Isotropic =    99.3880   Anisotropy =    76.4502

      9  F    Isotropic =   115.2647   Anisotropy =   359.9427

     10  F    Isotropic =   319.7848   Anisotropy =    70.4998

     11  F    Isotropic =   313.8924   Anisotropy =    78.0497

     12  F    Isotropic =   317.2620   Anisotropy =    69.9717

     13  F    Isotropic =   322.3666   Anisotropy =    74.5636

     14  C    Isotropic =    68.3710   Anisotropy =    12.4586

     15  F    Isotropic =   278.7572   Anisotropy =   107.7199

     16  F    Isotropic =   275.0952   Anisotropy =   106.2259

     17  F    Isotropic =   279.0857   Anisotropy =   115.4661

  Exact polarizability:  77.162   0.922  65.178   0.938  -0.828  60.273
 Approx polarizability: 103.131  -4.161 104.677   3.942  -2.503 103.399

                      1                      2                      3
                      A                      A                      A
 Frequencies --     29.1476                38.8059                60.0484
 Red. masses --     17.7044                18.5974                18.4947
 Frc consts  --      0.0089                 0.0165                 0.0393
 IR Inten    --      0.0643                 0.0358                 0.0901

                      4                      5                      6
                      A                      A                      A
 Frequencies --     74.3086               108.8476               136.2758
 Red. masses --     18.1331                18.4282                18.0635
 Frc consts  --      0.0590                 0.1286                 0.1976
 IR Inten    --      0.0375                 0.4638                 1.4106

                      7                      8                      9
                      A                      A                      A
 Frequencies --    181.4120               185.3536               208.8479
 Red. masses --     18.2111                17.4788                18.0055
 Frc consts  --      0.3531                 0.3538                 0.4627
 IR Inten    --      2.0772                 2.4525                 3.8007

                     10                     11                     12
                      A                      A                      A
 Frequencies --    233.2647               238.1142               263.8451
 Red. masses --     18.5363                18.7232                17.9894
 Frc consts  --      0.5943                 0.6255                 0.7378
 IR Inten    --      1.0817                 0.3370                 2.5115

                     13                     14                     15
                      A                      A                      A
 Frequencies --    281.7474               286.8125               309.5621
 Red. masses --     18.6545                18.2478                18.7079
 Frc consts  --      0.8725                 0.8844                 1.0563
 IR Inten    --      1.7712                 1.9208                 0.8839

                     16                     17                     18
                      A                      A                      A
 Frequencies --    321.6051               341.5206               357.8819
 Red. masses --     18.1396                18.4672                17.9114
 Frc consts  --      1.1054                 1.2691                 1.3516
 IR Inten    --      1.0899                 0.6812                 2.7431

                     19                     20                     21
                      A                      A                      A
 Frequencies --    379.1322               423.1115               442.0405
 Red. masses --     18.5520                18.2929                18.0253
 Frc consts  --      1.5712                 1.9295                 2.0752
 IR Inten    --      2.1352                 8.1279                10.7749

                     22                     23                     24
                      A                      A                      A
 Frequencies --    478.0352               511.5662               528.6088
 Red. masses --     18.1679                17.7681                17.9021
 Frc consts  --      2.4461                 2.7396                 2.9473
 IR Inten    --      6.6387                11.8298                 6.2009

                     25                     26                     27
                      A                      A                      A
 Frequencies --    575.5620               583.7919               605.1304
 Red. masses --     17.9285                18.7960                18.4019
 Frc consts  --      3.4993                 3.7743                 3.9702
 IR Inten    --     64.7873                34.5894                31.2710

                     28                     29                     30
                      A                      A                      A
 Frequencies --    638.5473               682.0869               743.0210
 Red. masses --     17.5605                17.3801                16.9932
 Frc consts  --      4.2186                 4.7641                 5.5275
 IR Inten    --     15.1368                10.2065                47.1162

                     31                     32                     33
                      A                      A                      A
 Frequencies --    797.1009               890.6988              1000.3550
 Red. masses --     21.5013                14.3328                13.3026
 Frc consts  --      8.0490                 6.6995                 7.8432
 IR Inten    --    131.9932               169.3436                46.4275

                     34                     35                     36
                      A                      A                      A
 Frequencies --   1142.3528              1160.1193              1202.0320
 Red. masses --     13.6801                13.7940                15.6032
 Frc consts  --     10.5182                10.9382                13.2830
 IR Inten    --    110.9922                95.6103                28.8398

                     37                     38                     39
                      A                      A                      A
 Frequencies --   1211.4327              1212.5284              1239.4492
 Red. masses --     13.3802                13.8415                13.2588
 Frc consts  --     11.5694                11.9899                12.0009
 IR Inten    --     37.9205                46.4915                18.1715

                     40                     41                     42
                      A                      A                      A
 Frequencies --   1247.3435              1272.0096              1282.6913
 Red. masses --     13.3284                13.1698                12.8037
 Frc consts  --     12.2180                12.5548                12.4117
 IR Inten    --    252.6126               386.9180               268.7066

                     43                     44                     45
                      A                      A                      A
 Frequencies --   1319.3336              1365.2710              1416.6733
 Red. masses --     12.3884                12.5225                20.7329
 Frc consts  --     12.7050                13.7524                24.5160
 IR Inten    --     35.9289                54.2341               218.3035

 - Thermochemistry -
 -------------------
 Temperature   298.150 Kelvin.  Pressure   1.00000 Atm.
 Atom     1 has atomic number  6 and mass  12.00000

 Molecular mass:   301.94593 amu.
 Principal axes and moments of inertia in atomic units:
                           1         2         3
     Eigenvalues --  2195.950155599.653996006.93736
           X            0.99999   0.00496  -0.00197
           Y           -0.00498   0.99992  -0.01184
           Z            0.00192   0.01185   0.99993
 This molecule is an asymmetric top.
 Rotational symmetry number  1.
 Warning -- assumption of classical behavior for rotation
           may cause significant error
 Rotational temperatures (Kelvin)      0.03944     0.01547     0.01442
 Rotational constants (GHZ):           0.82185     0.32230     0.30044
 Zero-point vibrational energy     167521.6 (Joules/Mol)
                                   40.03863 (Kcal/Mol)
 Warning -- explicit consideration of  27 degrees of freedom as
           vibrations may cause significant error
 Vibrational temperatures:     41.94    55.83    86.40   106.91   156.61
          (Kelvin)            196.07   261.01   266.68   300.49   335.62
                              342.59   379.61   405.37   412.66   445.39
                              462.72   491.37   514.91   545.49   608.76
                              636.00   687.79   736.03   760.55   828.11
                              839.95   870.65   918.73   981.37  1069.04
                             1146.85  1281.52  1439.29  1643.59  1669.15
                             1729.46  1742.98  1744.56  1783.29  1794.65
                             1830.14  1845.51  1898.23  1964.32  2038.28

 Zero-point correction=                           0.063806 (Hartree/Particle)
 Thermal correction to Energy=                    0.079714
 Thermal correction to Enthalpy=                  0.080658
 Thermal correction to Gibbs Free Energy=         0.019168
 Sum of electronic and zero-point Energies=          -1699.291250
 Sum of electronic and thermal Energies=             -1699.275342
 Sum of electronic and thermal Enthalpies=           -1699.274398
 Sum of electronic and thermal Free Energies=        -1699.335888

                     E (Thermal)             CV                S
                      KCal/Mol        Cal/Mol-Kelvin    Cal/Mol-Kelvin
 Total                   50.021             55.847            129.418
 Electronic               0.000              0.000              0.000
 Translational            0.889              2.981             43.012
 Rotational               0.889              2.981             32.668
 Vibrational             48.244             49.886             53.737
 Vibration     1          0.593              1.984              5.887
 Vibration     2          0.594              1.981              5.319
 Vibration     3          0.597              1.973              4.456
 Vibration     4          0.599              1.966              4.036
 Vibration     5          0.606              1.942              3.289
 Vibration     6          0.614              1.917              2.856
 Vibration     7          0.630              1.865              2.314
 Vibration     8          0.631              1.860              2.274
 Vibration     9          0.642              1.827              2.054
 Vibration    10          0.654              1.790              1.854
 Vibration    11          0.656              1.782              1.817
 Vibration    12          0.670              1.739              1.636
 Vibration    13          0.681              1.707              1.523
 Vibration    14          0.684              1.698              1.493
 Vibration    15          0.699              1.656              1.365
 Vibration    16          0.707              1.632              1.302
 Vibration    17          0.721              1.592              1.205
 Vibration    18          0.733              1.559              1.131
 Vibration    19          0.749              1.515              1.043
 Vibration    20          0.785              1.420              0.881
 Vibration    21          0.802              1.378              0.820
 Vibration    22          0.835              1.299              0.715
 Vibration    23          0.867              1.224              0.630
 Vibration    24          0.884              1.187              0.590
 Vibration    25          0.932              1.084              0.494
 Vibration    26          0.941              1.066              0.478
 Vibration    27          0.964              1.021              0.441

 Optimization completed.
    -- Stationary point found.
 Normal termination of Gaussian 16 at Mon Aug 24 18:45:53 2020.
 Gaussian 16:  ES64L-G16RevA.03 25-Dec-2016

 ----------------------------------------------------------------------
 # TD(NStates=10, Root=1) B3LYP/6-31G* scf=qc volume pop=NPA density=cu
 rrent Geom=AllCheck Guess=Read
 ----------------------------------------------------------------------

 Structure from the checkpoint file:  "sulfonylfluoride_4_conf43.chk"
 -------------------
 Title Card Required
 -------------------
 Charge =  0 Multiplicity = 1

                         Standard orientation:
 ---------------------------------------------------------------------
 Center     Atomic      Atomic             Coordinates (Angstroms)
 Number     Number       Type             X           Y           Z
 ---------------------------------------------------------------------
      1          6           0        1.134589   -0.416135    0.194248
      2          6           0        0.267954    0.783663   -0.271564
      3          6           0       -1.191818    0.859960    0.276238
      4          9           0       -1.166778    1.070545    1.601325
      5          9           0       -1.789939    1.890934   -0.336952
      6         16           0       -2.326590   -0.624147    0.040528
      7          8           0       -1.818393   -1.746704    0.795275
      8          8           0       -3.689347   -0.151576    0.119285
      9          9           0       -1.994690   -0.884637   -1.514476
     10          9           0        0.858217    1.931481    0.146578
     11          9           0        0.211060    0.782682   -1.618252
     12          9           0        0.749669   -1.507814   -0.504185
     13          9           0        0.930087   -0.627438    1.513348
     14          6           0        2.659811   -0.223314   -0.029526
     15          9           0        2.895974    0.181339   -1.284860
     16          9           0        3.147970    0.681481    0.824169
     17          9           0        3.276668   -1.391067    0.175384
 ---------------------------------------------------------------------

 SCF Done:  E(RB3LYP) =  -1699.35505606     a.u. after    1 cycles

 Excitation energies and oscillator strengths:

 Excited State   1:      Singlet-A      7.5207 eV  164.86 nm  f=0.0001  <S**2>=0.000
      73 -> 74        -0.45435
      73 -> 75         0.51211
      73 -> 76        -0.11635
 This state for optimization and/or second-order correction.
 Total Energy, E(TD-HF/TD-DFT) =  -1699.07867719
 Copying the excited state density for this state as the 1-particle RhoCI density.

 Excited State   2:      Singlet-A      7.6380 eV  162.33 nm  f=0.0019  <S**2>=0.000
      70 -> 75        -0.13759
      71 -> 75         0.20015
      73 -> 74         0.50546
      73 -> 75         0.40815

 Excited State   3:      Singlet-A      7.7854 eV  159.25 nm  f=0.0103  <S**2>=0.000
      70 -> 75         0.14644
      72 -> 74         0.11650
      72 -> 75         0.65951

 Excited State   4:      Singlet-A      8.0320 eV  154.36 nm  f=0.0163  <S**2>=0.000
      70 -> 74        -0.26094
      71 -> 74         0.56487
      71 -> 75        -0.12269
      72 -> 74        -0.25894

 Excited State   5:      Singlet-A      8.1017 eV  153.03 nm  f=0.1176  <S**2>=0.000
      70 -> 74        -0.20949
      71 -> 74         0.20338
      72 -> 74         0.60808
      72 -> 75        -0.10049

 Excited State   6:      Singlet-A      8.4107 eV  147.41 nm  f=0.0142  <S**2>=0.000
      70 -> 75        -0.14974
      71 -> 74         0.17396
      71 -> 75         0.55456
      72 -> 76        -0.19746
      73 -> 74        -0.10802
      73 -> 75        -0.14566
      73 -> 78         0.14601

 Excited State   7:      Singlet-A      8.5575 eV  144.88 nm  f=0.0683  <S**2>=0.000
      70 -> 74         0.57534
      71 -> 74         0.28949
      72 -> 76         0.15680
      73 -> 76        -0.10121

 Excited State   8:      Singlet-A      8.6740 eV  142.94 nm  f=0.0051  <S**2>=0.000
      70 -> 75         0.59488
      71 -> 75         0.16016
      72 -> 75        -0.17650
      72 -> 76        -0.19460

 Excited State   9:      Singlet-A      8.8030 eV  140.84 nm  f=0.0081  <S**2>=0.000
      70 -> 75         0.15338
      71 -> 75         0.13794
      72 -> 76         0.47492
      73 -> 76         0.42873
      73 -> 78         0.13039

 Excited State  10:      Singlet-A      8.9348 eV  138.77 nm  f=0.0038  <S**2>=0.000
      69 -> 75        -0.13359
      71 -> 75        -0.19267
      71 -> 76        -0.11618
      72 -> 76        -0.37545
      73 -> 75         0.10371
      73 -> 76         0.46865

 The electronic state is 1-A.
 Alpha  occ. eigenvalues --  -89.18799 -24.78541 -24.78413 -24.77621 -24.77394
 Alpha  occ. eigenvalues --  -24.77318 -24.76835 -24.76832 -24.76826 -24.76674
 Alpha  occ. eigenvalues --  -24.76635 -19.21486 -19.21461 -10.47993 -10.44870
 Alpha  occ. eigenvalues --  -10.43391 -10.42526  -8.21250  -6.17908  -6.17562
 Alpha  occ. eigenvalues --   -6.17487  -1.35342  -1.34282  -1.31963  -1.30895
 Alpha  occ. eigenvalues --   -1.28949  -1.27594  -1.26756  -1.26032  -1.25938
 Alpha  occ. eigenvalues --   -1.25265  -1.15359  -1.07503  -0.85552  -0.81426
 Alpha  occ. eigenvalues --   -0.75670  -0.71558  -0.68627  -0.65499  -0.65025
 Alpha  occ. eigenvalues --   -0.63815  -0.62966  -0.62381  -0.62101  -0.60743
 Alpha  occ. eigenvalues --   -0.60482  -0.58622  -0.56190  -0.53471  -0.52284
 Alpha  occ. eigenvalues --   -0.51006  -0.50896  -0.50184  -0.49882  -0.49387
 Alpha  occ. eigenvalues --   -0.49034  -0.48580  -0.47866  -0.47377  -0.47170
 Alpha  occ. eigenvalues --   -0.46626  -0.46065  -0.45808  -0.45019  -0.44838
 Alpha  occ. eigenvalues --   -0.44405  -0.43739  -0.43010  -0.41717  -0.38456
 Alpha  occ. eigenvalues --   -0.37788  -0.36085  -0.36073
 Alpha virt. eigenvalues --   -0.03156  -0.02719   0.00493   0.03410   0.04678
 Alpha virt. eigenvalues --    0.05960   0.09782   0.13451   0.16426   0.17266
 Alpha virt. eigenvalues --    0.17543   0.19152   0.21607   0.22424   0.24087

 Mulliken charges:
               1
     1  C    0.469473
     2  C    0.533793
     3  C    0.331559
     4  F   -0.253202
     5  F   -0.245701
     6  S    1.024241
     7  O   -0.299721
     8  O   -0.294156
     9  F   -0.280387
    10  F   -0.270734
    11  F   -0.256257
    12  F   -0.260378
    13  F   -0.264442
    14  C    0.791001
    15  F   -0.242496
    16  F   -0.238588
    17  F   -0.244006
 Sum of Mulliken charges =  -0.00000

 Dipole moment (field-independent basis, Debye):
    X=              0.2734    Y=              0.1408    Z=              0.6225  Tot=              0.6943
 Quadrupole moment (field-independent basis, Debye-Ang):
   XX=            -95.7628   YY=            -96.0385   ZZ=            -96.5807
   XY=             -0.4306   XZ=             -1.4119   YZ=             -0.4341

 Summary of Natural Population Analysis:

                                       Natural Population
                Natural  -----------------------------------------------
    Atom  No    Charge         Core      Valence    Rydberg      Total
 -----------------------------------------------------------------------
      C    1    0.64323      1.99883     3.30434    0.05360     5.35677
      C    2    0.65660      1.99884     3.28661    0.05795     5.34340
      C    3    0.48105      1.99918     3.45226    0.06751     5.51895
      F    4   -0.35209      1.99993     7.34286    0.00930     9.35209
      F    5   -0.33175      1.99993     7.32251    0.00932     9.33175
      S    6    2.00517      9.99907     3.77937    0.21639    13.99483
      O    7   -0.62930      1.99989     6.60543    0.02398     8.62930
      O    8   -0.64185      1.99989     6.61812    0.02384     8.64185
      F    9   -0.51617      1.99997     7.50618    0.01001     9.51617
      F   10   -0.34446      1.99994     7.33618    0.00835     9.34446
      F   11   -0.33644      1.99993     7.32795    0.00856     9.33644
      F   12   -0.34000      1.99993     7.33134    0.00873     9.34000
      F   13   -0.34010      1.99993     7.33183    0.00833     9.34010
      C   14    1.07637      1.99927     2.84922    0.07513     4.92363
      F   15   -0.34615      1.99993     7.33890    0.00732     9.34615
      F   16   -0.34236      1.99993     7.33508    0.00735     9.34236
      F   17   -0.34176      1.99993     7.33463    0.00720     9.34176
 =======================================================================
   * Total *   -0.00000     41.99432   103.40282    0.60286   146.00000

 Normal termination of Gaussian 16 at Mon Aug 24 18:54:53 2020.
