 Gaussian 16, Revision A.03,

 ---------------------------------
 # opt=CalcAll B3LYP/6-31G* scf=qc
 ---------------------------------

 -------------------
 Title Card Required
 -------------------
 Symbolic Z-matrix:
 Charge =  0 Multiplicity = 1

 SCF Done:  E(RB3LYP) =  -919.352910282     a.u. after    8 cycles
 SCF Done:  E(RB3LYP) =  -919.373420148     a.u. after   15 cycles
 SCF Done:  E(RB3LYP) =  -919.377707726     a.u. after   15 cycles
 SCF Done:  E(RB3LYP) =  -919.380293498     a.u. after   17 cycles
 SCF Done:  E(RB3LYP) =  -919.380853633     a.u. after   15 cycles
 SCF Done:  E(RB3LYP) =  -919.380988383     a.u. after    5 cycles
 SCF Done:  E(RB3LYP) =  -919.380989711     a.u. after    3 cycles
 SCF Done:  E(RB3LYP) =  -919.380989863     a.u. after    2 cycles
 Optimization completed.
    -- Stationary point found.
 Normal termination of Gaussian 16 at Mon Aug 24 17:58:47 2020.

 ----------------------------------------------------------------------
 # freq B3LYP/6-31G* scf=qc volume NMR pop=NPA density=current Geom=All
 Check Guess=Read
 ----------------------------------------------------------------------

 Structure from the checkpoint file:  "sulfonylfluoride_6_conf122.chk"
 -------------------
 Title Card Required
 -------------------
 Charge =  0 Multiplicity = 1

 SCF Done:  E(RB3LYP) =  -919.380989863     a.u. after    1 cycles

      1  C    Isotropic =   126.7467   Anisotropy =    45.1930

      2  H    Isotropic =    28.2985   Anisotropy =     3.8308

      3  H    Isotropic =    28.1445   Anisotropy =     3.4919

      4  C    Isotropic =    69.8226   Anisotropy =   159.3640

      5  C    Isotropic =    64.3914   Anisotropy =   160.8319

      6  C    Isotropic =    67.4579   Anisotropy =   167.5280

      7  C    Isotropic =    66.5453   Anisotropy =   172.3573

      8  C    Isotropic =    67.7517   Anisotropy =   166.8092

      9  C    Isotropic =    65.0659   Anisotropy =   157.3754

     10  S    Isotropic =   199.7758   Anisotropy =   298.3324

     11  O    Isotropic =    87.8986   Anisotropy =    70.6273

     12  O    Isotropic =    91.3565   Anisotropy =    76.0651

     13  F    Isotropic =   122.4686   Anisotropy =   350.2472

     14  H    Isotropic =    24.8771   Anisotropy =     7.3749

     15  H    Isotropic =    24.8601   Anisotropy =     4.7396

     16  H    Isotropic =    24.8646   Anisotropy =     4.2723

     17  H    Isotropic =    24.9029   Anisotropy =     4.7481

     18  H    Isotropic =    24.9577   Anisotropy =     7.2692

  Exact polarizability: 119.448   0.016  93.574  17.024  -1.499  56.475
 Approx polarizability: 175.273  -2.223 167.040  35.938  -4.964  92.313

                      1                      2                      3
                      A                      A                      A
 Frequencies --     24.3896                61.2561                81.6876
 Red. masses --      5.4952                 5.9420                 7.0021
 Frc consts  --      0.0019                 0.0131                 0.0275
 IR Inten    --      0.1783                 1.2074                 1.7801

                      4                      5                      6
                      A                      A                      A
 Frequencies --    208.1867               241.0464               267.7555
 Red. masses --      6.4233                 8.3095                 8.9227
 Frc consts  --      0.1640                 0.2845                 0.3769
 IR Inten    --      1.7449                 0.1055                 1.0814

                      7                      8                      9
                      A                      A                      A
 Frequencies --    355.4866               410.0394               414.4243
 Red. masses --      1.9862                10.5699                 3.0782
 Frc consts  --      0.1479                 1.0471                 0.3115
 IR Inten    --      1.0487                 9.8461                 0.6943

                     10                     11                     12
                      A                      A                      A
 Frequencies --    440.7557               463.5939               532.8464
 Red. masses --      7.7524                 5.6474                 6.0086
 Frc consts  --      0.8873                 0.7151                 1.0051
 IR Inten    --     10.4269                 9.5311                76.5040

                     13                     14                     15
                      A                      A                      A
 Frequencies --    609.0684               634.8664               685.8995
 Red. masses --      5.5293                 6.2698                 6.9476
 Frc consts  --      1.2085                 1.4889                 1.9258
 IR Inten    --     20.6408                 0.0288                23.7652

                     16                     17                     18
                      A                      A                      A
 Frequencies --    709.7070               766.8741               810.6818
 Red. masses --      1.7165                 2.7439                 4.0935
 Frc consts  --      0.5094                 0.9508                 1.5851
 IR Inten    --     31.4157                27.1923               115.7908

                     19                     20                     21
                      A                      A                      A
 Frequencies --    835.9964               854.8020               917.5729
 Red. masses --      4.2073                 1.2555                 1.8007
 Frc consts  --      1.7324                 0.5405                 0.8933
 IR Inten    --      0.1168                 0.1121                10.3331

                     22                     23                     24
                      A                      A                      A
 Frequencies --    930.8973               967.7081              1001.8569
 Red. masses --      1.4456                 1.3570                 1.2745
 Frc consts  --      0.7381                 0.7487                 0.7537
 IR Inten    --      5.9093                 0.0413                 0.0341

                     25                     26                     27
                      A                      A                      A
 Frequencies --   1019.2505              1058.8874              1113.9349
 Red. masses --      6.1135                 2.2446                 1.5817
 Frc consts  --      3.7420                 1.4829                 1.1564
 IR Inten    --      1.0725                 1.6597                 4.2740

                     28                     29                     30
                      A                      A                      A
 Frequencies --   1162.5509              1195.6182              1197.6191
 Red. masses --      2.5834                 1.2616                 1.3695
 Frc consts  --      2.0571                 1.0626                 1.1574
 IR Inten    --    105.5448                26.0894                47.9700

                     31                     32                     33
                      A                      A                      A
 Frequencies --   1218.0350              1232.3744              1310.3359
 Red. masses --      1.1405                 2.6951                 1.5431
 Frc consts  --      0.9969                 2.4116                 1.5610
 IR Inten    --      0.1193                 7.0001                23.1037

                     34                     35                     36
                      A                      A                      A
 Frequencies --   1361.8991              1372.3036              1394.3444
 Red. masses --      5.1069                 1.3315                 9.3831
 Frc consts  --      5.5808                 1.4774                10.7482
 IR Inten    --      3.4579                 0.9648               180.8064

                     37                     38                     39
                      A                      A                      A
 Frequencies --   1485.1036              1504.5318              1547.7454
 Red. masses --      1.1093                 2.2135                 2.2169
 Frc consts  --      1.4415                 2.9521                 3.1289
 IR Inten    --      7.9182                 8.4261                 6.6738

                     40                     41                     42
                      A                      A                      A
 Frequencies --   1647.0313              1665.2785              3091.9152
 Red. masses --      5.5106                 5.5072                 1.0602
 Frc consts  --      8.8074                 8.9982                 5.9714
 IR Inten    --      0.5990                 0.0428                 3.6934

                     43                     44                     45
                      A                      A                      A
 Frequencies --   3151.4932              3186.1509              3190.6157
 Red. masses --      1.1063                 1.0858                 1.0878
 Frc consts  --      6.4736                 6.4945                 6.5247
 IR Inten    --      0.0976                 2.4047                 0.4842

                     46                     47                     48
                      A                      A                      A
 Frequencies --   3198.0865              3207.2239              3215.9447
 Red. masses --      1.0911                 1.0945                 1.0981
 Frc consts  --      6.5751                 6.6334                 6.6916
 IR Inten    --     11.4597                26.4268                12.7351

 - Thermochemistry -
 -------------------
 Temperature   298.150 Kelvin.  Pressure   1.00000 Atm.
 Atom     1 has atomic number  6 and mass  12.00000

 Molecular mass:   174.01508 amu.
 Principal axes and moments of inertia in atomic units:
                           1         2         3
     Eigenvalues --   768.768603094.268103355.38064
           X            0.99992   0.00285   0.01209
           Y           -0.00268   0.99990  -0.01386
           Z           -0.01212   0.01382   0.99983
 This molecule is an asymmetric top.
 Rotational symmetry number  1.
 Warning -- assumption of classical behavior for rotation
           may cause significant error
 Rotational temperatures (Kelvin)      0.11267     0.02799     0.02581
 Rotational constants (GHZ):           2.34757     0.58325     0.53786
 Zero-point vibrational energy     346651.9 (Joules/Mol)
                                   82.85179 (Kcal/Mol)
 Warning -- explicit consideration of  13 degrees of freedom as
           vibrations may cause significant error
 Vibrational temperatures:     35.09    88.13   117.53   299.53   346.81
          (Kelvin)            385.24   511.47   589.96   596.26   634.15
                              667.01   766.65   876.31   913.43   986.86
                             1021.11  1103.36  1166.39  1202.81  1229.87
                             1320.18  1339.35  1392.32  1441.45  1466.47
                             1523.50  1602.70  1672.65  1720.23  1723.11
                             1752.48  1773.11  1885.28  1959.47  1974.44
                             2006.15  2136.73  2164.69  2226.86  2369.71
                             2395.96  4448.58  4534.30  4584.16  4590.58
                             4601.33  4614.48  4627.03

 Zero-point correction=                           0.132033 (Hartree/Particle)
 Thermal correction to Energy=                    0.141745
 Thermal correction to Enthalpy=                  0.142689
 Thermal correction to Gibbs Free Energy=         0.095092
 Sum of electronic and zero-point Energies=           -919.248957
 Sum of electronic and thermal Energies=              -919.239245
 Sum of electronic and thermal Enthalpies=            -919.238301
 Sum of electronic and thermal Free Energies=         -919.285898

                     E (Thermal)             CV                S
                      KCal/Mol        Cal/Mol-Kelvin    Cal/Mol-Kelvin
 Total                   88.946             36.176            100.177
 Electronic               0.000              0.000              0.000
 Translational            0.889              2.981             41.369
 Rotational               0.889              2.981             30.457
 Vibrational             87.169             30.215             28.350
 Vibration     1          0.593              1.985              6.240
 Vibration     2          0.597              1.973              4.416
 Vibration     3          0.600              1.962              3.850
 Vibration     4          0.641              1.828              2.060
 Vibration     5          0.658              1.778              1.795
 Vibration     6          0.673              1.732              1.611
 Vibration     7          0.731              1.564              1.142
 Vibration     8          0.774              1.448              0.926
 Vibration     9          0.778              1.439              0.911
 Vibration    10          0.801              1.381              0.824
 Vibration    11          0.821              1.331              0.756
 Vibration    12          0.888              1.177              0.581
 Vibration    13          0.968              1.013              0.434

 Optimization completed.
    -- Stationary point found.
 Normal termination of Gaussian 16 at Mon Aug 24 18:01:47 2020.
 Gaussian 16:  ES64L-G16RevA.03 25-Dec-2016

 ----------------------------------------------------------------------
 # TD(NStates=10, Root=1) B3LYP/6-31G* scf=qc volume pop=NPA density=cu
 rrent Geom=AllCheck Guess=Read
 ----------------------------------------------------------------------

 Structure from the checkpoint file:  "sulfonylfluoride_6_conf123.chk"
 -------------------
 Title Card Required
 -------------------
 Charge =  0 Multiplicity = 1

                         Standard orientation:
 ---------------------------------------------------------------------
 Center     Atomic      Atomic             Coordinates (Angstroms)
 Number     Number       Type             X           Y           Z
 ---------------------------------------------------------------------
      1          6           0       -0.601860    0.000599   -1.169082
      2          1           0       -0.804477   -0.858559   -1.816538
      3          1           0       -0.844365    0.911950   -1.721742
      4          6           0        0.797894   -0.002365   -0.622444
      5          6           0        1.455874   -1.211319   -0.363564
      6          6           0        2.752819   -1.210988    0.147530
      7          6           0        3.401943   -0.002654    0.408407
      8          6           0        2.749083    1.205988    0.159176
      9          6           0        1.451478    1.206131   -0.350615
     10         16           0       -1.901126   -0.124664    0.103626
     11          8           0       -3.201744    0.068165   -0.512832
     12          8           0       -1.636142   -1.216928    1.020865
     13          9           0       -1.564885    1.248003    0.905327
     14          1           0        0.949812   -2.153035   -0.558621
     15          1           0        3.255529   -2.154018    0.342295
     16          1           0        4.413586   -0.002955    0.804624
     17          1           0        3.249057    2.148877    0.361786
     18          1           0        0.942524    2.148085   -0.538471
 ---------------------------------------------------------------------

 SCF Done:  E(RB3LYP) =  -919.380989863     a.u. after    1 cycles

 Excitation energies and oscillator strengths:

 Excited State   1:      Singlet-A      5.3283 eV  232.69 nm  f=0.0032  <S**2>=0.000
      44 -> 46         0.54255
      45 -> 47        -0.44965
 This state for optimization and/or second-order correction.
 Total Energy, E(TD-HF/TD-DFT) =  -919.185178628
 Copying the excited state density for this state as the 1-particle RhoCI density.

 Excited State   2:      Singlet-A      5.9304 eV  209.07 nm  f=0.1280  <S**2>=0.000
      44 -> 47         0.32321
      45 -> 46         0.62374

 Excited State   3:      Singlet-A      6.7078 eV  184.84 nm  f=0.0811  <S**2>=0.000
      44 -> 46        -0.25135
      44 -> 47         0.12970
      44 -> 48         0.11351
      45 -> 47        -0.33172
      45 -> 48         0.53247

 Excited State   4:      Singlet-A      6.8024 eV  182.26 nm  f=0.2690  <S**2>=0.000
      43 -> 46        -0.10991
      44 -> 46         0.20145
      44 -> 47         0.39272
      44 -> 48        -0.38763
      45 -> 46        -0.19470
      45 -> 47         0.21273
      45 -> 48         0.20972

 Excited State   5:      Singlet-A      6.9992 eV  177.14 nm  f=0.4558  <S**2>=0.000
      41 -> 46         0.13612
      44 -> 46        -0.21736
      44 -> 47         0.39248
      45 -> 46        -0.21155
      45 -> 47        -0.24031
      45 -> 48        -0.38442

 Excited State   6:      Singlet-A      7.0406 eV  176.10 nm  f=0.0154  <S**2>=0.000
      43 -> 46         0.59104
      44 -> 48        -0.34793

 Excited State   7:      Singlet-A      7.1020 eV  174.58 nm  f=0.1742  <S**2>=0.000
      43 -> 46         0.33991
      44 -> 46         0.19536
      44 -> 47         0.18104
      44 -> 48         0.45275
      45 -> 47         0.24279
      45 -> 48         0.10287

 Excited State   8:      Singlet-A      7.4415 eV  166.61 nm  f=0.0035  <S**2>=0.000
      40 -> 46        -0.19090
      41 -> 46        -0.18883
      42 -> 46         0.62097

 Excited State   9:      Singlet-A      7.5359 eV  164.53 nm  f=0.0107  <S**2>=0.000
      39 -> 46        -0.14889
      40 -> 46         0.50067
      41 -> 46         0.35964
      42 -> 46         0.23902

 Excited State  10:      Singlet-A      7.5519 eV  164.18 nm  f=0.0048  <S**2>=0.000
      41 -> 46         0.10577
      42 -> 48         0.12288
      43 -> 47         0.53034
      43 -> 48        -0.39575

 The electronic state is 1-A.
 Alpha  occ. eigenvalues --  -89.15015 -24.73461 -19.17472 -19.17408 -10.25784
 Alpha  occ. eigenvalues --  -10.22473 -10.21079 -10.20996 -10.20798 -10.20719
 Alpha  occ. eigenvalues --  -10.20676  -8.17415  -6.14101  -6.13749  -6.13610
 Alpha  occ. eigenvalues --   -1.24627  -1.11393  -1.03329  -0.87932  -0.81850
 Alpha  occ. eigenvalues --   -0.76281  -0.74207  -0.65644  -0.62549  -0.60950
 Alpha  occ. eigenvalues --   -0.55396  -0.53035  -0.52238  -0.50208  -0.48757
 Alpha  occ. eigenvalues --   -0.47718  -0.44360  -0.44133  -0.43562  -0.43273
 Alpha  occ. eigenvalues --   -0.42713  -0.38477  -0.37945  -0.36985  -0.36019
 Alpha  occ. eigenvalues --   -0.34127  -0.33955  -0.32360  -0.26732  -0.26482
 Alpha virt. eigenvalues --   -0.03340  -0.01860   0.01491   0.05226   0.07062
 Alpha virt. eigenvalues --    0.09561   0.09899   0.10427   0.12276   0.14491
 Alpha virt. eigenvalues --    0.14792   0.16387   0.17277   0.18168   0.22856

 Mulliken charges:
               1
     1  C   -0.598233
     2  H    0.216905
     3  H    0.218910
     4  C    0.161604
     5  C   -0.151885
     6  C   -0.128246
     7  C   -0.131872
     8  C   -0.127638
     9  C   -0.158820
    10  S    1.214113
    11  O   -0.477254
    12  O   -0.473994
    13  F   -0.313491
    14  H    0.154567
    15  H    0.151163
    16  H    0.143695
    17  H    0.150244
    18  H    0.150232
 Sum of Mulliken charges =  -0.00000

 Dipole moment (field-independent basis, Debye):
    X=              4.5543    Y=              0.5978    Z=             -2.0750  Tot=              5.0403
 Quadrupole moment (field-independent basis, Debye-Ang):
   XX=            -74.5065   YY=            -65.2593   ZZ=            -70.3706
   XY=             -0.9681   XZ=              3.4027   YZ=              1.6827

 Summary of Natural Population Analysis:

                                       Natural Population
                Natural  -----------------------------------------------
    Atom  No    Charge         Core      Valence    Rydberg      Total
 -----------------------------------------------------------------------
      C    1   -0.71807      1.99916     4.69902    0.01989     6.71807
      H    2    0.27778      0.00000     0.72015    0.00207     0.72222
      H    3    0.27918      0.00000     0.71872    0.00210     0.72082
      C    4   -0.07840      1.99905     4.05943    0.01991     6.07840
      C    5   -0.18774      1.99907     4.17098    0.01770     6.18774
      C    6   -0.19683      1.99915     4.17995    0.01774     6.19683
      C    7   -0.24666      1.99915     4.23008    0.01743     6.24666
      C    8   -0.19763      1.99914     4.18073    0.01776     6.19763
      C    9   -0.19181      1.99907     4.17495    0.01780     6.19181
      S   10    2.37790      9.99891     3.42032    0.20287    13.62210
      O   11   -0.89902      1.99989     6.87574    0.02339     8.89902
      O   12   -0.89758      1.99988     6.87391    0.02379     8.89758
      F   13   -0.51014      1.99997     7.50103    0.00914     9.51014
      H   14    0.23936      0.00000     0.75945    0.00118     0.76064
      H   15    0.23827      0.00000     0.76089    0.00084     0.76173
      H   16    0.23701      0.00000     0.76218    0.00080     0.76299
      H   17    0.23782      0.00000     0.76133    0.00084     0.76218
      H   18    0.23656      0.00000     0.76223    0.00121     0.76344
 =======================================================================
   * Total *   -0.00000     29.99243    59.61111    0.39645    90.00000

 Normal termination of Gaussian 16 at Mon Aug 24 18:05:53 2020.
