 Gaussian 16, Revision A.03,

 ---------------------------------
 # opt=CalcAll B3LYP/6-31G* scf=qc
 ---------------------------------

 -------------------
 Title Card Required
 -------------------
 Symbolic Z-matrix:
 Charge =  0 Multiplicity = 1

 SCF Done:  E(RB3LYP) =  -919.375241298     a.u. after    9 cycles
 SCF Done:  E(RB3LYP) =  -919.382059301     a.u. after   15 cycles
 SCF Done:  E(RB3LYP) =  -919.383185925     a.u. after   15 cycles
 SCF Done:  E(RB3LYP) =  -919.383268291     a.u. after    9 cycles
 SCF Done:  E(RB3LYP) =  -919.383158327     a.u. after   13 cycles
 SCF Done:  E(RB3LYP) =  -919.383270947     a.u. after   11 cycles
 SCF Done:  E(RB3LYP) =  -919.383172760     a.u. after   13 cycles
 SCF Done:  E(RB3LYP) =  -919.383248442     a.u. after    6 cycles
 SCF Done:  E(RB3LYP) =  -919.383273449     a.u. after   11 cycles
 SCF Done:  E(RB3LYP) =  -919.383198436     a.u. after   13 cycles
 SCF Done:  E(RB3LYP) =  -919.383166499     a.u. after    9 cycles
 SCF Done:  E(RB3LYP) =  -919.383266869     a.u. after    6 cycles
 SCF Done:  E(RB3LYP) =  -919.383255983     a.u. after   13 cycles
 SCF Done:  E(RB3LYP) =  -919.383285504     a.u. after    6 cycles
 SCF Done:  E(RB3LYP) =  -919.383289139     a.u. after    7 cycles
 SCF Done:  E(RB3LYP) =  -919.383290142     a.u. after    5 cycles
 SCF Done:  E(RB3LYP) =  -919.383290247     a.u. after    3 cycles
 SCF Done:  E(RB3LYP) =  -919.383290281     a.u. after    2 cycles
 Optimization completed on the basis of negligible forces.
    -- Stationary point found.
 Normal termination of Gaussian 16 at Mon Aug 24 19:14:34 2020.

 ----------------------------------------------------------------------
 # freq B3LYP/6-31G* scf=qc volume NMR pop=NPA density=current Geom=All
 Check Guess=Read
 ----------------------------------------------------------------------

 Structure from the checkpoint file:  "sulfonylfluoride_9_conf52.chk"
 -------------------
 Title Card Required
 -------------------
 Charge =  0 Multiplicity = 1

 SCF Done:  E(RB3LYP) =  -919.383290281     a.u. after    1 cycles

      1  C    Isotropic =    58.2420   Anisotropy =   108.4855

      2  C    Isotropic =    67.7382   Anisotropy =   167.8190

      3  C    Isotropic =    66.7492   Anisotropy =   152.2712

      4  C    Isotropic =    50.3701   Anisotropy =   192.7250

      5  C    Isotropic =    66.7468   Anisotropy =   152.2140

      6  C    Isotropic =    67.7362   Anisotropy =   167.8197

      7  C    Isotropic =   167.5017   Anisotropy =    34.6988

      8  S    Isotropic =   211.5357   Anisotropy =   315.7086

      9  O    Isotropic =   106.3880   Anisotropy =    74.6944

     10  O    Isotropic =   106.3842   Anisotropy =    74.6924

     11  F    Isotropic =    97.6546   Anisotropy =   365.4628

     12  H    Isotropic =    24.4863   Anisotropy =     7.7426

     13  H    Isotropic =    24.9620   Anisotropy =     6.6629

     14  H    Isotropic =    24.9627   Anisotropy =     6.6598

     15  H    Isotropic =    24.4867   Anisotropy =     7.7424

     16  H    Isotropic =    29.6598   Anisotropy =     8.1595

     17  H    Isotropic =    29.9913   Anisotropy =     7.3537

     18  H    Isotropic =    29.9948   Anisotropy =     7.3503

  Exact polarizability: 131.432   0.004  95.463   2.585  -0.000  48.996
 Approx polarizability: 184.800   0.009 176.227   5.034  -0.001  78.156

                      1                      2                      3
                      A                      A                      A
 Frequencies --     26.4820                43.4655                84.0465
 Red. masses --      1.1036                 4.0866                 5.3776
 Frc consts  --      0.0005                 0.0045                 0.0224
 IR Inten    --      0.3519                 0.0004                 0.3318

                      4                      5                      6
                      A                      A                      A
 Frequencies --    164.2341               195.5889               284.3290
 Red. masses --      6.3773                 5.7115                 8.2687
 Frc consts  --      0.1013                 0.1287                 0.3938
 IR Inten    --      1.2838                 0.8243                 3.1109

                      7                      8                      9
                      A                      A                      A
 Frequencies --    308.7654               342.1284               370.5039
 Red. masses --      5.4274                 5.8000                 3.8594
 Frc consts  --      0.3049                 0.4000                 0.3121
 IR Inten    --      0.0625                 3.8333                 2.6718

                     10                     11                     12
                      A                      A                      A
 Frequencies --    415.9191               456.7845               472.8928
 Red. masses --      3.0052                 6.4883                 9.3530
 Frc consts  --      0.3063                 0.7976                 1.2323
 IR Inten    --      0.0036                 1.0918                 6.4389

                     13                     14                     15
                      A                      A                      A
 Frequencies --    522.5546               546.9129               647.1546
 Red. masses --      4.0395                 8.7916                 6.9536
 Frc consts  --      0.6499                 1.5494                 1.7158
 IR Inten    --     17.3276                81.0229                 0.0369

                     16                     17                     18
                      A                      A                      A
 Frequencies --    656.6959               705.9785               778.2549
 Red. masses --      7.0803                 3.8827                10.6703
 Frc consts  --      1.7990                 1.1402                 3.8078
 IR Inten    --     67.9830                 7.6702               211.1972

                     19                     20                     21
                      A                      A                      A
 Frequencies --    824.3089               829.5444               856.4719
 Red. masses --      5.2305                 1.3925                 1.2446
 Frc consts  --      2.0940                 0.5646                 0.5379
 IR Inten    --     48.2725                25.1277                 0.0520

                     22                     23                     24
                      A                      A                      A
 Frequencies --    975.3967               979.5209              1022.8342
 Red. masses --      1.2437                 1.3474                 1.3987
 Frc consts  --      0.6971                 0.7617                 0.8621
 IR Inten    --      0.4873                 0.0232                 0.0011

                     25                     26                     27
                      A                      A                      A
 Frequencies --   1034.2120              1075.3805              1104.1513
 Red. masses --      3.7566                 1.5635                 3.4751
 Frc consts  --      2.3674                 1.0653                 2.4962
 IR Inten    --      3.1276                15.5417                17.5084

                     28                     29                     30
                      A                      A                      A
 Frequencies --   1151.4839              1181.7837              1220.7042
 Red. masses --      1.3058                10.1376                 1.1988
 Frc consts  --      1.0201                 8.3418                 1.0524
 IR Inten    --      5.3423               242.0750                 0.6152

                     31                     32                     33
                      A                      A                      A
 Frequencies --   1239.1566              1343.2116              1354.4238
 Red. masses --      3.0634                 1.2975                 8.8284
 Frc consts  --      2.7715                 1.3793                 9.5421
 IR Inten    --      0.9907                 3.5428                21.1080

                     34                     35                     36
                      A                      A                      A
 Frequencies --   1388.0936              1443.1447              1448.9133
 Red. masses --     16.0561                 1.2384                 2.5771
 Frc consts  --     18.2275                 1.5197                 3.1876
 IR Inten    --    146.8379                 0.5920                14.4617

                     37                     38                     39
                      A                      A                      A
 Frequencies --   1517.6056              1518.3191              1542.1731
 Red. masses --      1.0527                 1.1035                 2.2695
 Frc consts  --      1.4284                 1.4988                 3.1801
 IR Inten    --      6.6582                15.6402                 5.2793

                     40                     41                     42
                      A                      A                      A
 Frequencies --   1630.9219              1655.9707              3047.5722
 Red. masses --      5.9741                 5.5443                 1.0409
 Frc consts  --      9.3624                 8.9578                 5.6958
 IR Inten    --      1.3264                28.7926                16.3275

                     43                     44                     45
                      A                      A                      A
 Frequencies --   3107.4249              3135.0177              3194.7593
 Red. masses --      1.0952                 1.1033                 1.0896
 Frc consts  --      6.2310                 6.3889                 6.5525
 IR Inten    --     15.4648                12.0687                12.7856

                     46                     47                     48
                      A                      A                      A
 Frequencies --   3195.4558              3231.6930              3232.1059
 Red. masses --      1.0900                 1.0926                 1.0936
 Frc consts  --      6.5573                 6.7228                 6.7312
 IR Inten    --      6.7748                 0.2553                 1.6546

 - Thermochemistry -
 -------------------
 Temperature   298.150 Kelvin.  Pressure   1.00000 Atm.
 Atom     1 has atomic number  6 and mass  12.00000

 Molecular mass:   174.01508 amu.
 Principal axes and moments of inertia in atomic units:
                           1         2         3
     Eigenvalues --   707.535653259.273523570.23335
           X            0.99999   0.00000   0.00448
           Y           -0.00000   1.00000  -0.00000
           Z           -0.00448   0.00000   0.99999
 This molecule is an asymmetric top.
 Rotational symmetry number  1.
 Warning -- assumption of classical behavior for rotation
           may cause significant error
 Rotational temperatures (Kelvin)      0.12242     0.02657     0.02426
 Rotational constants (GHZ):           2.55074     0.55372     0.50550
 Zero-point vibrational energy     343953.0 (Joules/Mol)
                                   82.20673 (Kcal/Mol)
 Warning -- explicit consideration of  14 degrees of freedom as
           vibrations may cause significant error
 Vibrational temperatures:     38.10    62.54   120.92   236.30   281.41
          (Kelvin)            409.09   444.24   492.25   533.07   598.41
                              657.21   680.39   751.84   786.89   931.11
                              944.84  1015.75  1119.74  1186.00  1193.53
                             1232.27  1403.38  1409.31  1471.63  1488.00
                             1547.23  1588.63  1656.73  1700.32  1756.32
                             1782.87  1932.58  1948.71  1997.16  2076.36
                             2084.66  2183.50  2184.52  2218.84  2346.53
                             2382.57  4384.78  4470.89  4510.59  4596.55
                             4597.55  4649.69  4650.28

 Zero-point correction=                           0.131005 (Hartree/Particle)
 Thermal correction to Energy=                    0.141270
 Thermal correction to Enthalpy=                  0.142214
 Thermal correction to Gibbs Free Energy=         0.093358
 Sum of electronic and zero-point Energies=           -919.252286
 Sum of electronic and thermal Energies=              -919.242020
 Sum of electronic and thermal Enthalpies=            -919.241076
 Sum of electronic and thermal Free Energies=         -919.289933

                     E (Thermal)             CV                S
                      KCal/Mol        Cal/Mol-Kelvin    Cal/Mol-Kelvin
 Total                   88.648             37.415            102.828
 Electronic               0.000              0.000              0.000
 Translational            0.889              2.981             41.369
 Rotational               0.889              2.981             30.488
 Vibrational             86.871             31.453             30.970
 Vibration     1          0.593              1.985              6.077
 Vibration     2          0.595              1.980              5.095
 Vibration     3          0.601              1.960              3.794
 Vibration     4          0.623              1.886              2.500
 Vibration     5          0.636              1.846              2.174
 Vibration     6          0.683              1.703              1.507
 Vibration     7          0.698              1.657              1.369
 Vibration     8          0.721              1.591              1.202
 Vibration     9          0.743              1.533              1.078
 Vibration    10          0.779              1.436              0.906
 Vibration    11          0.815              1.346              0.776
 Vibration    12          0.830              1.310              0.729
 Vibration    13          0.878              1.200              0.604
 Vibration    14          0.902              1.146              0.551

 Optimization completed on the basis of negligible forces.
    -- Stationary point found.
 Normal termination of Gaussian 16 at Mon Aug 24 19:17:36 2020.
 Gaussian 16:  ES64L-G16RevA.03 25-Dec-2016

 ----------------------------------------------------------------------
 # TD(NStates=10, Root=1) B3LYP/6-31G* scf=qc volume pop=NPA density=cu
 rrent Geom=AllCheck Guess=Read
 ----------------------------------------------------------------------

 Structure from the checkpoint file:  "sulfonylfluoride_9_conf53.chk"
 -------------------
 Title Card Required
 -------------------
 Charge =  0 Multiplicity = 1

                         Standard orientation:
 ---------------------------------------------------------------------
 Center     Atomic      Atomic             Coordinates (Angstroms)
 Number     Number       Type             X           Y           Z
 ---------------------------------------------------------------------
      1          6           0        0.130382    0.000016    0.077479
      2          6           0       -0.551136   -1.218419    0.056345
      3          6           0       -1.942302   -1.206140    0.007519
      4          6           0       -2.658297    0.000034   -0.016732
      5          6           0       -1.942297    1.206181    0.007519
      6          6           0       -0.551112    1.218444    0.056341
      7          6           0       -4.167476   -0.000020   -0.037112
      8         16           0        1.902498    0.000004    0.131335
      9          8           0        2.389997    1.272861    0.630350
     10          8           0        2.389970   -1.272797    0.630521
     11          9           0        2.230107   -0.000109   -1.460685
     12          1           0        0.000460   -2.151867    0.085460
     13          1           0       -2.481929   -2.149418   -0.009515
     14          1           0       -2.481912    2.149463   -0.009511
     15          1           0        0.000491    2.151889    0.085446
     16          1           0       -4.571043   -0.002197    0.984021
     17          1           0       -4.561585   -0.885968   -0.544930
     18          1           0       -4.561726    0.887930   -0.541281
 ---------------------------------------------------------------------

 SCF Done:  E(RB3LYP) =  -919.383290281     a.u. after    1 cycles

 Excitation energies and oscillator strengths:

 Excited State   1:      Singlet-A      5.2288 eV  237.12 nm  f=0.0069  <S**2>=0.000
      44 -> 46         0.56920
      45 -> 47         0.41697
 This state for optimization and/or second-order correction.
 Total Energy, E(TD-HF/TD-DFT) =  -919.191134741
 Copying the excited state density for this state as the 1-particle RhoCI density.

 Excited State   2:      Singlet-A      5.6842 eV  218.12 nm  f=0.2166  <S**2>=0.000
      44 -> 47        -0.25178
      45 -> 46         0.65623

 Excited State   3:      Singlet-A      6.3112 eV  196.45 nm  f=0.0018  <S**2>=0.000
      42 -> 46        -0.20853
      43 -> 46         0.66674

 Excited State   4:      Singlet-A      6.6231 eV  187.20 nm  f=0.0124  <S**2>=0.000
      41 -> 46         0.68333
      44 -> 47         0.14518

 Excited State   5:      Singlet-A      6.6681 eV  185.94 nm  f=0.1346  <S**2>=0.000
      42 -> 46        -0.33798
      44 -> 46        -0.35132
      44 -> 48         0.12771
      45 -> 47         0.47288

 Excited State   6:      Singlet-A      6.7986 eV  182.37 nm  f=0.1025  <S**2>=0.000
      42 -> 46         0.57499
      43 -> 46         0.18748
      44 -> 46        -0.19568
      45 -> 47         0.26884

 Excited State   7:      Singlet-A      6.9381 eV  178.70 nm  f=0.5709  <S**2>=0.000
      41 -> 46        -0.12626
      44 -> 47         0.61653
      45 -> 46         0.23164
      45 -> 48        -0.18423

 Excited State   8:      Singlet-A      7.1335 eV  173.81 nm  f=0.0006  <S**2>=0.000
      43 -> 47         0.70407

 Excited State   9:      Singlet-A      7.3058 eV  169.71 nm  f=0.0003  <S**2>=0.000
      40 -> 46         0.64749
      41 -> 47         0.25847

 Excited State  10:      Singlet-A      7.3811 eV  167.97 nm  f=0.0025  <S**2>=0.000
      40 -> 46        -0.26844
      41 -> 47         0.63095
      44 -> 48        -0.12474

 The electronic state is 1-A.
 Alpha  occ. eigenvalues --  -89.15084 -24.72798 -19.17108 -19.17108 -10.24727
 Alpha  occ. eigenvalues --  -10.23312 -10.22917 -10.22916 -10.21910 -10.21909
 Alpha  occ. eigenvalues --  -10.20734  -8.17377  -6.14057  -6.13727  -6.13605
 Alpha  occ. eigenvalues --   -1.24102  -1.11082  -1.03149  -0.89375  -0.81518
 Alpha  occ. eigenvalues --   -0.77908  -0.73661  -0.67157  -0.64181  -0.60922
 Alpha  occ. eigenvalues --   -0.57119  -0.52572  -0.50475  -0.49387  -0.48226
 Alpha  occ. eigenvalues --   -0.47163  -0.45419  -0.44462  -0.43316  -0.43307
 Alpha  occ. eigenvalues --   -0.41146  -0.39507  -0.38508  -0.37356  -0.37245
 Alpha  occ. eigenvalues --   -0.33884  -0.33795  -0.32169  -0.28268  -0.27824
 Alpha virt. eigenvalues --   -0.05654  -0.03227   0.02715   0.05869   0.08484
 Alpha virt. eigenvalues --    0.10584   0.10705   0.11675   0.12677   0.13059
 Alpha virt. eigenvalues --    0.15302   0.15742   0.18197   0.18533   0.20524

 Mulliken charges:
               1
     1  C   -0.157734
     2  C   -0.132450
     3  C   -0.166582
     4  C    0.167890
     5  C   -0.166595
     6  C   -0.132470
     7  C   -0.529200
     8  S    1.180721
     9  O   -0.485583
    10  O   -0.485585
    11  F   -0.305715
    12  H    0.196362
    13  H    0.156149
    14  H    0.156153
    15  H    0.196354
    16  H    0.176512
    17  H    0.165902
    18  H    0.165870
 Sum of Mulliken charges =  -0.00000

 Dipole moment (field-independent basis, Debye):
    X=             -6.4826    Y=             -0.0003    Z=             -0.6270  Tot=              6.5128
 Quadrupole moment (field-independent basis, Debye-Ang):
   XX=            -71.3625   YY=            -66.3749   ZZ=            -72.6294
   XY=              0.0004   XZ=             -2.2412   YZ=              0.0002

 Summary of Natural Population Analysis:

                                       Natural Population
                Natural  -----------------------------------------------
    Atom  No    Charge         Core      Valence    Rydberg      Total
 -----------------------------------------------------------------------
      C    1   -0.36253      1.99873     4.33568    0.02812     6.36253
      C    2   -0.17693      1.99904     4.15755    0.02034     6.17693
      C    3   -0.17747      1.99907     4.16203    0.01637     6.17747
      C    4   -0.05005      1.99910     4.03509    0.01586     6.05005
      C    5   -0.17739      1.99907     4.16196    0.01637     6.17739
      C    6   -0.17702      1.99904     4.15763    0.02034     6.17702
      C    7   -0.69459      1.99940     4.68727    0.00792     6.69459
      S    8    2.39282      9.99870     3.40473    0.20376    13.60718
      O    9   -0.90641      1.99988     6.88360    0.02292     8.90641
      O   10   -0.90641      1.99988     6.88360    0.02292     8.90641
      F   11   -0.51315      1.99997     7.50379    0.00939     9.51315
      H   12    0.26496      0.00000     0.73375    0.00129     0.73504
      H   13    0.24076      0.00000     0.75829    0.00095     0.75924
      H   14    0.24076      0.00000     0.75829    0.00095     0.75924
      H   15    0.26497      0.00000     0.73374    0.00129     0.73503
      H   16    0.24974      0.00000     0.74849    0.00177     0.75026
      H   17    0.24399      0.00000     0.75485    0.00117     0.75601
      H   18    0.24396      0.00000     0.75488    0.00116     0.75604
 =======================================================================
   * Total *   -0.00000     29.99187    59.61522    0.39290    90.00000

 Normal termination of Gaussian 16 at Mon Aug 24 19:21:45 2020.
