 Gaussian 16, Revision A.03,

 ---------------------------------
 # opt=CalcAll B3LYP/6-31G* scf=qc
 ---------------------------------

 -------------------
 Title Card Required
 -------------------
 Symbolic Z-matrix:
 Charge =  0 Multiplicity = 1

 SCF Done:  E(RB3LYP) =  -896.089039570     a.u. after    8 cycles
 SCF Done:  E(RB3LYP) =  -896.094492295     a.u. after   13 cycles
 SCF Done:  E(RB3LYP) =  -896.095515488     a.u. after   15 cycles
 SCF Done:  E(RB3LYP) =  -896.095667576     a.u. after   13 cycles
 SCF Done:  E(RB3LYP) =  -896.095675720     a.u. after    4 cycles
 SCF Done:  E(RB3LYP) =  -896.095676162     a.u. after    2 cycles
 Optimization completed.
    -- Stationary point found.
 Normal termination of Gaussian 16 at Mon Aug 24 17:21:47 2020.

 ----------------------------------------------------------------------
 # freq B3LYP/6-31G* scf=qc volume NMR pop=NPA density=current Geom=All
 Check Guess=Read
 ----------------------------------------------------------------------

 Structure from the checkpoint file:  "sulfonylfluoride_3_conf102.chk"
 -------------------
 Title Card Required
 -------------------
 Charge =  0 Multiplicity = 1

 SCF Done:  E(RB3LYP) =  -896.095676162     a.u. after    1 cycles

      1  C    Isotropic =    59.4462   Anisotropy =   186.4636

      2  C    Isotropic =    68.7968   Anisotropy =   169.5513

      3  C    Isotropic =    46.3337   Anisotropy =   158.2630

      4  N    Isotropic =   -54.4656   Anisotropy =   516.7498

      5  C    Isotropic =    36.9792   Anisotropy =   102.9630

      6  C    Isotropic =    72.2045   Anisotropy =   166.2711

      7  S    Isotropic =   218.1830   Anisotropy =   333.1262

      8  O    Isotropic =   111.1419   Anisotropy =    72.1945

      9  O    Isotropic =    98.0485   Anisotropy =    68.9855

     10  F    Isotropic =   110.9662   Anisotropy =   355.5158

     11  H    Isotropic =    24.5090   Anisotropy =     4.9473

     12  H    Isotropic =    24.9260   Anisotropy =     4.8203

     13  H    Isotropic =    23.4903   Anisotropy =     5.2436

     14  H    Isotropic =    24.4344   Anisotropy =     8.2966

  Exact polarizability: 103.117   1.628  81.434   2.572  -1.442  39.811
 Approx polarizability: 152.786   1.384 154.164   4.852  -5.073  66.591

                      1                      2                      3
                      A                      A                      A
 Frequencies --     40.0246               114.3664               176.0218
 Red. masses --      6.7434                 7.1525                 8.2368
 Frc consts  --      0.0064                 0.0551                 0.1504
 IR Inten    --      0.8699                 0.0735                 0.3550

                      4                      5                      6
                      A                      A                      A
 Frequencies --    264.9289               298.2166               333.3410
 Red. masses --      7.2508                 9.3252                10.8033
 Frc consts  --      0.2998                 0.4886                 0.7073
 IR Inten    --      1.2686                 4.0707                 0.4090

                      7                      8                      9
                      A                      A                      A
 Frequencies --    411.0193               435.8828               468.2268
 Red. masses --      3.6163                 8.1189                13.5169
 Frc consts  --      0.3599                 0.9088                 1.7460
 IR Inten    --      0.5383                 9.9121                10.2103

                     10                     11                     12
                      A                      A                      A
 Frequencies --    523.5132               581.6700               625.1966
 Red. masses --      4.3522                15.9967                 7.4237
 Frc consts  --      0.7028                 3.1888                 1.7096
 IR Inten    --     10.3714               131.7095                 4.6392

                     13                     14                     15
                      A                      A                      A
 Frequencies --    735.5217               747.3242               786.7859
 Red. masses --      8.1407                 3.9145                 1.6018
 Frc consts  --      2.5948                 1.2881                 0.5842
 IR Inten    --     25.0695                 3.6176               116.1786

                     16                     17                     18
                      A                      A                      A
 Frequencies --    805.7599               925.2728               987.0459
 Red. masses --      5.5446                 1.2615                 1.4023
 Frc consts  --      2.1209                 0.6363                 0.8049
 IR Inten    --    117.7796                 0.2755                 0.1402

                     19                     20                     21
                      A                      A                      A
 Frequencies --   1009.1211              1020.8023              1067.8809
 Red. masses --      7.3336                 1.3112                 2.7602
 Frc consts  --      4.4000                 0.8050                 1.8546
 IR Inten    --      9.0685                 0.0387                 3.3932

                     22                     23                     24
                      A                      A                      A
 Frequencies --   1108.2250              1138.9650              1185.7786
 Red. masses --      2.1185                 2.3399                 1.1755
 Frc consts  --      1.5330                 1.7884                 0.9739
 IR Inten    --     18.9046                30.3569                 6.3376

                     25                     26                     27
                      A                      A                      A
 Frequencies --   1195.3398              1320.5420              1339.8355
 Red. masses --      7.0756                 2.3679                 2.4360
 Frc consts  --      5.9566                 2.4328                 2.5765
 IR Inten    --    126.9525                 3.6972                 2.3292

                     28                     29                     30
                      A                      A                      A
 Frequencies --   1390.6581              1471.6219              1501.9602
 Red. masses --     18.3101                 2.1321                 2.0986
 Frc consts  --     20.8633                 2.7205                 2.7893
 IR Inten    --    179.2619                32.4377                10.6005

                     31                     32                     33
                      A                      A                      A
 Frequencies --   1624.2711              1638.2332              3196.1048
 Red. masses --      5.1286                 6.0480                 1.0893
 Frc consts  --      7.9719                 9.5634                 6.5560
 IR Inten    --     11.5906                14.9468                 8.4436

                     34                     35                     36
                      A                      A                      A
 Frequencies --   3209.7940              3225.1729              3249.4692
 Red. masses --      1.0902                 1.0966                 1.0941
 Frc consts  --      6.6177                 6.7206                 6.8065
 IR Inten    --      8.0999                 9.6131                 1.8299

 - Thermochemistry -
 -------------------
 Temperature   298.150 Kelvin.  Pressure   1.00000 Atm.
 Atom     1 has atomic number  6 and mass  12.00000

 Molecular mass:   160.99468 amu.
 Principal axes and moments of inertia in atomic units:
                           1         2         3
     Eigenvalues --   687.135112143.593492446.95455
           X            0.99999   0.00069   0.00508
           Y           -0.00065   0.99997  -0.00814
           Z           -0.00508   0.00813   0.99995
 This molecule is an asymmetric top.
 Rotational symmetry number  1.
 Warning -- assumption of classical behavior for rotation
           may cause significant error
 Rotational temperatures (Kelvin)      0.12605     0.04041     0.03540
 Rotational constants (GHZ):           2.62647     0.84192     0.73755
 Zero-point vibrational energy     240173.6 (Joules/Mol)
                                   57.40287 (Kcal/Mol)
 Warning -- explicit consideration of  11 degrees of freedom as
           vibrations may cause significant error
 Vibrational temperatures:     57.59   164.55   253.26   381.17   429.07
          (Kelvin)            479.60   591.37   627.14   673.67   753.22
                              836.89   899.52  1058.25  1075.23  1132.01
                             1159.31  1331.26  1420.14  1451.90  1468.71
                             1536.44  1594.49  1638.72  1706.07  1719.83
                             1899.97  1927.72  2000.85  2117.34  2160.99
                             2336.96  2357.05  4598.48  4618.18  4640.30
                             4675.26

 Zero-point correction=                           0.091477 (Hartree/Particle)
 Thermal correction to Energy=                    0.099752
 Thermal correction to Enthalpy=                  0.100696
 Thermal correction to Gibbs Free Energy=         0.057153
 Sum of electronic and zero-point Energies=           -896.004199
 Sum of electronic and thermal Energies=              -895.995925
 Sum of electronic and thermal Enthalpies=            -895.994980
 Sum of electronic and thermal Free Energies=         -896.038523

                     E (Thermal)             CV                S
                      KCal/Mol        Cal/Mol-Kelvin    Cal/Mol-Kelvin
 Total                   62.595             30.461             91.643
 Electronic               0.000              0.000              0.000
 Translational            0.889              2.981             41.137
 Rotational               0.889              2.981             29.667
 Vibrational             60.818             24.500             20.838
 Vibration     1          0.594              1.981              5.258
 Vibration     2          0.607              1.938              3.193
 Vibration     3          0.628              1.872              2.370
 Vibration     4          0.671              1.737              1.629
 Vibration     5          0.691              1.677              1.427
 Vibration     6          0.715              1.609              1.244
 Vibration     7          0.775              1.446              0.923
 Vibration     8          0.796              1.392              0.840
 Vibration     9          0.825              1.321              0.743
 Vibration    10          0.878              1.198              0.602
 Vibration    11          0.938              1.071              0.482

 Optimization completed.
    -- Stationary point found.
 Normal termination of Gaussian 16 at Mon Aug 24 17:24:46 2020.
 Gaussian 16:  ES64L-G16RevA.03 25-Dec-2016

 ----------------------------------------------------------------------
 # TD(NStates=10, Root=1) B3LYP/6-31G* scf=qc volume pop=NPA density=cu
 rrent Geom=AllCheck Guess=Read
 ----------------------------------------------------------------------

 Structure from the checkpoint file:  "sulfonylfluoride_3_conf103.chk"
 -------------------
 Title Card Required
 -------------------
 Charge =  0 Multiplicity = 1

                         Standard orientation:
 ---------------------------------------------------------------------
 Center     Atomic      Atomic             Coordinates (Angstroms)
 Number     Number       Type             X           Y           Z
 ---------------------------------------------------------------------
      1          6           0       -2.415460    1.163723   -0.002459
      2          6           0       -3.026198   -0.088702   -0.015267
      3          6           0       -2.221500   -1.232467    0.003096
      4          7           0       -0.886622   -1.182592    0.037532
      5          6           0       -0.336619    0.023334    0.046880
      6          6           0       -1.021188    1.235566    0.027068
      7         16           0        1.468130    0.050037    0.124045
      8          8           0        1.919187    1.430282    0.077185
      9          8           0        1.963978   -0.896732    1.100408
     10          9           0        1.782378   -0.581931   -1.332772
     11          1           0       -3.009973    2.072390   -0.015907
     12          1           0       -4.107088   -0.185276   -0.038797
     13          1           0       -2.662465   -2.226341   -0.008401
     14          1           0       -0.485135    2.177022    0.033962
 ---------------------------------------------------------------------

 SCF Done:  E(RB3LYP) =  -896.095676162     a.u. after    1 cycles

 Excitation energies and oscillator strengths:

 Excited State   1:      Singlet-A      4.7731 eV  259.75 nm  f=0.0032  <S**2>=0.000
      41 -> 42         0.70293
 This state for optimization and/or second-order correction.
 Total Energy, E(TD-HF/TD-DFT) =  -895.920266504
 Copying the excited state density for this state as the 1-particle RhoCI density.

 Excited State   2:      Singlet-A      5.2421 eV  236.52 nm  f=0.0010  <S**2>=0.000
      41 -> 43         0.70231

 Excited State   3:      Singlet-A      5.4906 eV  225.81 nm  f=0.0552  <S**2>=0.000
      38 -> 42        -0.11040
      38 -> 43         0.16405
      39 -> 42        -0.17662
      39 -> 43         0.23146
      40 -> 42         0.55834
      40 -> 43         0.23861

 Excited State   4:      Singlet-A      5.9342 eV  208.93 nm  f=0.0177  <S**2>=0.000
      37 -> 42         0.14225
      38 -> 42        -0.34533
      39 -> 42         0.50699
      40 -> 42         0.19786
      40 -> 43        -0.22507

 Excited State   5:      Singlet-A      6.1732 eV  200.84 nm  f=0.0581  <S**2>=0.000
      38 -> 42         0.53017
      40 -> 42         0.24961
      40 -> 43        -0.35386

 Excited State   6:      Singlet-A      6.4560 eV  192.04 nm  f=0.0031  <S**2>=0.000
      36 -> 42         0.33573
      37 -> 42         0.54676
      38 -> 43        -0.11073
      40 -> 43         0.23005

 Excited State   7:      Singlet-A      6.4791 eV  191.36 nm  f=0.0004  <S**2>=0.000
      36 -> 42         0.59713
      37 -> 42        -0.34979

 Excited State   8:      Singlet-A      6.5801 eV  188.42 nm  f=0.0022  <S**2>=0.000
      38 -> 43         0.55347
      39 -> 42        -0.14868
      39 -> 43        -0.37987

 Excited State   9:      Singlet-A      6.9543 eV  178.28 nm  f=0.0472  <S**2>=0.000
      36 -> 43         0.33262
      37 -> 43         0.50013
      38 -> 43         0.22026
      39 -> 42         0.17758
      39 -> 43         0.12097
      40 -> 43         0.15299

 Excited State  10:      Singlet-A      7.0978 eV  174.68 nm  f=0.0037  <S**2>=0.000
      36 -> 43         0.60195
      37 -> 43        -0.34277

 The electronic state is 1-A.
 Alpha  occ. eigenvalues --  -89.15274 -24.73414 -19.17584 -19.17446 -14.37616
 Alpha  occ. eigenvalues --  -10.28666 -10.26252 -10.24749 -10.24415 -10.23930
 Alpha  occ. eigenvalues --   -8.17618  -6.14297  -6.13957  -6.13841  -1.24735
 Alpha  occ. eigenvalues --   -1.11495  -1.03479  -0.99027  -0.84440  -0.81506
 Alpha  occ. eigenvalues --   -0.71437  -0.67320  -0.64081  -0.58189  -0.54217
 Alpha  occ. eigenvalues --   -0.52317  -0.51745  -0.49344  -0.48701  -0.45208
 Alpha  occ. eigenvalues --   -0.44458  -0.43554  -0.43192  -0.41313  -0.38224
 Alpha  occ. eigenvalues --   -0.35070  -0.34324  -0.32587  -0.32385  -0.30268
 Alpha  occ. eigenvalues --   -0.29660
 Alpha virt. eigenvalues --   -0.07328  -0.05508   0.01944   0.05334   0.07665
 Alpha virt. eigenvalues --    0.09893   0.10178   0.12154   0.13827   0.14957
 Alpha virt. eigenvalues --    0.15858   0.22507   0.25782   0.27119   0.29760

 Mulliken charges:
               1
     1  C   -0.130360
     2  C   -0.184019
     3  C    0.077468
     4  N   -0.330122
     5  C   -0.032052
     6  C   -0.103611
     7  S    1.198270
     8  O   -0.474621
     9  O   -0.455203
    10  F   -0.297362
    11  H    0.161367
    12  H    0.162448
    13  H    0.198506
    14  H    0.209291
 Sum of Mulliken charges =  -0.00000

 Dipole moment (field-independent basis, Debye):
    X=             -5.5305    Y=             -0.3548    Z=             -0.6555  Tot=              5.5805
 Quadrupole moment (field-independent basis, Debye-Ang):
   XX=            -59.3877   YY=            -58.5880   ZZ=            -66.5061
   XY=              0.9269   XZ=             -1.6481   YZ=              1.1229

 Summary of Natural Population Analysis:

                                       Natural Population
                Natural  -----------------------------------------------
    Atom  No    Charge         Core      Valence    Rydberg      Total
 -----------------------------------------------------------------------
      C    1   -0.24796      1.99910     4.23184    0.01703     6.24796
      C    2   -0.35568      1.99908     4.34005    0.01656     6.35568
      C    3    0.01917      1.99913     3.96189    0.01981     5.98083
      N    4   -0.14222      1.99884     5.12578    0.01761     7.14222
      C    5   -0.24608      1.99877     4.21030    0.03701     6.24608
      C    6   -0.21068      1.99895     4.19616    0.01557     6.21068
      S    7    2.38600      9.99882     3.41121    0.20397    13.61400
      O    8   -0.89253      1.99988     6.86981    0.02283     8.89253
      O    9   -0.88221      1.99988     6.85848    0.02384     8.88221
      F   10   -0.50324      1.99997     7.49351    0.00976     9.50324
      H   11    0.25795      0.00000     0.74143    0.00062     0.74205
      H   12    0.26345      0.00000     0.73605    0.00049     0.73655
      H   13    0.26527      0.00000     0.73418    0.00055     0.73473
      H   14    0.28874      0.00000     0.71028    0.00098     0.71126
 =======================================================================
   * Total *    0.00000     27.99241    53.62097    0.38661    82.00000

 Normal termination of Gaussian 16 at Mon Aug 24 17:28:43 2020.
