 Gaussian 16, Revision A.03,

 ---------------------------------
 # opt=CalcAll B3LYP/6-31G* scf=qc
 ---------------------------------

 -------------------
 Title Card Required
 -------------------
 Symbolic Z-matrix:
 Charge =  0 Multiplicity = 1

 SCF Done:  E(RB3LYP) =  -1217.08875261     a.u. after    8 cycles
 SCF Done:  E(RB3LYP) =  -1217.09646604     a.u. after   17 cycles
 SCF Done:  E(RB3LYP) =  -1217.09752614     a.u. after   17 cycles
 SCF Done:  E(RB3LYP) =  -1217.09765627     a.u. after   13 cycles
 SCF Done:  E(RB3LYP) =  -1217.09768493     a.u. after    7 cycles
 SCF Done:  E(RB3LYP) =  -1217.09768591     a.u. after    4 cycles
 SCF Done:  E(RB3LYP) =  -1217.09768592     a.u. after    2 cycles
 Optimization completed.
    -- Stationary point found.
 Normal termination of Gaussian 16 at Mon Aug 24 17:21:19 2020.

 ----------------------------------------------------------------------
 # freq B3LYP/6-31G* scf=qc volume NMR pop=NPA density=current Geom=All
 Check Guess=Read
 ----------------------------------------------------------------------

 Structure from the checkpoint file:  "sulfonylfluoride_10_conf52.chk"
 -------------------
 Title Card Required
 -------------------
 Charge =  0 Multiplicity = 1

 SCF Done:  E(RB3LYP) =  -1217.09768592     a.u. after    1 cycles

      1  C    Isotropic =    53.0663   Anisotropy =   114.1515

      2  C    Isotropic =    67.3929   Anisotropy =   171.2101

      3  C    Isotropic =    68.7889   Anisotropy =   169.7896

      4  C    Isotropic =    56.7213   Anisotropy =   159.5364

      5  C    Isotropic =    68.7901   Anisotropy =   169.7886

      6  C    Isotropic =    67.3931   Anisotropy =   171.2099

      7  C    Isotropic =    64.1541   Anisotropy =    14.9603

      8  F    Isotropic =   273.3371   Anisotropy =   119.6950

      9  F    Isotropic =   273.3506   Anisotropy =   119.6888

     10  F    Isotropic =   248.8548   Anisotropy =   121.9298

     11  S    Isotropic =   216.1228   Anisotropy =   331.9199

     12  O    Isotropic =   105.0091   Anisotropy =    73.5328

     13  O    Isotropic =   105.0085   Anisotropy =    73.5325

     14  F    Isotropic =    97.2528   Anisotropy =   361.8275

     15  H    Isotropic =    24.3020   Anisotropy =     7.8411

     16  H    Isotropic =    24.5157   Anisotropy =     8.1103

     17  H    Isotropic =    24.5157   Anisotropy =     8.1103

     18  H    Isotropic =    24.3021   Anisotropy =     7.8411

  Exact polarizability: 128.091   0.000  96.064  -2.020   0.000  50.117
 Approx polarizability: 180.608   0.000 181.006  -3.765   0.000  81.990

                      1                      2                      3
                      A                      A                      A
 Frequencies --     16.6322                40.4507                59.6440
 Red. masses --     13.4269                 5.4773                11.7357
 Frc consts  --      0.0022                 0.0053                 0.0246
 IR Inten    --      0.1337                 0.0036                 2.7328

                      4                      5                      6
                      A                      A                      A
 Frequencies --    128.1658               150.7945               214.6324
 Red. masses --     11.8087                12.6265                16.4625
 Frc consts  --      0.1143                 0.1692                 0.4468
 IR Inten    --      4.2003                 0.0489                 0.0877

                      7                      8                      9
                      A                      A                      A
 Frequencies --    219.5542               270.3334               333.4459
 Red. masses --      9.2435                 9.9668                11.0017
 Frc consts  --      0.2625                 0.4291                 0.7207
 IR Inten    --      0.0023                 0.3303                 1.4428

                     10                     11                     12
                      A                      A                      A
 Frequencies --    384.7794               398.6345               414.5230
 Red. masses --      8.6283                 8.8722                 3.0654
 Frc consts  --      0.7527                 0.8307                 0.3103
 IR Inten    --      7.4106                 0.0001                 0.0003

                     13                     14                     15
                      A                      A                      A
 Frequencies --    425.5654               465.6631               471.4483
 Red. masses --      9.0167                11.1584                11.0103
 Frc consts  --      0.9621                 1.4256                 1.4418
 IR Inten    --     26.1764                 5.5761                 9.2151

                     16                     17                     18
                      A                      A                      A
 Frequencies --    514.0130               576.2934               592.2928
 Red. masses --      7.5791                11.8223                 8.5033
 Frc consts  --      1.1798                 2.3133                 1.7576
 IR Inten    --      6.2478                 0.0520                54.3613

                     19                     20                     21
                      A                      A                      A
 Frequencies --    597.1600               642.2025               708.4184
 Red. masses --      5.9801                 7.1382                11.4090
 Frc consts  --      1.2564                 1.7345                 3.3735
 IR Inten    --     47.8070                 0.2042                50.4697

                     22                     23                     24
                      A                      A                      A
 Frequencies --    731.7486               778.2845               808.6435
 Red. masses --      4.2712                13.6462                10.8382
 Frc consts  --      1.3475                 4.8701                 4.1756
 IR Inten    --     18.2137               117.9857               135.0467

                     25                     26                     27
                      A                      A                      A
 Frequencies --    860.2725               860.7175               982.7965
 Red. masses --      1.5490                 1.2415                 1.2658
 Frc consts  --      0.6754                 0.5419                 0.7203
 IR Inten    --     36.3191                 0.5064                 0.4001

                     28                     29                     30
                      A                      A                      A
 Frequencies --    986.7314              1032.4691              1087.3789
 Red. masses --      1.3518                 4.4288                 6.7042
 Frc consts  --      0.7755                 2.7816                 4.6704
 IR Inten    --      0.0026                25.4685               109.8077

                     31                     32                     33
                      A                      A                      A
 Frequencies --   1105.0140              1141.0339              1185.8556
 Red. masses --      2.7789                 1.4934                10.2100
 Frc consts  --      1.9992                 1.1456                 8.4594
 IR Inten    --     13.6644                32.1030               194.5098

                     34                     35                     36
                      A                      A                      A
 Frequencies --   1198.0340              1220.0783              1222.5693
 Red. masses --     10.1046                 1.1972                 6.3978
 Frc consts  --      8.5449                 1.0500                 5.6342
 IR Inten    --    256.2997                 5.6080               163.6475

                     37                     38                     39
                      A                      A                      A
 Frequencies --   1339.4966              1340.5857              1361.0346
 Red. masses --      6.0176                 1.2771                10.9450
 Frc consts  --      6.3615                 1.3523                11.9455
 IR Inten    --    330.4414                 1.2899                12.0328

                     40                     41                     42
                      A                      A                      A
 Frequencies --   1394.1212              1447.3710              1542.7418
 Red. masses --     14.7280                 2.9953                 2.3168
 Frc consts  --     16.8653                 3.6970                 3.2488
 IR Inten    --    144.4877                56.2224                 1.1450

                     43                     44                     45
                      A                      A                      A
 Frequencies --   1637.7537              1663.7244              3226.9667
 Red. masses --      7.1598                 5.5932                 1.0892
 Frc consts  --     11.3148                 9.1217                 6.6823
 IR Inten    --      0.0001                 1.1748                 0.0522

                     46                     47                     48
                      A                      A                      A
 Frequencies --   3228.0178              3239.7020              3240.6639
 Red. masses --      1.0886                 1.0944                 1.0956
 Frc consts  --      6.6832                 6.7676                 6.7788
 IR Inten    --      1.2489                 0.0594                 1.7088

 - Thermochemistry -
 -------------------
 Temperature   298.150 Kelvin.  Pressure   1.00000 Atm.
 Atom     1 has atomic number  6 and mass  12.00000

 Molecular mass:   227.98681 amu.
 Principal axes and moments of inertia in atomic units:
                           1         2         3
     Eigenvalues --  1021.479966723.432977036.80678
           X            1.00000   0.00000  -0.00257
           Y           -0.00000   1.00000   0.00000
           Z            0.00257  -0.00000   1.00000
 This molecule is an asymmetric top.
 Rotational symmetry number  1.
 Warning -- assumption of classical behavior for rotation
           may cause significant error
 Rotational temperatures (Kelvin)      0.08479     0.01288     0.01231
 Rotational constants (GHZ):           1.76679     0.26843     0.25647
 Zero-point vibrational energy     284044.0 (Joules/Mol)
                                   67.88815 (Kcal/Mol)
 Warning -- explicit consideration of  19 degrees of freedom as
           vibrations may cause significant error
 Vibrational temperatures:     23.93    58.20    85.81   184.40   216.96
          (Kelvin)            308.81   315.89   388.95   479.75   553.61
                              573.55   596.41   612.29   669.99   678.31
                              739.55   829.16   852.18   859.18   923.99
                             1019.26  1052.82  1119.78  1163.46  1237.74
                             1238.38  1414.02  1419.69  1485.49  1564.50
                             1589.87  1641.69  1706.18  1723.70  1755.42
                             1759.00  1927.24  1928.80  1958.23  2005.83
                             2082.44  2219.66  2356.36  2393.73  4642.89
                             4644.40  4661.21  4662.59

 Zero-point correction=                           0.108187 (Hartree/Particle)
 Thermal correction to Energy=                    0.120186
 Thermal correction to Enthalpy=                  0.121130
 Thermal correction to Gibbs Free Energy=         0.067297
 Sum of electronic and zero-point Energies=          -1216.989499
 Sum of electronic and thermal Energies=             -1216.977500
 Sum of electronic and thermal Enthalpies=           -1216.976556
 Sum of electronic and thermal Free Energies=        -1217.030389

                     E (Thermal)             CV                S
                      KCal/Mol        Cal/Mol-Kelvin    Cal/Mol-Kelvin
 Total                   75.418             43.993            113.303
 Electronic               0.000              0.000              0.000
 Translational            0.889              2.981             42.175
 Rotational               0.889              2.981             32.247
 Vibrational             73.641             38.031             38.882
 Vibration     1          0.593              1.986              7.000
 Vibration     2          0.594              1.981              5.237
 Vibration     3          0.597              1.974              4.469
 Vibration     4          0.611              1.925              2.973
 Vibration     5          0.618              1.902              2.662
 Vibration     6          0.645              1.819              2.004
 Vibration     7          0.647              1.811              1.963
 Vibration     8          0.674              1.728              1.594
 Vibration     9          0.715              1.609              1.243
 Vibration    10          0.754              1.503              1.020
 Vibration    11          0.765              1.473              0.968
 Vibration    12          0.778              1.439              0.911
 Vibration    13          0.787              1.415              0.873
 Vibration    14          0.823              1.326              0.750
 Vibration    15          0.828              1.313              0.734
 Vibration    16          0.869              1.219              0.624
 Vibration    17          0.933              1.083              0.492
 Vibration    18          0.950              1.048              0.463
 Vibration    19          0.955              1.038              0.455

 Optimization completed.
    -- Stationary point found.
 Normal termination of Gaussian 16 at Mon Aug 24 17:26:00 2020.
 Gaussian 16:  ES64L-G16RevA.03 25-Dec-2016

 ----------------------------------------------------------------------
 # TD(NStates=10, Root=1) B3LYP/6-31G* scf=qc volume pop=NPA density=cu
 rrent Geom=AllCheck Guess=Read
 ----------------------------------------------------------------------

 Structure from the checkpoint file:  "sulfonylfluoride_10_conf53.chk"
 -------------------
 Title Card Required
 -------------------
 Charge =  0 Multiplicity = 1

                         Standard orientation:
 ---------------------------------------------------------------------
 Center     Atomic      Atomic             Coordinates (Angstroms)
 Number     Number       Type             X           Y           Z
 ---------------------------------------------------------------------
      1          6           0       -1.102429   -0.000005    0.092773
      2          6           0       -0.426729    1.221167    0.089557
      3          6           0        0.965732    1.214754    0.070594
      4          6           0        1.656940   -0.000017    0.057618
      5          6           0        0.965724   -1.214780    0.070593
      6          6           0       -0.426739   -1.221181    0.089556
      7          6           0        3.164826   -0.000003   -0.019479
      8          9           0        3.693262    1.089825    0.574455
      9          9           0        3.693278   -1.090057    0.574021
     10          9           0        3.585624    0.000261   -1.303060
     11         16           0       -2.883336    0.000002    0.117208
     12          8           0       -3.372520   -1.273642    0.608766
     13          8           0       -3.372510    1.273639    0.608790
     14          9           0       -3.167160    0.000018   -1.479616
     15          1           0       -0.981489    2.152512    0.115010
     16          1           0        1.513826    2.150463    0.077375
     17          1           0        1.513810   -2.150493    0.077370
     18          1           0       -0.981507   -2.152522    0.115008
 ---------------------------------------------------------------------

 SCF Done:  E(RB3LYP) =  -1217.09768592     a.u. after    1 cycles

 Excitation energies and oscillator strengths:

 Excited State   1:      Singlet-A      5.1971 eV  238.57 nm  f=0.0191  <S**2>=0.000
      56 -> 59        -0.36161
      57 -> 58         0.60666
 This state for optimization and/or second-order correction.
 Total Energy, E(TD-HF/TD-DFT) =  -1216.90669688
 Copying the excited state density for this state as the 1-particle RhoCI density.

 Excited State   2:      Singlet-A      5.8183 eV  213.09 nm  f=0.1726  <S**2>=0.000
      56 -> 58         0.64625
      57 -> 59         0.26359

 Excited State   3:      Singlet-A      6.0502 eV  204.92 nm  f=0.0021  <S**2>=0.000
      54 -> 58         0.17907
      55 -> 58         0.67750

 Excited State   4:      Singlet-A      6.3971 eV  193.81 nm  f=0.0018  <S**2>=0.000
      53 -> 58         0.68413
      57 -> 59         0.14475

 Excited State   5:      Singlet-A      6.4853 eV  191.18 nm  f=0.0002  <S**2>=0.000
      54 -> 58         0.67009
      55 -> 58        -0.17688

 Excited State   6:      Singlet-A      6.9179 eV  179.22 nm  f=0.2318  <S**2>=0.000
      53 -> 59        -0.18254
      56 -> 59         0.56211
      57 -> 58         0.32905
      57 -> 60        -0.14877

 Excited State   7:      Singlet-A      6.9876 eV  177.43 nm  f=0.4509  <S**2>=0.000
      55 -> 59        -0.38409
      56 -> 58        -0.22236
      57 -> 59         0.52371

 Excited State   8:      Singlet-A      7.0062 eV  176.96 nm  f=0.1745  <S**2>=0.000
      55 -> 59         0.59142
      56 -> 58        -0.13701
      57 -> 59         0.33446

 Excited State   9:      Singlet-A      7.2805 eV  170.30 nm  f=0.0167  <S**2>=0.000
      50 -> 58         0.52353
      53 -> 59         0.43743

 Excited State  10:      Singlet-A      7.3281 eV  169.19 nm  f=0.0122  <S**2>=0.000
      50 -> 58        -0.46712
      53 -> 59         0.50336

 The electronic state is 1-A.
 Alpha  occ. eigenvalues --  -89.16554 -24.74528 -24.74528 -24.74297 -24.73956
 Alpha  occ. eigenvalues --  -19.18552 -19.18551 -10.45526 -10.26842 -10.25369
 Alpha  occ. eigenvalues --  -10.24776 -10.24775 -10.24333 -10.24332  -8.18846
 Alpha  occ. eigenvalues --   -6.15523  -6.15191  -6.15082  -1.32174  -1.25656
 Alpha  occ. eigenvalues --   -1.23620  -1.23152  -1.12549  -1.04630  -0.91585
 Alpha  occ. eigenvalues --   -0.83373  -0.80052  -0.74595  -0.69172  -0.66504
 Alpha  occ. eigenvalues --   -0.64027  -0.59999  -0.59877  -0.59664  -0.58197
 Alpha  occ. eigenvalues --   -0.53590  -0.51748  -0.49756  -0.49553  -0.48034
 Alpha  occ. eigenvalues --   -0.47603  -0.47279  -0.47137  -0.44679  -0.44488
 Alpha  occ. eigenvalues --   -0.44012  -0.43398  -0.41686  -0.41527  -0.39844
 Alpha  occ. eigenvalues --   -0.39319  -0.39042  -0.35424  -0.35240  -0.33572
 Alpha  occ. eigenvalues --   -0.30822  -0.30212
 Alpha virt. eigenvalues --   -0.08178  -0.05110   0.01193   0.03933   0.07828
 Alpha virt. eigenvalues --    0.09390   0.10837   0.11252   0.11257   0.12901
 Alpha virt. eigenvalues --    0.14670   0.18220   0.19497   0.19848   0.20412

 Mulliken charges:
               1
     1  C   -0.156556
     2  C   -0.135020
     3  C   -0.140217
     4  C   -0.020009
     5  C   -0.140220
     6  C   -0.135022
     7  C    0.786372
     8  F   -0.265443
     9  F   -0.265444
    10  F   -0.254846
    11  S    1.191921
    12  O   -0.479875
    13  O   -0.479875
    14  F   -0.301229
    15  H    0.209164
    16  H    0.188568
    17  H    0.188567
    18  H    0.209164
 Sum of Mulliken charges =  -0.00000

 Dipole moment (field-independent basis, Debye):
    X=              3.2566    Y=             -0.0000    Z=             -0.4255  Tot=              3.2843
 Quadrupole moment (field-independent basis, Debye-Ang):
   XX=           -107.0140   YY=            -77.6147   ZZ=            -85.4835
   XY=             -0.0002   XZ=              3.0580   YZ=             -0.0000

 Summary of Natural Population Analysis:

                                       Natural Population
                Natural  -----------------------------------------------
    Atom  No    Charge         Core      Valence    Rydberg      Total
 -----------------------------------------------------------------------
      C    1   -0.37302      1.99873     4.34578    0.02851     6.37302
      C    2   -0.15832      1.99904     4.13938    0.01989     6.15832
      C    3   -0.14847      1.99909     4.13184    0.01754     6.14847
      C    4   -0.19012      1.99891     4.17364    0.01757     6.19012
      C    5   -0.14847      1.99909     4.13184    0.01754     6.14847
      C    6   -0.15832      1.99904     4.13939    0.01989     6.15832
      C    7    1.11140      1.99911     2.81842    0.07107     4.88860
      F    8   -0.36098      1.99993     7.35473    0.00632     9.36098
      F    9   -0.36098      1.99993     7.35473    0.00632     9.36098
      F   10   -0.35914      1.99993     7.35281    0.00640     9.35914
      S   11    2.39754      9.99873     3.39972    0.20402    13.60246
      O   12   -0.90174      1.99988     6.87871    0.02314     8.90174
      O   13   -0.90174      1.99988     6.87871    0.02314     8.90174
      F   14   -0.50934      1.99997     7.49985    0.00952     9.50934
      H   15    0.27122      0.00000     0.72750    0.00128     0.72878
      H   16    0.25962      0.00000     0.73894    0.00144     0.74038
      H   17    0.25962      0.00000     0.73894    0.00144     0.74038
      H   18    0.27122      0.00000     0.72750    0.00128     0.72878
 =======================================================================
   * Total *    0.00000     35.99126    77.53244    0.47630   114.00000

 Normal termination of Gaussian 16 at Mon Aug 24 17:32:50 2020.
