 Gaussian 16, Revision A.03,

 ---------------------------------
 # opt=CalcAll B3LYP/6-31G* scf=qc
 ---------------------------------

 -------------------
 Title Card Required
 -------------------
 Symbolic Z-matrix:
 Charge =  0 Multiplicity = 1

 SCF Done:  E(RB3LYP) =  -919.378787097     a.u. after    8 cycles
 SCF Done:  E(RB3LYP) =  -919.382717443     a.u. after   13 cycles
 SCF Done:  E(RB3LYP) =  -919.383258664     a.u. after   15 cycles
 SCF Done:  E(RB3LYP) =  -919.383277579     a.u. after    9 cycles
 SCF Done:  E(RB3LYP) =  -919.383278676     a.u. after    4 cycles
 SCF Done:  E(RB3LYP) =  -919.383278688     a.u. after    2 cycles
 Optimization completed.
    -- Stationary point found.
 Normal termination of Gaussian 16 at Mon Aug 24 18:17:10 2020.

 ----------------------------------------------------------------------
 # freq B3LYP/6-31G* scf=qc volume NMR pop=NPA density=current Geom=All
 Check Guess=Read
 ----------------------------------------------------------------------

 Structure from the checkpoint file:  "sulfonylfluoride_9_conf12.chk"
 -------------------
 Title Card Required
 -------------------
 Charge =  0 Multiplicity = 1

 SCF Done:  E(RB3LYP) =  -919.383278688     a.u. after    1 cycles

      1  C    Isotropic =    58.1515   Anisotropy =   108.3241

      2  C    Isotropic =    67.7772   Anisotropy =   167.7765

      3  C    Isotropic =    66.7719   Anisotropy =   151.9847

      4  C    Isotropic =    50.3546   Anisotropy =   192.6788

      5  C    Isotropic =    66.7724   Anisotropy =   151.9882

      6  C    Isotropic =    67.7771   Anisotropy =   167.7763

      7  C    Isotropic =   167.4716   Anisotropy =    34.7670

      8  S    Isotropic =   211.5868   Anisotropy =   315.6724

      9  O    Isotropic =   106.3247   Anisotropy =    74.8910

     10  O    Isotropic =   106.3292   Anisotropy =    74.8925

     11  F    Isotropic =    97.6222   Anisotropy =   365.4460

     12  H    Isotropic =    24.4866   Anisotropy =     7.7438

     13  H    Isotropic =    24.9641   Anisotropy =     6.6596

     14  H    Isotropic =    24.9641   Anisotropy =     6.6598

     15  H    Isotropic =    24.4866   Anisotropy =     7.7439

     16  H    Isotropic =    29.9900   Anisotropy =     7.3593

     17  H    Isotropic =    29.9898   Anisotropy =     7.3595

     18  H    Isotropic =    29.6606   Anisotropy =     8.1449

  Exact polarizability: 131.349  -0.000  95.454   3.498  -0.000  49.045
 Approx polarizability: 184.676  -0.001 176.233   6.186  -0.001  78.206

                      1                      2                      3
                      A                      A                      A
 Frequencies --     25.0985                41.1262                84.0543
 Red. masses --      1.0238                 5.7499                 5.3733
 Frc consts  --      0.0004                 0.0057                 0.0224
 IR Inten    --      0.2508                 0.0736                 0.3109

                      4                      5                      6
                      A                      A                      A
 Frequencies --    164.3467               196.2178               282.6508
 Red. masses --      6.3815                 5.7232                 8.0841
 Frc consts  --      0.1016                 0.1298                 0.3805
 IR Inten    --      1.2772                 0.7458                 3.3466

                      7                      8                      9
                      A                      A                      A
 Frequencies --    308.6899               343.8038               370.9628
 Red. masses --      5.4356                 5.9245                 3.8569
 Frc consts  --      0.3052                 0.4126                 0.3127
 IR Inten    --      0.0670                 3.3456                 2.6745

                     10                     11                     12
                      A                      A                      A
 Frequencies --    415.7046               456.3295               473.0038
 Red. masses --      3.0141                 6.4249                 9.2838
 Frc consts  --      0.3069                 0.7883                 1.2238
 IR Inten    --      0.0468                 1.4397                 6.4045

                     13                     14                     15
                      A                      A                      A
 Frequencies --    522.5755               546.4543               647.2259
 Red. masses --      3.9969                 9.0760                 6.9529
 Frc consts  --      0.6431                 1.5968                 1.7160
 IR Inten    --     19.7967                78.5111                 0.0358

                     16                     17                     18
                      A                      A                      A
 Frequencies --    657.2573               705.5114               779.3862
 Red. masses --      7.1398                 3.8728                12.5093
 Frc consts  --      1.8172                 1.1357                 4.4770
 IR Inten    --     71.8508                 3.4825               212.2912

                     19                     20                     21
                      A                      A                      A
 Frequencies --    820.8283               831.5385               856.3098
 Red. masses --      2.7439                 1.7875                 1.2446
 Frc consts  --      1.0892                 0.7282                 0.5377
 IR Inten    --     61.1602                10.1412                 0.1652

                     22                     23                     24
                      A                      A                      A
 Frequencies --    975.4403               979.5182              1022.7888
 Red. masses --      1.2433                 1.3467                 1.3987
 Frc consts  --      0.6970                 0.7613                 0.8621
 IR Inten    --      0.5812                 0.0408                 0.0004

                     25                     26                     27
                      A                      A                      A
 Frequencies --   1034.1717              1075.4681              1104.1934
 Red. masses --      3.7702                 1.5616                 3.4744
 Frc consts  --      2.3757                 1.0642                 2.4958
 IR Inten    --      1.6938                15.4115                19.7764

                     28                     29                     30
                      A                      A                      A
 Frequencies --   1151.5324              1181.7933              1220.8315
 Red. masses --      1.3065                10.1566                 1.1986
 Frc consts  --      1.0207                 8.3576                 1.0526
 IR Inten    --      5.3319               242.7570                 0.6860

                     31                     32                     33
                      A                      A                      A
 Frequencies --   1239.1267              1343.2479              1354.3904
 Red. masses --      3.0624                 1.2975                 8.8244
 Frc consts  --      2.7704                 1.3794                 9.5373
 IR Inten    --      0.4107                 3.5509                21.1182

                     34                     35                     36
                      A                      A                      A
 Frequencies --   1388.1289              1443.2318              1448.8454
 Red. masses --     16.0385                 1.2385                 2.5762
 Frc consts  --     18.2084                 1.5199                 3.1862
 IR Inten    --    146.7836                 0.5948                14.4564

                     37                     38                     39
                      A                      A                      A
 Frequencies --   1517.7769              1518.2454              1542.1807
 Red. masses --      1.0525                 1.1031                 2.2690
 Frc consts  --      1.4285                 1.4982                 3.1795
 IR Inten    --      6.7405                15.6659                 5.2253

                     40                     41                     42
                      A                      A                      A
 Frequencies --   1630.8405              1655.9853              3047.5482
 Red. masses --      5.9794                 5.5463                 1.0409
 Frc consts  --      9.3698                 8.9611                 5.6960
 IR Inten    --      1.3320                28.8296                16.3247

                     43                     44                     45
                      A                      A                      A
 Frequencies --   3107.4608              3135.1117              3194.9385
 Red. masses --      1.0952                 1.1033                 1.0896
 Frc consts  --      6.2308                 6.3892                 6.5532
 IR Inten    --     15.4476                12.0293                12.8198

                     46                     47                     48
                      A                      A                      A
 Frequencies --   3195.6345              3231.7531              3232.1688
 Red. masses --      1.0900                 1.0926                 1.0936
 Frc consts  --      6.5580                 6.7231                 6.7315
 IR Inten    --      6.7524                 0.2511                 1.6620

 - Thermochemistry -
 -------------------
 Temperature   298.150 Kelvin.  Pressure   1.00000 Atm.
 Atom     1 has atomic number  6 and mass  12.00000

 Molecular mass:   174.01508 amu.
 Principal axes and moments of inertia in atomic units:
                           1         2         3
     Eigenvalues --   707.971543259.140493569.62478
           X            0.99999   0.00000   0.00520
           Y           -0.00000   1.00000  -0.00000
           Z           -0.00520   0.00000   0.99999
 This molecule is an asymmetric top.
 Rotational symmetry number  1.
 Warning -- assumption of classical behavior for rotation
           may cause significant error
 Rotational temperatures (Kelvin)      0.12234     0.02658     0.02426
 Rotational constants (GHZ):           2.54917     0.55375     0.50558
 Zero-point vibrational energy     343934.9 (Joules/Mol)
                                   82.20242 (Kcal/Mol)
 Warning -- explicit consideration of  14 degrees of freedom as
           vibrations may cause significant error
 Vibrational temperatures:     36.11    59.17   120.94   236.46   282.31
          (Kelvin)            406.67   444.14   494.66   533.73   598.11
                              656.56   680.55   751.87   786.23   931.21
                              945.65  1015.07  1121.36  1180.99  1196.40
                             1232.04  1403.44  1409.31  1471.56  1487.94
                             1547.36  1588.69  1656.80  1700.34  1756.50
                             1782.83  1932.63  1948.67  1997.21  2076.49
                             2084.57  2183.74  2184.42  2218.85  2346.42
                             2382.59  4384.74  4470.94  4510.73  4596.80
                             4597.81  4649.77  4650.37

 Zero-point correction=                           0.130998 (Hartree/Particle)
 Thermal correction to Energy=                    0.141271
 Thermal correction to Enthalpy=                  0.142215
 Thermal correction to Gibbs Free Energy=         0.093257
 Sum of electronic and zero-point Energies=           -919.252281
 Sum of electronic and thermal Energies=              -919.242008
 Sum of electronic and thermal Enthalpies=            -919.241064
 Sum of electronic and thermal Free Energies=         -919.290022

                     E (Thermal)             CV                S
                      KCal/Mol        Cal/Mol-Kelvin    Cal/Mol-Kelvin
 Total                   88.649             37.416            103.040
 Electronic               0.000              0.000              0.000
 Translational            0.889              2.981             41.369
 Rotational               0.889              2.981             30.489
 Vibrational             86.871             31.455             31.183
 Vibration     1          0.593              1.985              6.183
 Vibration     2          0.594              1.981              5.204
 Vibration     3          0.601              1.960              3.794
 Vibration     4          0.623              1.886              2.499
 Vibration     5          0.636              1.845              2.168
 Vibration     6          0.682              1.706              1.518
 Vibration     7          0.698              1.657              1.369
 Vibration     8          0.723              1.588              1.194
 Vibration     9          0.743              1.532              1.076
 Vibration    10          0.779              1.436              0.907
 Vibration    11          0.815              1.347              0.777
 Vibration    12          0.830              1.310              0.729
 Vibration    13          0.878              1.200              0.604
 Vibration    14          0.902              1.147              0.552

 Optimization completed.
    -- Stationary point found.
 Normal termination of Gaussian 16 at Mon Aug 24 18:20:38 2020.
 Gaussian 16:  ES64L-G16RevA.03 25-Dec-2016

 ----------------------------------------------------------------------
 # TD(NStates=10, Root=1) B3LYP/6-31G* scf=qc volume pop=NPA density=cu
 rrent Geom=AllCheck Guess=Read
 ----------------------------------------------------------------------

 Structure from the checkpoint file:  "sulfonylfluoride_9_conf13.chk"
 -------------------
 Title Card Required
 -------------------
 Charge =  0 Multiplicity = 1

                         Standard orientation:
 ---------------------------------------------------------------------
 Center     Atomic      Atomic             Coordinates (Angstroms)
 Number     Number       Type             X           Y           Z
 ---------------------------------------------------------------------
      1          6           0       -0.130656   -0.000005   -0.079516
      2          6           0        0.551067    1.218396   -0.065622
      3          6           0        1.942628    1.206122   -0.028656
      4          6           0        2.658709    0.000002   -0.003970
      5          6           0        1.942635   -1.206122   -0.028654
      6          6           0        0.551074   -1.218403   -0.065620
      7          6           0        4.166383    0.000004    0.066366
      8         16           0       -1.903020   -0.000013   -0.126635
      9          8           0       -2.392784    1.272776   -0.623584
     10          8           0       -2.392777   -1.272889   -0.623367
     11          9           0       -2.223402    0.000125    1.466855
     12          1           0       -0.000500    2.151739   -0.098247
     13          1           0        2.482490    2.149395   -0.024871
     14          1           0        2.482501   -2.149392   -0.024868
     15          1           0       -0.000490   -2.151748   -0.098245
     16          1           0        4.590487    0.886982   -0.414744
     17          1           0        4.590497   -0.886839   -0.414984
     18          1           0        4.507393   -0.000137    1.110073
 ---------------------------------------------------------------------

 SCF Done:  E(RB3LYP) =  -919.383278688     a.u. after    1 cycles

 Excitation energies and oscillator strengths:

 Excited State   1:      Singlet-A      5.2275 eV  237.18 nm  f=0.0069  <S**2>=0.000
      44 -> 46         0.56957
      45 -> 47         0.41646
 This state for optimization and/or second-order correction.
 Total Energy, E(TD-HF/TD-DFT) =  -919.191173269
 Copying the excited state density for this state as the 1-particle RhoCI density.

 Excited State   2:      Singlet-A      5.6790 eV  218.32 nm  f=0.2163  <S**2>=0.000
      44 -> 47        -0.24962
      45 -> 46         0.65680

 Excited State   3:      Singlet-A      6.3108 eV  196.46 nm  f=0.0018  <S**2>=0.000
      42 -> 46        -0.20821
      43 -> 46         0.66691

 Excited State   4:      Singlet-A      6.6229 eV  187.20 nm  f=0.0126  <S**2>=0.000
      41 -> 46         0.68064
      44 -> 47         0.15858

 Excited State   5:      Singlet-A      6.6646 eV  186.04 nm  f=0.1329  <S**2>=0.000
      42 -> 46         0.33967
      44 -> 46        -0.35011
      44 -> 48        -0.13114
      45 -> 47         0.47211

 Excited State   6:      Singlet-A      6.7980 eV  182.38 nm  f=0.1035  <S**2>=0.000
      42 -> 46         0.57414
      43 -> 46         0.18475
      44 -> 46         0.19693
      45 -> 47        -0.27107

 Excited State   7:      Singlet-A      6.9372 eV  178.72 nm  f=0.5628  <S**2>=0.000
      41 -> 46        -0.13910
      44 -> 47         0.61370
      45 -> 46         0.22862
      45 -> 48         0.19026

 Excited State   8:      Singlet-A      7.1344 eV  173.78 nm  f=0.0002  <S**2>=0.000
      43 -> 47         0.70434

 Excited State   9:      Singlet-A      7.3056 eV  169.71 nm  f=0.0020  <S**2>=0.000
      40 -> 46         0.65245
      41 -> 47        -0.24553

 Excited State  10:      Singlet-A      7.3822 eV  167.95 nm  f=0.0012  <S**2>=0.000
      40 -> 46         0.25601
      41 -> 47         0.64001

 The electronic state is 1-A.
 Alpha  occ. eigenvalues --  -89.15086 -24.72800 -19.17110 -19.17109 -10.24728
 Alpha  occ. eigenvalues --  -10.23312 -10.22915 -10.22914 -10.21909 -10.21908
 Alpha  occ. eigenvalues --  -10.20734  -8.17379  -6.14058  -6.13729  -6.13606
 Alpha  occ. eigenvalues --   -1.24103  -1.11083  -1.03150  -0.89374  -0.81517
 Alpha  occ. eigenvalues --   -0.77906  -0.73662  -0.67159  -0.64179  -0.60920
 Alpha  occ. eigenvalues --   -0.57119  -0.52573  -0.50475  -0.49386  -0.48227
 Alpha  occ. eigenvalues --   -0.47168  -0.45417  -0.44445  -0.43335  -0.43309
 Alpha  occ. eigenvalues --   -0.41142  -0.39499  -0.38511  -0.37348  -0.37244
 Alpha  occ. eigenvalues --   -0.33900  -0.33796  -0.32170  -0.28266  -0.27820
 Alpha virt. eigenvalues --   -0.05660  -0.03225   0.02853   0.05479   0.08965
 Alpha virt. eigenvalues --    0.10631   0.10663   0.11712   0.12255   0.12955
 Alpha virt. eigenvalues --    0.15313   0.16252   0.17921   0.18535   0.20524

 Mulliken charges:
               1
     1  C   -0.157833
     2  C   -0.132475
     3  C   -0.166646
     4  C    0.168286
     5  C   -0.166645
     6  C   -0.132476
     7  C   -0.529252
     8  S    1.180846
     9  O   -0.485520
    10  O   -0.485520
    11  F   -0.305952
    12  H    0.196449
    13  H    0.156117
    14  H    0.156117
    15  H    0.196452
    16  H    0.165906
    17  H    0.165908
    18  H    0.176239
 Sum of Mulliken charges =   0.00000

 Dipole moment (field-independent basis, Debye):
    X=              6.4813    Y=              0.0000    Z=              0.6846  Tot=              6.5173
 Quadrupole moment (field-independent basis, Debye-Ang):
   XX=            -71.4226   YY=            -66.3744   ZZ=            -72.6094
   XY=             -0.0002   XZ=             -1.9029   YZ=              0.0003

 Summary of Natural Population Analysis:

                                       Natural Population
                Natural  -----------------------------------------------
    Atom  No    Charge         Core      Valence    Rydberg      Total
 -----------------------------------------------------------------------
      C    1   -0.36270      1.99873     4.33586    0.02811     6.36270
      C    2   -0.17677      1.99904     4.15740    0.02033     6.17677
      C    3   -0.17720      1.99907     4.16177    0.01636     6.17720
      C    4   -0.05025      1.99910     4.03529    0.01586     6.05025
      C    5   -0.17720      1.99907     4.16178    0.01636     6.17720
      C    6   -0.17677      1.99904     4.15740    0.02033     6.17677
      C    7   -0.69444      1.99940     4.68712    0.00792     6.69444
      S    8    2.39272      9.99870     3.40489    0.20369    13.60728
      O    9   -0.90634      1.99988     6.88353    0.02292     8.90634
      O   10   -0.90634      1.99988     6.88353    0.02292     8.90634
      F   11   -0.51343      1.99997     7.50407    0.00939     9.51343
      H   12    0.26497      0.00000     0.73373    0.00130     0.73503
      H   13    0.24070      0.00000     0.75833    0.00098     0.75930
      H   14    0.24070      0.00000     0.75833    0.00098     0.75930
      H   15    0.26497      0.00000     0.73373    0.00130     0.73503
      H   16    0.24387      0.00000     0.75494    0.00119     0.75613
      H   17    0.24387      0.00000     0.75494    0.00119     0.75613
      H   18    0.24964      0.00000     0.74860    0.00176     0.75036
 =======================================================================
   * Total *    0.00000     29.99187    59.61524    0.39289    90.00000

 Normal termination of Gaussian 16 at Mon Aug 24 18:25:07 2020.
