 Gaussian 16, Revision A.03,

 ---------------------------------
 # opt=CalcAll B3LYP/6-31G* scf=qc
 ---------------------------------

 -------------------
 Title Card Required
 -------------------
 Symbolic Z-matrix:
 Charge =  0 Multiplicity = 1

 SCF Done:  E(RB3LYP) =  -1698.93069163     a.u. after    9 cycles
 SCF Done:  E(RB3LYP) =  -1699.04549557     a.u. after   12 cycles
 SCF Done:  E(RB3LYP) =  -1699.18589631     a.u. after   13 cycles
 SCF Done:  E(RB3LYP) =  -1699.22699899     a.u. after   13 cycles
 SCF Done:  E(RB3LYP) =  -1699.28086028     a.u. after   11 cycles
 SCF Done:  E(RB3LYP) =  -1699.32418180     a.u. after   13 cycles
 SCF Done:  E(RB3LYP) =  -1699.34075589     a.u. after   13 cycles
 SCF Done:  E(RB3LYP) =  -1699.34748558     a.u. after   13 cycles
 SCF Done:  E(RB3LYP) =  -1699.34962623     a.u. after   13 cycles
 SCF Done:  E(RB3LYP) =  -1699.35084682     a.u. after    9 cycles
 SCF Done:  E(RB3LYP) =  -1699.35103649     a.u. after    9 cycles
 SCF Done:  E(RB3LYP) =  -1699.35104447     a.u. after    4 cycles
 SCF Done:  E(RB3LYP) =  -1699.35104471     a.u. after    3 cycles
 SCF Done:  E(RB3LYP) =  -1699.35104489     a.u. after    2 cycles
 Optimization completed.
    -- Stationary point found.
 Normal termination of Gaussian 16 at Mon Aug 24 18:50:17 2020.

 ----------------------------------------------------------------------
 # freq B3LYP/6-31G* scf=qc volume NMR pop=NPA density=current Geom=All
 Check Guess=Read
 ----------------------------------------------------------------------

 Structure from the checkpoint file:  "sulfonylfluoride_4_conf102.chk"
 -------------------
 Title Card Required
 -------------------
 Charge =  0 Multiplicity = 1

 SCF Done:  E(RB3LYP) =  -1699.35104489     a.u. after    1 cycles

      1  C    Isotropic =    76.4594   Anisotropy =    14.1537

      2  C    Isotropic =    74.8693   Anisotropy =    13.8071

      3  C    Isotropic =    67.8788   Anisotropy =    15.3733

      4  F    Isotropic =   296.7911   Anisotropy =    73.2067

      5  F    Isotropic =   302.1790   Anisotropy =    86.0911

      6  S    Isotropic =   218.6854   Anisotropy =   368.8426

      7  O    Isotropic =   100.4023   Anisotropy =    87.4483

      8  O    Isotropic =    92.6169   Anisotropy =    77.6166

      9  F    Isotropic =   118.9274   Anisotropy =   353.8380

     10  F    Isotropic =   308.9639   Anisotropy =    76.6339

     11  F    Isotropic =   312.9484   Anisotropy =    84.4753

     12  F    Isotropic =   316.9063   Anisotropy =    83.3273

     13  F    Isotropic =   314.3626   Anisotropy =    68.9128

     14  C    Isotropic =    68.5801   Anisotropy =    12.4981

     15  F    Isotropic =   277.8619   Anisotropy =   107.5785

     16  F    Isotropic =   276.6359   Anisotropy =   105.1156

     17  F    Isotropic =   280.4296   Anisotropy =   115.6239

  Exact polarizability:  74.576   3.006  66.195  -0.975   1.130  61.670
 Approx polarizability: 105.323   2.648  98.699  -4.947   3.470 107.612

                      1                      2                      3
                      A                      A                      A
 Frequencies --     43.5007                54.0465                69.4259
 Red. masses --     17.8413                18.7446                18.3780
 Frc consts  --      0.0199                 0.0323                 0.0522
 IR Inten    --      0.0741                 0.0452                 0.0405

                      4                      5                      6
                      A                      A                      A
 Frequencies --     85.3711               120.6518               147.0110
 Red. masses --     18.3113                18.0548                18.1753
 Frc consts  --      0.0786                 0.1549                 0.2314
 IR Inten    --      0.0616                 0.9105                 1.4911

                      7                      8                      9
                      A                      A                      A
 Frequencies --    154.8652               181.4611               218.1406
 Red. masses --     18.2522                17.9242                18.1931
 Frc consts  --      0.2579                 0.3477                 0.5101
 IR Inten    --      2.4170                 2.5909                 0.3841

                     10                     11                     12
                      A                      A                      A
 Frequencies --    233.0132               249.7573               282.7061
 Red. masses --     18.2169                18.0419                18.3341
 Frc consts  --      0.5828                 0.6631                 0.8633
 IR Inten    --      3.5346                 2.0593                 1.5137

                     13                     14                     15
                      A                      A                      A
 Frequencies --    287.8423               295.1189               310.4276
 Red. masses --     18.1188                18.5165                18.3518
 Frc consts  --      0.8845                 0.9502                 1.0420
 IR Inten    --      3.4356                 0.8959                 0.4915

                     16                     17                     18
                      A                      A                      A
 Frequencies --    329.5386               350.8971               361.3707
 Red. masses --     18.4057                18.5571                18.4755
 Frc consts  --      1.1776                 1.3462                 1.4215
 IR Inten    --      0.3907                 0.2215                 0.2564

                     19                     20                     21
                      A                      A                      A
 Frequencies --    391.1544               418.1390               446.9319
 Red. masses --     17.6914                18.4359                17.9642
 Frc consts  --      1.5948                 1.8991                 2.1142
 IR Inten    --      4.2586                12.1846                 3.3895

                     22                     23                     24
                      A                      A                      A
 Frequencies --    453.1710               487.9488               530.4824
 Red. masses --     18.0701                18.0740                17.9507
 Frc consts  --      2.1864                 2.5354                 2.9763
 IR Inten    --     16.2944                 4.3243                 8.1171

                     25                     26                     27
                      A                      A                      A
 Frequencies --    576.8185               582.9161               633.1765
 Red. masses --     19.0310                18.8403                17.5827
 Frc consts  --      3.7307                 3.7718                 4.1532
 IR Inten    --     56.9966                44.5543                23.8041

                     28                     29                     30
                      A                      A                      A
 Frequencies --    638.3080               675.3167               744.6481
 Red. masses --     17.6054                17.5434                16.9908
 Frc consts  --      4.2263                 4.7139                 5.5510
 IR Inten    --      5.7859                 9.9176                24.8647

                     31                     32                     33
                      A                      A                      A
 Frequencies --    792.8367               911.4936              1017.6431
 Red. masses --     21.0620                14.1853                13.4938
 Frc consts  --      7.8004                 6.9438                 8.2333
 IR Inten    --    124.9261               203.2964               113.5977

                     34                     35                     36
                      A                      A                      A
 Frequencies --   1107.8409              1166.7341              1191.8814
 Red. masses --     13.6185                13.5694                15.1157
 Frc consts  --      9.8477                10.8831                12.6516
 IR Inten    --      5.8751               115.0089               111.1131

                     37                     38                     39
                      A                      A                      A
 Frequencies --   1200.8527              1217.4511              1237.4128
 Red. masses --     14.0590                13.7880                13.4920
 Frc consts  --     11.9449                12.0408                12.1719
 IR Inten    --    102.3648                18.4281               127.6725

                     40                     41                     42
                      A                      A                      A
 Frequencies --   1257.3444              1265.2246              1274.8077
 Red. masses --     12.9540                13.2024                12.7043
 Frc consts  --     12.0660                12.4519                12.1644
 IR Inten    --    261.4749               331.2515                84.0972

                     43                     44                     45
                      A                      A                      A
 Frequencies --   1297.8529              1361.4256              1418.1805
 Red. masses --     12.6308                12.5613                20.7100
 Frc consts  --     12.5352                13.7174                24.5410
 IR Inten    --    108.6213                42.9742               210.1579

 - Thermochemistry -
 -------------------
 Temperature   298.150 Kelvin.  Pressure   1.00000 Atm.
 Atom     1 has atomic number  6 and mass  12.00000

 Molecular mass:   301.94593 amu.
 Principal axes and moments of inertia in atomic units:
                           1         2         3
     Eigenvalues --  2649.659644655.795815421.03104
           X            0.99994   0.01077   0.00156
           Y           -0.01078   0.99991   0.00735
           Z           -0.00148  -0.00737   0.99997
 This molecule is an asymmetric top.
 Rotational symmetry number  1.
 Warning -- assumption of classical behavior for rotation
           may cause significant error
 Rotational temperatures (Kelvin)      0.03269     0.01860     0.01598
 Rotational constants (GHZ):           0.68112     0.38763     0.33291
 Zero-point vibrational energy     167914.7 (Joules/Mol)
                                   40.13257 (Kcal/Mol)
 Warning -- explicit consideration of  26 degrees of freedom as
           vibrations may cause significant error
 Vibrational temperatures:     62.59    77.76    99.89   122.83   173.59
          (Kelvin)            211.52   222.82   261.08   313.86   335.25
                              359.35   406.75   414.14   424.61   446.64
                              474.13   504.86   519.93   562.78   601.61
                              643.04   652.01   702.05   763.25   829.91
                              838.69   911.00   918.38   971.63  1071.38
                             1140.72  1311.44  1464.16  1593.94  1678.67
                             1714.85  1727.76  1751.64  1780.36  1809.04
                             1820.38  1834.16  1867.32  1958.79  2040.45

 Zero-point correction=                           0.063955 (Hartree/Particle)
 Thermal correction to Energy=                    0.079683
 Thermal correction to Enthalpy=                  0.080627
 Thermal correction to Gibbs Free Energy=         0.020344
 Sum of electronic and zero-point Energies=          -1699.287090
 Sum of electronic and thermal Energies=             -1699.271362
 Sum of electronic and thermal Enthalpies=           -1699.270418
 Sum of electronic and thermal Free Energies=        -1699.330701

                     E (Thermal)             CV                S
                      KCal/Mol        Cal/Mol-Kelvin    Cal/Mol-Kelvin
 Total                   50.002             55.744            126.877
 Electronic               0.000              0.000              0.000
 Translational            0.889              2.981             43.012
 Rotational               0.889              2.981             32.570
 Vibrational             48.224             49.782             51.296
 Vibration     1          0.595              1.980              5.093
 Vibration     2          0.596              1.976              4.664
 Vibration     3          0.598              1.969              4.170
 Vibration     4          0.601              1.959              3.763
 Vibration     5          0.609              1.932              3.090
 Vibration     6          0.617              1.906              2.711
 Vibration     7          0.620              1.897              2.612
 Vibration     8          0.630              1.865              2.313
 Vibration     9          0.646              1.813              1.974
 Vibration    10          0.654              1.790              1.856
 Vibration    11          0.663              1.763              1.732
 Vibration    12          0.682              1.706              1.517
 Vibration    13          0.685              1.696              1.487
 Vibration    14          0.689              1.683              1.444
 Vibration    15          0.699              1.654              1.360
 Vibration    16          0.712              1.616              1.262
 Vibration    17          0.728              1.573              1.162
 Vibration    18          0.736              1.552              1.116
 Vibration    19          0.759              1.489              0.996
 Vibration    20          0.781              1.431              0.898
 Vibration    21          0.806              1.368              0.805
 Vibration    22          0.812              1.354              0.786
 Vibration    23          0.844              1.277              0.689
 Vibration    24          0.885              1.183              0.586
 Vibration    25          0.933              1.081              0.491
 Vibration    26          0.940              1.068              0.480

 Optimization completed.
    -- Stationary point found.
 Normal termination of Gaussian 16 at Mon Aug 24 18:56:46 2020.
 Gaussian 16:  ES64L-G16RevA.03 25-Dec-2016

 ----------------------------------------------------------------------
 # TD(NStates=10, Root=1) B3LYP/6-31G* scf=qc volume pop=NPA density=cu
 rrent Geom=AllCheck Guess=Read
 ----------------------------------------------------------------------

 Structure from the checkpoint file:  "sulfonylfluoride_4_conf103.chk"
 -------------------
 Title Card Required
 -------------------
 Charge =  0 Multiplicity = 1

                         Standard orientation:
 ---------------------------------------------------------------------
 Center     Atomic      Atomic             Coordinates (Angstroms)
 Number     Number       Type             X           Y           Z
 ---------------------------------------------------------------------
      1          6           0        1.399597    0.421084    0.477110
      2          6           0        0.257054    1.095044   -0.367919
      3          6           0       -1.225761    0.875660    0.073209
      4          9           0       -1.390244    1.282400    1.337543
      5          9           0       -1.983264    1.630150   -0.745991
      6         16           0       -2.008858   -0.827824   -0.084282
      7          8           0       -3.352478   -0.725909    0.435999
      8          8           0       -1.680843   -1.403558   -1.368196
      9          9           0       -1.120626   -1.577583    1.031431
     10          9           0        0.426870    2.433807   -0.280575
     11          9           0        0.370829    0.727307   -1.662901
     12          9           0        0.915420    0.064978    1.689886
     13          9           0        2.378134    1.332377    0.653010
     14          6           0        2.061040   -0.825376   -0.169848
     15          9           0        1.137749   -1.732730   -0.513354
     16          9           0        2.751627   -0.465857   -1.255770
     17          9           0        2.897585   -1.374577    0.716807
 ---------------------------------------------------------------------

 SCF Done:  E(RB3LYP) =  -1699.35104489     a.u. after    1 cycles

 Excitation energies and oscillator strengths:

 Excited State   1:      Singlet-A      7.5040 eV  165.23 nm  f=0.0002  <S**2>=0.000
      72 -> 74         0.51735
      72 -> 75        -0.24688
      72 -> 76         0.10468
      73 -> 74        -0.34631
      73 -> 75         0.16487
 This state for optimization and/or second-order correction.
 Total Energy, E(TD-HF/TD-DFT) =  -1699.07527961
 Copying the excited state density for this state as the 1-particle RhoCI density.

 Excited State   2:      Singlet-A      7.6792 eV  161.45 nm  f=0.0013  <S**2>=0.000
      71 -> 75        -0.23282
      72 -> 74        -0.28650
      72 -> 75        -0.27795
      73 -> 75         0.51104

 Excited State   3:      Singlet-A      7.7886 eV  159.19 nm  f=0.0039  <S**2>=0.000
      70 -> 75        -0.12569
      71 -> 75         0.12476
      72 -> 75         0.50641
      73 -> 74        -0.23585
      73 -> 75         0.36402

 Excited State   4:      Singlet-A      8.0064 eV  154.86 nm  f=0.0522  <S**2>=0.000
      70 -> 74        -0.12634
      71 -> 74         0.47035
      72 -> 74        -0.23622
      73 -> 74        -0.40606
      73 -> 75        -0.12704

 Excited State   5:      Singlet-A      8.0683 eV  153.67 nm  f=0.0796  <S**2>=0.000
      71 -> 74         0.49575
      72 -> 74         0.25832
      72 -> 75         0.13949
      73 -> 74         0.33731
      73 -> 75         0.10230

 Excited State   6:      Singlet-A      8.4570 eV  146.60 nm  f=0.0124  <S**2>=0.000
      71 -> 75         0.57781
      71 -> 78        -0.10580
      72 -> 75        -0.16884
      72 -> 76         0.19421
      72 -> 78        -0.11897
      73 -> 74         0.10995
      73 -> 75         0.11203

 Excited State   7:      Singlet-A      8.6337 eV  143.61 nm  f=0.0509  <S**2>=0.000
      70 -> 74         0.64064
      72 -> 76        -0.13862
      73 -> 76        -0.11176

 Excited State   8:      Singlet-A      8.7407 eV  141.85 nm  f=0.0104  <S**2>=0.000
      70 -> 75         0.42782
      73 -> 76         0.51105

 Excited State   9:      Singlet-A      8.8399 eV  140.25 nm  f=0.0103  <S**2>=0.000
      69 -> 75        -0.10841
      70 -> 74        -0.12172
      70 -> 75         0.48020
      72 -> 76         0.11955
      73 -> 76        -0.41481
      73 -> 77         0.10525

 Excited State  10:      Singlet-A      8.9453 eV  138.60 nm  f=0.0147  <S**2>=0.000
      69 -> 75        -0.10626
      70 -> 74         0.12285
      70 -> 75        -0.12035
      71 -> 75        -0.16166
      71 -> 76        -0.14975
      71 -> 78         0.12558
      72 -> 76         0.59239

 The electronic state is 1-A.
 Alpha  occ. eigenvalues --  -89.18826 -24.78553 -24.78297 -24.77647 -24.77455
 Alpha  occ. eigenvalues --  -24.77133 -24.77064 -24.77022 -24.76731 -24.76693
 Alpha  occ. eigenvalues --  -24.76651 -19.21480 -19.21418 -10.48007 -10.44879
 Alpha  occ. eigenvalues --  -10.43543 -10.42734  -8.21269  -6.17931  -6.17579
 Alpha  occ. eigenvalues --   -6.17507  -1.35424  -1.34277  -1.32091  -1.30984
 Alpha  occ. eigenvalues --   -1.28967  -1.27406  -1.26608  -1.26223  -1.26026
 Alpha  occ. eigenvalues --   -1.25306  -1.15345  -1.07498  -0.85431  -0.81066
 Alpha  occ. eigenvalues --   -0.75819  -0.71643  -0.68615  -0.65511  -0.64950
 Alpha  occ. eigenvalues --   -0.64021  -0.63352  -0.62789  -0.62132  -0.60086
 Alpha  occ. eigenvalues --   -0.59955  -0.59092  -0.56153  -0.53470  -0.52457
 Alpha  occ. eigenvalues --   -0.51827  -0.50660  -0.50320  -0.49685  -0.49464
 Alpha  occ. eigenvalues --   -0.49220  -0.48540  -0.47886  -0.47396  -0.46562
 Alpha  occ. eigenvalues --   -0.46346  -0.46169  -0.45758  -0.44994  -0.44844
 Alpha  occ. eigenvalues --   -0.44522  -0.43825  -0.42787  -0.41568  -0.38526
 Alpha  occ. eigenvalues --   -0.38033  -0.36190  -0.36028
 Alpha virt. eigenvalues --   -0.03295  -0.02633   0.00563   0.02305   0.04681
 Alpha virt. eigenvalues --    0.06547   0.10279   0.11809   0.14598   0.16897
 Alpha virt. eigenvalues --    0.18256   0.18753   0.21481   0.23721   0.24567

 Mulliken charges:
               1
     1  C    0.467441
     2  C    0.520337
     3  C    0.337458
     4  F   -0.244095
     5  F   -0.264774
     6  S    1.042496
     7  O   -0.287599
     8  O   -0.290966
     9  F   -0.281517
    10  F   -0.269484
    11  F   -0.263861
    12  F   -0.263684
    13  F   -0.263640
    14  C    0.790251
    15  F   -0.242321
    16  F   -0.242064
    17  F   -0.243979
 Sum of Mulliken charges =  -0.00000

 Dipole moment (field-independent basis, Debye):
    X=             -0.3340    Y=             -0.1448    Z=             -0.3640  Tot=              0.5148
 Quadrupole moment (field-independent basis, Debye-Ang):
   XX=            -94.9840   YY=            -96.5557   ZZ=            -96.2621
   XY=             -0.0723   XZ=              0.6326   YZ=              0.7481

 Summary of Natural Population Analysis:

                                       Natural Population
                Natural  -----------------------------------------------
    Atom  No    Charge         Core      Valence    Rydberg      Total
 -----------------------------------------------------------------------
      C    1    0.64721      1.99887     3.29979    0.05413     5.35279
      C    2    0.64923      1.99887     3.29521    0.05669     5.35077
      C    3    0.47260      1.99916     3.46134    0.06690     5.52740
      F    4   -0.33458      1.99993     7.32516    0.00949     9.33458
      F    5   -0.35373      1.99993     7.34463    0.00917     9.35373
      S    6    2.02458      9.99907     3.75665    0.21970    13.97542
      O    7   -0.63844      1.99989     6.61447    0.02408     8.63844
      O    8   -0.62339      1.99989     6.59969    0.02382     8.62339
      F    9   -0.50534      1.99997     7.49523    0.01013     9.50534
      F   10   -0.34135      1.99994     7.33271    0.00871     9.34135
      F   11   -0.35023      1.99993     7.34211    0.00819     9.35023
      F   12   -0.34360      1.99993     7.33552    0.00814     9.34360
      F   13   -0.33806      1.99993     7.32972    0.00840     9.33806
      C   14    1.07241      1.99926     2.85354    0.07479     4.92759
      F   15   -0.35247      1.99992     7.34510    0.00745     9.35247
      F   16   -0.34331      1.99993     7.33601    0.00738     9.34331
      F   17   -0.34152      1.99993     7.33433    0.00726     9.34152
 =======================================================================
   * Total *    0.00000     41.99436   103.40120    0.60444   146.00000

 Normal termination of Gaussian 16 at Mon Aug 24 19:05:13 2020.
