 Gaussian 16, Revision A.03,

 ---------------------------------
 # opt=CalcAll B3LYP/6-31G* scf=qc
 ---------------------------------

 -------------------
 Title Card Required
 -------------------
 Symbolic Z-matrix:
 Charge =  0 Multiplicity = 1

 SCF Done:  E(RB3LYP) =  -1554.12205451     a.u. after    8 cycles
 SCF Done:  E(RB3LYP) =  -1554.12890523     a.u. after   13 cycles
 SCF Done:  E(RB3LYP) =  -1554.12978211     a.u. after   15 cycles
 SCF Done:  E(RB3LYP) =  -1554.12987343     a.u. after   13 cycles
 SCF Done:  E(RB3LYP) =  -1554.12992067     a.u. after    9 cycles
 SCF Done:  E(RB3LYP) =  -1554.12992403     a.u. after    7 cycles
 SCF Done:  E(RB3LYP) =  -1554.12993009     a.u. after    6 cycles
 SCF Done:  E(RB3LYP) =  -1554.12993136     a.u. after    5 cycles
 Optimization completed.
    -- Stationary point found.
 Normal termination of Gaussian 16 at Mon Aug 24 19:06:42 2020.

 ----------------------------------------------------------------------
 # freq B3LYP/6-31G* scf=qc volume NMR pop=NPA density=current Geom=All
 Check Guess=Read
 ----------------------------------------------------------------------

 Structure from the checkpoint file:  "sulfonylfluoride_7_conf12.chk"
 -------------------
 Title Card Required
 -------------------
 Charge =  0 Multiplicity = 1

 SCF Done:  E(RB3LYP) =  -1554.12993136     a.u. after    1 cycles

      1  C    Isotropic =    59.7267   Anisotropy =   151.5713

      2  C    Isotropic =    65.2827   Anisotropy =   177.5310

      3  C    Isotropic =    59.7270   Anisotropy =   151.5710

      4  C    Isotropic =    67.0556   Anisotropy =   173.3728

      5  C    Isotropic =    53.9029   Anisotropy =   112.8413

      6  C    Isotropic =    67.0575   Anisotropy =   173.3726

      7  S    Isotropic =   219.5205   Anisotropy =   341.5787

      8  O    Isotropic =   104.5452   Anisotropy =    71.6030

      9  O    Isotropic =   104.5264   Anisotropy =    71.5931

     10  F    Isotropic =    96.4347   Anisotropy =   360.8620

     11  C    Isotropic =    64.8026   Anisotropy =    14.7549

     12  F    Isotropic =   271.0963   Anisotropy =   121.0761

     13  F    Isotropic =   248.4640   Anisotropy =   121.2746

     14  F    Isotropic =   274.6937   Anisotropy =   119.3651

     15  C    Isotropic =    64.8026   Anisotropy =    14.7536

     16  F    Isotropic =   271.0806   Anisotropy =   121.0807

     17  F    Isotropic =   274.7150   Anisotropy =   119.3560

     18  F    Isotropic =   248.4615   Anisotropy =   121.2776

     19  H    Isotropic =    24.2081   Anisotropy =    11.4675

     20  H    Isotropic =    24.0515   Anisotropy =    10.9750

     21  H    Isotropic =    24.0516   Anisotropy =    10.9750

  Exact polarizability: 129.845  -0.000 119.521  -3.223  -0.000  60.669
 Approx polarizability: 194.597   0.000 200.703  -6.688  -0.002 100.179

                      1                      2                      3
                      A                      A                      A
 Frequencies --     13.4573                16.0466                27.8837
 Red. masses --     18.8761                18.8057                17.1401
 Frc consts  --      0.0020                 0.0029                 0.0079
 IR Inten    --      0.0113                 0.0426                 0.0847

                      4                      5                      6
                      A                      A                      A
 Frequencies --     72.3844               102.7341               108.7797
 Red. masses --     13.7565                15.6638                16.7177
 Frc consts  --      0.0425                 0.0974                 0.1166
 IR Inten    --      2.9827                 2.0141                 0.7907

                      7                      8                      9
                      A                      A                      A
 Frequencies --    134.7678               149.2854               233.8547
 Red. masses --      8.6288                 7.7886                12.5802
 Frc consts  --      0.0923                 0.1023                 0.4053
 IR Inten    --      0.0308                 0.0368                 0.1025

                     10                     11                     12
                      A                      A                      A
 Frequencies --    240.2342               278.4850               279.0777
 Red. masses --     12.9697                 6.9480                14.7392
 Frc consts  --      0.4410                 0.3175                 0.6764
 IR Inten    --      0.4341                 1.0317                 1.4070

                     13                     14                     15
                      A                      A                      A
 Frequencies --    292.5493               313.0847               349.2240
 Red. masses --     12.7674                 5.3766                10.7930
 Frc consts  --      0.6438                 0.3105                 0.7755
 IR Inten    --      1.0427                 0.2527                 1.2894

                     16                     17                     18
                      A                      A                      A
 Frequencies --    382.0370               411.2613               434.3669
 Red. masses --     10.5413                10.3861                10.4814
 Frc consts  --      0.9065                 1.0350                 1.1652
 IR Inten    --     11.0132                 9.7230                 0.2503

                     19                     20                     21
                      A                      A                      A
 Frequencies --    453.6393               490.4487               496.2451
 Red. masses --     13.6137                10.3313                12.0353
 Frc consts  --      1.6506                 1.4642                 1.7462
 IR Inten    --      6.1420                 3.3769                 0.2995

                     22                     23                     24
                      A                      A                      A
 Frequencies --    520.5676               564.9373               579.7135
 Red. masses --     12.9413                16.7823                15.0244
 Frc consts  --      2.0662                 3.1557                 2.9749
 IR Inten    --      6.2958                16.7273               129.6344

                     25                     26                     27
                      A                      A                      A
 Frequencies --    604.6861               610.6637               674.0507
 Red. masses --      8.2093                 8.1593                 7.9306
 Frc consts  --      1.7685                 1.7927                 2.1230
 IR Inten    --     12.2077                 0.9413                 9.1606

                     28                     29                     30
                      A                      A                      A
 Frequencies --    680.2885               708.3187               714.1757
 Red. masses --     12.5663                 2.7592                14.2166
 Frc consts  --      3.4265                 0.8156                 4.2722
 IR Inten    --     35.2292                14.2864                 5.3637

                     31                     32                     33
                      A                      A                      A
 Frequencies --    781.7237               847.3900               858.3158
 Red. masses --     18.9421                12.6335                12.3571
 Frc consts  --      6.8200                 5.3449                 5.3636
 IR Inten    --    151.9046                63.7791                17.3760

                     34                     35                     36
                      A                      A                      A
 Frequencies --    920.1601               951.0126               957.6958
 Red. masses --      1.4920                 1.3752                 1.3620
 Frc consts  --      0.7443                 0.7328                 0.7360
 IR Inten    --     31.3729                 0.0580                 2.5675

                     37                     38                     39
                      A                      A                      A
 Frequencies --   1014.4910              1119.5577              1130.2178
 Red. masses --      6.3542                 9.7062                 2.0062
 Frc consts  --      3.8531                 7.1679                 1.5099
 IR Inten    --      1.2961                58.8767                47.5234

                     40                     41                     42
                      A                      A                      A
 Frequencies --   1133.4745              1184.1116              1202.2447
 Red. masses --      1.9310                 8.9498                12.9235
 Frc consts  --      1.4617                 7.3934                11.0056
 IR Inten    --     21.5980               283.1272                 6.5885

                     43                     44                     45
                      A                      A                      A
 Frequencies --   1206.4084              1224.0622              1230.4577
 Red. masses --     12.8132                 8.1996                 6.5408
 Frc consts  --     10.9874                 7.2385                 5.8347
 IR Inten    --    527.6162                66.8696               213.8400

                     46                     47                     48
                      A                      A                      A
 Frequencies --   1293.2992              1309.0774              1372.6069
 Red. masses --      3.3460                 1.4368                 5.7804
 Frc consts  --      3.2974                 1.4507                 6.4165
 IR Inten    --    558.4646                38.9849                48.3475

                     49                     50                     51
                      A                      A                      A
 Frequencies --   1374.4419              1398.8168              1485.3661
 Red. masses --      6.5646                12.4865                 3.7348
 Frc consts  --      7.3065                14.3951                 4.8550
 IR Inten    --    131.4896               130.9781                 5.0875

                     52                     53                     54
                      A                      A                      A
 Frequencies --   1497.5854              1649.7671              1670.4245
 Red. masses --      4.1648                 6.1909                 5.9328
 Frc consts  --      5.5033                 9.9276                 9.7536
 IR Inten    --      1.8780                12.1079                12.6029

                     55                     56                     57
                      A                      A                      A
 Frequencies --   3238.9541              3244.8533              3244.9322
 Red. masses --      1.0915                 1.0913                 1.0924
 Frc consts  --      6.7464                 6.7697                 6.7772
 IR Inten    --      0.7849                 7.3329                 4.8894

 - Thermochemistry -
 -------------------
 Temperature   298.150 Kelvin.  Pressure   1.00000 Atm.
 Atom     1 has atomic number  6 and mass  12.00000

 Molecular mass:   295.97420 amu.
 Principal axes and moments of inertia in atomic units:
                           1         2         3
     Eigenvalues --  5108.823065823.043089907.16818
           X            0.99999  -0.00001  -0.00400
           Y            0.00001   1.00000  -0.00000
           Z            0.00400   0.00000   0.99999
 This molecule is an asymmetric top.
 Rotational symmetry number  1.
 Warning -- assumption of classical behavior for rotation
           may cause significant error
 Rotational temperatures (Kelvin)      0.01695     0.01487     0.00874
 Rotational constants (GHZ):           0.35326     0.30993     0.18217
 Zero-point vibrational energy     295948.3 (Joules/Mol)
                                   70.73335 (Kcal/Mol)
 Warning -- explicit consideration of  26 degrees of freedom as
           vibrations may cause significant error
 Vibrational temperatures:     19.36    23.09    40.12   104.15   147.81
          (Kelvin)            156.51   193.90   214.79   336.46   345.64
                              400.68   401.53   420.91   450.46   502.46
                              549.67   591.71   624.96   652.69   705.65
                              713.99   748.98   812.82   834.08   870.01
                              878.61   969.81   978.78  1019.11  1027.54
                             1124.73  1219.21  1234.93  1323.91  1368.30
                             1377.91  1459.63  1610.79  1626.13  1630.82
                             1703.67  1729.76  1735.75  1761.15  1770.35
                             1860.77  1883.47  1974.88  1977.52  2012.59
                             2137.11  2154.69  2373.65  2403.37  4660.13
                             4668.62  4668.73

 Zero-point correction=                           0.112721 (Hartree/Particle)
 Thermal correction to Energy=                    0.128459
 Thermal correction to Enthalpy=                  0.129403
 Thermal correction to Gibbs Free Energy=         0.065406
 Sum of electronic and zero-point Energies=          -1554.017211
 Sum of electronic and thermal Energies=             -1554.001472
 Sum of electronic and thermal Enthalpies=           -1554.000528
 Sum of electronic and thermal Free Energies=        -1554.064525

                     E (Thermal)             CV                S
                      KCal/Mol        Cal/Mol-Kelvin    Cal/Mol-Kelvin
 Total                   80.609             56.666            134.694
 Electronic               0.000              0.000              0.000
 Translational            0.889              2.981             42.952
 Rotational               0.889              2.981             34.043
 Vibrational             78.832             50.704             57.699
 Vibration     1          0.593              1.987              7.421
 Vibration     2          0.593              1.986              7.072
 Vibration     3          0.593              1.984              5.975
 Vibration     4          0.598              1.967              4.087
 Vibration     5          0.605              1.947              3.402
 Vibration     6          0.606              1.942              3.291
 Vibration     7          0.613              1.919              2.877
 Vibration     8          0.618              1.903              2.681
 Vibration     9          0.654              1.789              1.849
 Vibration    10          0.657              1.779              1.801
 Vibration    11          0.679              1.713              1.543
 Vibration    12          0.679              1.712              1.539
 Vibration    13          0.688              1.688              1.459
 Vibration    14          0.701              1.649              1.346
 Vibration    15          0.726              1.577              1.170
 Vibration    16          0.752              1.508              1.031
 Vibration    17          0.775              1.446              0.922
 Vibration    18          0.795              1.395              0.845
 Vibration    19          0.812              1.353              0.785
 Vibration    20          0.846              1.271              0.682
 Vibration    21          0.852              1.258              0.668
 Vibration    22          0.876              1.204              0.609
 Vibration    23          0.921              1.107              0.514
 Vibration    24          0.936              1.075              0.486
 Vibration    25          0.963              1.022              0.442
 Vibration    26          0.970              1.009              0.432

 Optimization completed.
    -- Stationary point found.
 Normal termination of Gaussian 16 at Mon Aug 24 19:14:53 2020.
 Gaussian 16:  ES64L-G16RevA.03 25-Dec-2016

 ----------------------------------------------------------------------
 # TD(NStates=10, Root=1) B3LYP/6-31G* scf=qc volume pop=NPA density=cu
 rrent Geom=AllCheck Guess=Read
 ----------------------------------------------------------------------

 Structure from the checkpoint file:  "sulfonylfluoride_7_conf13.chk"
 -------------------
 Title Card Required
 -------------------
 Charge =  0 Multiplicity = 1

                         Standard orientation:
 ---------------------------------------------------------------------
 Center     Atomic      Atomic             Coordinates (Angstroms)
 Number     Number       Type             X           Y           Z
 ---------------------------------------------------------------------
      1          6           0       -0.898606    1.209318    0.024688
      2          6           0       -1.594775    0.000048    0.061749
      3          6           0       -0.898694   -1.209269    0.024636
      4          6           0        0.494352   -1.220292   -0.040900
      5          6           0        1.167291   -0.000049   -0.066112
      6          6           0        0.494441    1.220243   -0.040835
      7         16           0        2.949074   -0.000128   -0.134056
      8          8           0        3.419484   -1.274935   -0.638185
      9          8           0        3.419585    1.274286   -0.639086
     10          9           0        3.266980    0.000431    1.454337
     11          6           0       -1.663556   -2.511756    0.002633
     12          9           0       -2.801511   -2.422838    0.720804
     13          9           0       -2.009251   -2.850664   -1.256743
     14          9           0       -0.930465   -3.523458    0.506859
     15          6           0       -1.663392    2.511850    0.002628
     16          9           0       -2.800996    2.423246    0.721397
     17          9           0       -0.929981    3.523673    0.506142
     18          9           0       -2.009706    2.850351   -1.256687
     19          1           0       -2.676848    0.000089    0.129526
     20          1           0        1.045482   -2.153180   -0.071237
     21          1           0        1.045639    2.153093   -0.071104
 ---------------------------------------------------------------------

 SCF Done:  E(RB3LYP) =  -1554.12993136     a.u. after    1 cycles

 Excitation energies and oscillator strengths:

 Excited State   1:      Singlet-A      5.2174 eV  237.64 nm  f=0.0043  <S**2>=0.000
      72 -> 75         0.44025
      73 -> 74         0.55151
 This state for optimization and/or second-order correction.
 Total Energy, E(TD-HF/TD-DFT) =  -1553.93819551
 Copying the excited state density for this state as the 1-particle RhoCI density.

 Excited State   2:      Singlet-A      5.8761 eV  211.00 nm  f=0.0435  <S**2>=0.000
      72 -> 74         0.59729
      73 -> 75        -0.36305

 Excited State   3:      Singlet-A      6.0438 eV  205.14 nm  f=0.0014  <S**2>=0.000
      70 -> 74         0.16839
      71 -> 74         0.67982

 Excited State   4:      Singlet-A      6.3758 eV  194.46 nm  f=0.0281  <S**2>=0.000
      69 -> 74         0.66458
      73 -> 75        -0.22146

 Excited State   5:      Singlet-A      6.4678 eV  191.69 nm  f=0.0065  <S**2>=0.000
      70 -> 74         0.65320
      71 -> 74        -0.15583
      72 -> 75        -0.14744
      73 -> 74         0.12525

 Excited State   6:      Singlet-A      6.5000 eV  190.75 nm  f=0.0035  <S**2>=0.000
      71 -> 75         0.70410

 Excited State   7:      Singlet-A      6.6688 eV  185.92 nm  f=0.2114  <S**2>=0.000
      69 -> 75         0.43129
      70 -> 74        -0.17528
      72 -> 75        -0.41208
      73 -> 74         0.30795

 Excited State   8:      Singlet-A      6.7750 eV  183.00 nm  f=0.5921  <S**2>=0.000
      69 -> 74         0.19808
      72 -> 74         0.35582
      73 -> 75         0.54680

 Excited State   9:      Singlet-A      6.9044 eV  179.57 nm  f=0.2252  <S**2>=0.000
      69 -> 75         0.54726
      72 -> 75         0.31610
      73 -> 74        -0.27669

 Excited State  10:      Singlet-A      6.9376 eV  178.71 nm  f=0.0034  <S**2>=0.000
      70 -> 75         0.69972

 The electronic state is 1-A.
 Alpha  occ. eigenvalues --  -89.17482 -24.75271 -24.75271 -24.75209 -24.75209
 Alpha  occ. eigenvalues --  -24.75180 -24.74638 -24.74638 -19.19420 -19.19419
 Alpha  occ. eigenvalues --  -10.46364 -10.46364 -10.28122 -10.26576 -10.26573
 Alpha  occ. eigenvalues --  -10.26503 -10.26502 -10.26212  -8.19761  -6.16436
 Alpha  occ. eigenvalues --   -6.16102  -6.16007  -1.32919  -1.32917  -1.26576
 Alpha  occ. eigenvalues --   -1.24368  -1.24366  -1.23876  -1.23876  -1.13438
 Alpha  occ. eigenvalues --   -1.05534  -0.93522  -0.84416  -0.84214  -0.73743
 Alpha  occ. eigenvalues --   -0.73739  -0.72761  -0.66764  -0.65719  -0.62530
 Alpha  occ. eigenvalues --   -0.61208  -0.60683  -0.60624  -0.60348  -0.56331
 Alpha  occ. eigenvalues --   -0.56265  -0.55458  -0.53597  -0.53132  -0.50715
 Alpha  occ. eigenvalues --   -0.48317  -0.48284  -0.48133  -0.47910  -0.46412
 Alpha  occ. eigenvalues --   -0.45640  -0.45370  -0.45055  -0.44713  -0.44567
 Alpha  occ. eigenvalues --   -0.44000  -0.43843  -0.42668  -0.42324  -0.42322
 Alpha  occ. eigenvalues --   -0.41546  -0.39938  -0.39464  -0.36284  -0.36110
 Alpha  occ. eigenvalues --   -0.34419  -0.32159  -0.31913
 Alpha virt. eigenvalues --   -0.09069  -0.07817   0.00166   0.02733   0.06984
 Alpha virt. eigenvalues --    0.08524   0.09357   0.09784   0.11170   0.12555
 Alpha virt. eigenvalues --    0.13814   0.14484   0.17960   0.18703   0.18974

 Mulliken charges:
               1
     1  C   -0.019795
     2  C   -0.177337
     3  C   -0.019794
     4  C   -0.151597
     5  C   -0.176407
     6  C   -0.151590
     7  S    1.210949
     8  O   -0.468980
     9  O   -0.468975
    10  F   -0.293899
    11  C    0.804727
    12  F   -0.258565
    13  F   -0.245808
    14  F   -0.257805
    15  C    0.804727
    16  F   -0.258562
    17  F   -0.257810
    18  F   -0.245809
    19  H    0.192862
    20  H    0.219739
    21  H    0.219729
 Sum of Mulliken charges =  -0.00000

 Dipole moment (field-independent basis, Debye):
    X=             -2.9061    Y=              0.0004    Z=              0.7493  Tot=              3.0012
 Quadrupole moment (field-independent basis, Debye-Ang):
   XX=           -118.1935   YY=           -108.6691   ZZ=           -104.4541
   XY=              0.0015   XZ=              2.5416   YZ=              0.0012

 Summary of Natural Population Analysis:

                                       Natural Population
                Natural  -----------------------------------------------
    Atom  No    Charge         Core      Valence    Rydberg      Total
 -----------------------------------------------------------------------
      C    1   -0.10172      1.99890     4.08449    0.01833     6.10172
      C    2   -0.20590      1.99905     4.18809    0.01876     6.20590
      C    3   -0.10172      1.99890     4.08449    0.01833     6.10172
      C    4   -0.16446      1.99899     4.14516    0.02032     6.16446
      C    5   -0.33378      1.99873     4.30600    0.02905     6.33378
      C    6   -0.16446      1.99899     4.14515    0.02032     6.16446
      S    7    2.40869      9.99873     3.38945    0.20314    13.59131
      O    8   -0.89101      1.99988     6.86776    0.02336     8.89101
      O    9   -0.89099      1.99988     6.86774    0.02337     8.89099
      F   10   -0.50139      1.99997     7.49187    0.00955     9.50139
      C   11    1.11498      1.99912     2.81540    0.07049     4.88502
      F   12   -0.35460      1.99993     7.34825    0.00642     9.35460
      F   13   -0.34871      1.99993     7.34238    0.00639     9.34871
      F   14   -0.35376      1.99993     7.34741    0.00641     9.35376
      C   15    1.11498      1.99912     2.81541    0.07049     4.88502
      F   16   -0.35459      1.99993     7.34825    0.00642     9.35459
      F   17   -0.35376      1.99993     7.34742    0.00641     9.35376
      F   18   -0.34871      1.99993     7.34238    0.00639     9.34871
      H   19    0.26831      0.00000     0.72967    0.00202     0.73169
      H   20    0.28130      0.00000     0.71682    0.00188     0.71870
      H   21    0.28130      0.00000     0.71682    0.00188     0.71870
 =======================================================================
   * Total *    0.00000     43.98984   101.44042    0.56974   146.00000

 Normal termination of Gaussian 16 at Mon Aug 24 19:25:22 2020.
