 Gaussian 16, Revision A.03,

 ---------------------------------
 # opt=CalcAll B3LYP/6-31G* scf=qc
 ---------------------------------

 -------------------
 Title Card Required
 -------------------
 Symbolic Z-matrix:
 Charge =  0 Multiplicity = 1

 SCF Done:  E(RB3LYP) =  -1699.26363847     a.u. after    8 cycles
 SCF Done:  E(RB3LYP) =  -1699.29912209     a.u. after   15 cycles
 SCF Done:  E(RB3LYP) =  -1699.33517436     a.u. after   13 cycles
 SCF Done:  E(RB3LYP) =  -1699.34854729     a.u. after   15 cycles
 SCF Done:  E(RB3LYP) =  -1699.35303698     a.u. after   13 cycles
 SCF Done:  E(RB3LYP) =  -1699.35379489     a.u. after   15 cycles
 SCF Done:  E(RB3LYP) =  -1699.35469837     a.u. after   11 cycles
 SCF Done:  E(RB3LYP) =  -1699.35476587     a.u. after    9 cycles
 SCF Done:  E(RB3LYP) =  -1699.35478299     a.u. after    7 cycles
 SCF Done:  E(RB3LYP) =  -1699.35478334     a.u. after    4 cycles
 Optimization completed.
    -- Stationary point found.
 Normal termination of Gaussian 16 at Mon Aug 24 18:44:10 2020.

 ----------------------------------------------------------------------
 # freq B3LYP/6-31G* scf=qc volume NMR pop=NPA density=current Geom=All
 Check Guess=Read
 ----------------------------------------------------------------------

 Structure from the checkpoint file:  "sulfonylfluoride_4_conf92.chk"
 -------------------
 Title Card Required
 -------------------
 Charge =  0 Multiplicity = 1

 SCF Done:  E(RB3LYP) =  -1699.35478334     a.u. after    1 cycles

      1  C    Isotropic =    77.1933   Anisotropy =    16.0295

      2  C    Isotropic =    75.7505   Anisotropy =    15.6910

      3  C    Isotropic =    68.5730   Anisotropy =    11.6978

      4  F    Isotropic =   297.6499   Anisotropy =    63.7264

      5  F    Isotropic =   305.0591   Anisotropy =    76.6012

      6  S    Isotropic =   219.2992   Anisotropy =   368.0122

      7  O    Isotropic =    91.7936   Anisotropy =    58.3014

      8  O    Isotropic =    91.7398   Anisotropy =    56.1646

      9  F    Isotropic =   122.6345   Anisotropy =   370.0899

     10  F    Isotropic =   316.5573   Anisotropy =    89.2116

     11  F    Isotropic =   320.4761   Anisotropy =    97.1603

     12  F    Isotropic =   327.4524   Anisotropy =    87.7083

     13  F    Isotropic =   320.6146   Anisotropy =    90.4848

     14  C    Isotropic =    68.8933   Anisotropy =    13.9216

     15  F    Isotropic =   277.7975   Anisotropy =   104.8404

     16  F    Isotropic =   273.5981   Anisotropy =   100.9980

     17  F    Isotropic =   281.0894   Anisotropy =   114.3313

  Exact polarizability:  72.603   0.950  66.233   2.376   0.596  62.430
 Approx polarizability:  99.305  -3.172 107.830   5.382  -1.940 103.682

                      1                      2                      3
                      A                      A                      A
 Frequencies --     26.0476                47.4051                54.6780
 Red. masses --     18.2920                17.8338                18.3327
 Frc consts  --      0.0073                 0.0236                 0.0323
 IR Inten    --      0.0493                 0.0998                 0.0927

                      4                      5                      6
                      A                      A                      A
 Frequencies --    103.7469               113.6026               147.0772
 Red. masses --     18.6866                18.2923                18.0171
 Frc consts  --      0.1185                 0.1391                 0.2296
 IR Inten    --      0.1685                 0.3099                 1.7200

                      7                      8                      9
                      A                      A                      A
 Frequencies --    166.8338               185.0072               213.4863
 Red. masses --     17.8262                17.2248                18.7104
 Frc consts  --      0.2923                 0.3474                 0.5024
 IR Inten    --      1.3010                 4.1249                 4.1038

                     10                     11                     12
                      A                      A                      A
 Frequencies --    221.7538               242.6584               260.4247
 Red. masses --     18.6581                18.3536                18.4506
 Frc consts  --      0.5406                 0.6367                 0.7373
 IR Inten    --      1.3100                 3.7267                 1.0499

                     13                     14                     15
                      A                      A                      A
 Frequencies --    284.1496               300.3980               310.4610
 Red. masses --     18.3517                18.3947                18.6725
 Frc consts  --      0.8730                 0.9780                 1.0604
 IR Inten    --      0.7719                 0.6502                 0.4169

                     16                     17                     18
                      A                      A                      A
 Frequencies --    323.7590               330.5896               358.9071
 Red. masses --     18.2280                17.9863                18.3225
 Frc consts  --      1.1257                 1.1582                 1.3906
 IR Inten    --      0.5450                 0.6492                 1.3206

                     19                     20                     21
                      A                      A                      A
 Frequencies --    374.6140               425.0937               455.8699
 Red. masses --     18.2634                18.2935                18.0997
 Frc consts  --      1.5101                 1.9477                 2.2162
 IR Inten    --      3.2721                 8.5956                11.9659

                     22                     23                     24
                      A                      A                      A
 Frequencies --    469.6397               491.6949               529.9973
 Red. masses --     18.0740                17.8258                17.9356
 Frc consts  --      2.3487                 2.5392                 2.9683
 IR Inten    --      3.2085                 8.2279                 7.4295

                     25                     26                     27
                      A                      A                      A
 Frequencies --    577.6835               580.2597               635.6460
 Red. masses --     18.1933                19.5956                17.3198
 Frc consts  --      3.5772                 3.8874                 4.1231
 IR Inten    --     28.0181                69.6991                11.7532

                     28                     29                     30
                      A                      A                      A
 Frequencies --    645.3214               656.0003               747.1744
 Red. masses --     17.9163                17.4947                17.1573
 Frc consts  --      4.3959                 4.4357                 5.6434
 IR Inten    --     31.6364                 2.8080                44.9890

                     31                     32                     33
                      A                      A                      A
 Frequencies --    785.3186               929.3689              1017.4936
 Red. masses --     21.1158                13.8633                13.6670
 Frc consts  --      7.6727                 7.0549                 8.3366
 IR Inten    --    209.5589                78.2201               129.3027

                     34                     35                     36
                      A                      A                      A
 Frequencies --   1107.7087              1162.8849              1191.5782
 Red. masses --     13.6956                14.2815                14.8823
 Frc consts  --      9.9011                11.3788                12.4499
 IR Inten    --    155.3859                 7.2929                68.9142

                     37                     38                     39
                      A                      A                      A
 Frequencies --   1212.1202              1217.8820              1239.0821
 Red. masses --     14.3847                13.2734                13.0883
 Frc consts  --     12.4521                11.5996                11.8395
 IR Inten    --    115.8961               102.2315               134.6894

                     40                     41                     42
                      A                      A                      A
 Frequencies --   1266.4882              1268.7557              1289.6957
 Red. masses --     13.2225                13.0871                12.7533
 Frc consts  --     12.4959                12.4122                12.4982
 IR Inten    --    267.5000               312.2055                55.1891

                     43                     44                     45
                      A                      A                      A
 Frequencies --   1307.2184              1360.3041              1419.7459
 Red. masses --     12.4895                12.5157                20.7577
 Frc consts  --     12.5746                13.6451                24.6519
 IR Inten    --     41.0575                46.2836               217.4219

 - Thermochemistry -
 -------------------
 Temperature   298.150 Kelvin.  Pressure   1.00000 Atm.
 Atom     1 has atomic number  6 and mass  12.00000

 Molecular mass:   301.94593 amu.
 Principal axes and moments of inertia in atomic units:
                           1         2         3
     Eigenvalues --  2553.981904972.749775344.44909
           X            0.99997   0.00573   0.00593
           Y           -0.00579   0.99994   0.00876
           Z           -0.00588  -0.00880   0.99994
 This molecule is an asymmetric top.
 Rotational symmetry number  1.
 Warning -- assumption of classical behavior for rotation
           may cause significant error
 Rotational temperatures (Kelvin)      0.03391     0.01742     0.01621
 Rotational constants (GHZ):           0.70664     0.36293     0.33769
 Zero-point vibrational energy     167809.9 (Joules/Mol)
                                   40.10753 (Kcal/Mol)
 Warning -- explicit consideration of  26 degrees of freedom as
           vibrations may cause significant error
 Vibrational temperatures:     37.48    68.21    78.67   149.27   163.45
          (Kelvin)            211.61   240.04   266.18   307.16   319.05
                              349.13   374.69   408.83   432.21   446.68
                              465.82   475.64   516.39   538.99   611.62
                              655.90   675.71   707.44   762.55   831.16
                              834.86   914.55   928.47   943.84  1075.02
                             1129.90  1337.15  1463.95  1593.75  1673.13
                             1714.42  1743.97  1752.26  1782.76  1822.19
                             1825.46  1855.58  1880.80  1957.17  2042.70

 Zero-point correction=                           0.063915 (Hartree/Particle)
 Thermal correction to Energy=                    0.079758
 Thermal correction to Enthalpy=                  0.080702
 Thermal correction to Gibbs Free Energy=         0.019597
 Sum of electronic and zero-point Energies=          -1699.290868
 Sum of electronic and thermal Energies=             -1699.275026
 Sum of electronic and thermal Enthalpies=           -1699.274081
 Sum of electronic and thermal Free Energies=        -1699.335187

                     E (Thermal)             CV                S
                      KCal/Mol        Cal/Mol-Kelvin    Cal/Mol-Kelvin
 Total                   50.049             55.802            128.607
 Electronic               0.000              0.000              0.000
 Translational            0.889              2.981             43.012
 Rotational               0.889              2.981             32.584
 Vibrational             48.271             49.840             53.011
 Vibration     1          0.593              1.985              6.110
 Vibration     2          0.595              1.979              4.923
 Vibration     3          0.596              1.976              4.641
 Vibration     4          0.605              1.946              3.383
 Vibration     5          0.607              1.938              3.206
 Vibration     6          0.617              1.906              2.710
 Vibration     7          0.624              1.883              2.471
 Vibration     8          0.631              1.860              2.277
 Vibration     9          0.644              1.820              2.014
 Vibration    10          0.648              1.808              1.945
 Vibration    11          0.659              1.775              1.783
 Vibration    12          0.668              1.745              1.659
 Vibration    13          0.683              1.703              1.509
 Vibration    14          0.693              1.673              1.415
 Vibration    15          0.699              1.654              1.360
 Vibration    16          0.708              1.628              1.291
 Vibration    17          0.713              1.614              1.257
 Vibration    18          0.734              1.557              1.127
 Vibration    19          0.746              1.524              1.061
 Vibration    20          0.787              1.416              0.875
 Vibration    21          0.814              1.348              0.778
 Vibration    22          0.827              1.317              0.739
 Vibration    23          0.847              1.268              0.679
 Vibration    24          0.885              1.184              0.587
 Vibration    25          0.934              1.080              0.490
 Vibration    26          0.937              1.074              0.485

 Optimization completed.
    -- Stationary point found.
 Normal termination of Gaussian 16 at Mon Aug 24 18:50:53 2020.
 Gaussian 16:  ES64L-G16RevA.03 25-Dec-2016

 ----------------------------------------------------------------------
 # TD(NStates=10, Root=1) B3LYP/6-31G* scf=qc volume pop=NPA density=cu
 rrent Geom=AllCheck Guess=Read
 ----------------------------------------------------------------------

 Structure from the checkpoint file:  "sulfonylfluoride_4_conf93.chk"
 -------------------
 Title Card Required
 -------------------
 Charge =  0 Multiplicity = 1

                         Standard orientation:
 ---------------------------------------------------------------------
 Center     Atomic      Atomic             Coordinates (Angstroms)
 Number     Number       Type             X           Y           Z
 ---------------------------------------------------------------------
      1          6           0        1.364681    0.195138   -0.653541
      2          6           0        0.273850    1.148850   -0.089058
      3          6           0       -0.964516    0.555294    0.642541
      4          9           0       -0.577803   -0.071964    1.763375
      5          9           0       -1.766528    1.584772    0.954874
      6         16           0       -2.018129   -0.651246   -0.350439
      7          8           0       -2.479046   -0.002831   -1.556433
      8          8           0       -1.426684   -1.968352   -0.306244
      9          9           0       -3.238072   -0.641461    0.703762
     10          9           0        0.858833    1.982491    0.801958
     11          9           0       -0.185847    1.868851   -1.134225
     12          9           0        2.285022    0.991461   -1.240275
     13          9           0        0.786656   -0.585468   -1.599009
     14          6           0        2.117683   -0.727295    0.339510
     15          9           0        2.597709   -0.015309    1.366746
     16          9           0        1.302735   -1.678878    0.806318
     17          9           0        3.135708   -1.305887   -0.304443
 ---------------------------------------------------------------------

 SCF Done:  E(RB3LYP) =  -1699.35478334     a.u. after    1 cycles

 Excitation energies and oscillator strengths:

 Excited State   1:      Singlet-A      7.3389 eV  168.94 nm  f=0.0012  <S**2>=0.000
      71 -> 74        -0.13339
      72 -> 74        -0.46349
      73 -> 74         0.48809
 This state for optimization and/or second-order correction.
 Total Energy, E(TD-HF/TD-DFT) =  -1699.08508523
 Copying the excited state density for this state as the 1-particle RhoCI density.

 Excited State   2:      Singlet-A      7.5735 eV  163.71 nm  f=0.0453  <S**2>=0.000
      72 -> 74         0.48785
      73 -> 74         0.46229
      73 -> 75        -0.11550

 Excited State   3:      Singlet-A      7.8481 eV  157.98 nm  f=0.0006  <S**2>=0.000
      70 -> 74        -0.12217
      71 -> 74         0.61609
      72 -> 75        -0.19313
      73 -> 75         0.20452

 Excited State   4:      Singlet-A      8.2638 eV  150.03 nm  f=0.0044  <S**2>=0.000
      71 -> 74         0.23171
      71 -> 75         0.23724
      72 -> 75         0.44660
      72 -> 77        -0.10403
      73 -> 75        -0.33713
      73 -> 76        -0.18586

 Excited State   5:      Singlet-A      8.3882 eV  147.81 nm  f=0.0056  <S**2>=0.000
      70 -> 74         0.66327
      71 -> 74         0.10989

 Excited State   6:      Singlet-A      8.5962 eV  144.23 nm  f=0.0497  <S**2>=0.000
      71 -> 75        -0.33071
      72 -> 75         0.35328
      72 -> 76        -0.13406
      73 -> 75         0.35435
      73 -> 76        -0.26376

 Excited State   7:      Singlet-A      8.6881 eV  142.71 nm  f=0.0230  <S**2>=0.000
      71 -> 75         0.50268
      71 -> 76         0.14183
      71 -> 77         0.13013
      72 -> 77         0.18374
      73 -> 75         0.31596

 Excited State   8:      Singlet-A      8.7845 eV  141.14 nm  f=0.0338  <S**2>=0.000
      72 -> 75         0.18640
      72 -> 76         0.25579
      72 -> 77        -0.10997
      73 -> 75         0.18204
      73 -> 76         0.39774
      73 -> 77         0.38107
      73 -> 78         0.10864

 Excited State   9:      Singlet-A      8.9017 eV  139.28 nm  f=0.0028  <S**2>=0.000
      69 -> 74         0.13125
      71 -> 77        -0.16065
      72 -> 76         0.58272
      72 -> 77         0.16183
      73 -> 76        -0.21314

 Excited State  10:      Singlet-A      8.9144 eV  139.08 nm  f=0.0072  <S**2>=0.000
      69 -> 74        -0.12119
      71 -> 77        -0.18677
      72 -> 75         0.16460
      72 -> 77         0.40612
      72 -> 78         0.12443
      73 -> 76         0.35999
      73 -> 77        -0.24528

 The electronic state is 1-A.
 Alpha  occ. eigenvalues --  -89.18788 -24.78827 -24.78433 -24.77269 -24.77249
 Alpha  occ. eigenvalues --  -24.77212 -24.77110 -24.76913 -24.76886 -24.76736
 Alpha  occ. eigenvalues --  -24.76689 -19.21471 -19.21418 -10.48120 -10.44916
 Alpha  occ. eigenvalues --  -10.43356 -10.42634  -8.21221  -6.17877  -6.17534
 Alpha  occ. eigenvalues --   -6.17467  -1.35470  -1.34365  -1.32383  -1.30562
 Alpha  occ. eigenvalues --   -1.28540  -1.27644  -1.26692  -1.26128  -1.25966
 Alpha  occ. eigenvalues --   -1.25437  -1.15309  -1.07510  -0.85872  -0.80978
 Alpha  occ. eigenvalues --   -0.75858  -0.72165  -0.68431  -0.65574  -0.64551
 Alpha  occ. eigenvalues --   -0.64111  -0.63431  -0.62431  -0.62339  -0.60251
 Alpha  occ. eigenvalues --   -0.59928  -0.58938  -0.56385  -0.53398  -0.52446
 Alpha  occ. eigenvalues --   -0.51737  -0.50844  -0.50021  -0.49978  -0.49286
 Alpha  occ. eigenvalues --   -0.48510  -0.48201  -0.47456  -0.47218  -0.47066
 Alpha  occ. eigenvalues --   -0.46791  -0.46324  -0.45912  -0.45563  -0.45078
 Alpha  occ. eigenvalues --   -0.44761  -0.43815  -0.42436  -0.41508  -0.38519
 Alpha  occ. eigenvalues --   -0.37937  -0.36202  -0.36075
 Alpha virt. eigenvalues --   -0.04098  -0.00520   0.00408   0.01426   0.05154
 Alpha virt. eigenvalues --    0.05934   0.10979   0.12045   0.15527   0.17199
 Alpha virt. eigenvalues --    0.17465   0.18581   0.21864   0.23321   0.24884

 Mulliken charges:
               1
     1  C    0.475571
     2  C    0.496310
     3  C    0.348975
     4  F   -0.241065
     5  F   -0.242006
     6  S    1.043953
     7  O   -0.286803
     8  O   -0.308294
     9  F   -0.275245
    10  F   -0.270023
    11  F   -0.268340
    12  F   -0.265784
    13  F   -0.266342
    14  C    0.782975
    15  F   -0.239219
    16  F   -0.242046
    17  F   -0.242616
 Sum of Mulliken charges =  -0.00000

 Dipole moment (field-independent basis, Debye):
    X=              0.2004    Y=             -0.3804    Z=             -0.3343  Tot=              0.5447
 Quadrupole moment (field-independent basis, Debye-Ang):
   XX=            -97.4053   YY=            -96.4069   ZZ=            -95.7557
   XY=             -0.5529   XZ=              1.4195   YZ=              0.3363

 Summary of Natural Population Analysis:

                                       Natural Population
                Natural  -----------------------------------------------
    Atom  No    Charge         Core      Valence    Rydberg      Total
 -----------------------------------------------------------------------
      C    1    0.64229      1.99884     3.30472    0.05415     5.35771
      C    2    0.63184      1.99883     3.31010    0.05924     5.36816
      C    3    0.47887      1.99908     3.45278    0.06927     5.52113
      F    4   -0.33393      1.99993     7.32450    0.00950     9.33393
      F    5   -0.33176      1.99993     7.32197    0.00987     9.33176
      S    6    2.02498      9.99906     3.76997    0.20599    13.97502
      O    7   -0.61101      1.99989     6.58733    0.02379     8.61101
      O    8   -0.63535      1.99988     6.61134    0.02412     8.63535
      F    9   -0.51623      1.99997     7.50587    0.01039     9.51623
      F   10   -0.35361      1.99993     7.34424    0.00944     9.35361
      F   11   -0.34539      1.99993     7.33667    0.00878     9.34539
      F   12   -0.33766      1.99993     7.32924    0.00849     9.33766
      F   13   -0.35430      1.99993     7.34594    0.00843     9.35430
      C   14    1.07428      1.99925     2.85261    0.07386     4.92572
      F   15   -0.34383      1.99993     7.33658    0.00732     9.34383
      F   16   -0.34705      1.99992     7.33959    0.00754     9.34705
      F   17   -0.34213      1.99993     7.33485    0.00736     9.34213
 =======================================================================
   * Total *    0.00000     41.99416   103.40828    0.59755   146.00000

 Normal termination of Gaussian 16 at Mon Aug 24 18:59:47 2020.
