 Gaussian 16, Revision A.03,

 ---------------------------------
 # opt=CalcAll B3LYP/6-31G* scf=qc
 ---------------------------------

 -------------------
 Title Card Required
 -------------------
 Symbolic Z-matrix:
 Charge =  0 Multiplicity = 1

 SCF Done:  E(RB3LYP) =  -1699.24805433     a.u. after    8 cycles
 SCF Done:  E(RB3LYP) =  -1699.28662592     a.u. after   15 cycles
 SCF Done:  E(RB3LYP) =  -1699.32703772     a.u. after   13 cycles
 SCF Done:  E(RB3LYP) =  -1699.32261504     a.u. after   17 cycles
 SCF Done:  E(RB3LYP) =  -1699.34050280     a.u. after   11 cycles
 SCF Done:  E(RB3LYP) =  -1699.34615012     a.u. after   16 cycles
 SCF Done:  E(RB3LYP) =  -1699.34708475     a.u. after   11 cycles
 SCF Done:  E(RB3LYP) =  -1699.34945684     a.u. after   13 cycles
 SCF Done:  E(RB3LYP) =  -1699.35239933     a.u. after   13 cycles
 SCF Done:  E(RB3LYP) =  -1699.35326752     a.u. after   13 cycles
 SCF Done:  E(RB3LYP) =  -1699.35347288     a.u. after   11 cycles
 SCF Done:  E(RB3LYP) =  -1699.35350198     a.u. after    7 cycles
 SCF Done:  E(RB3LYP) =  -1699.35350421     a.u. after    5 cycles
 SCF Done:  E(RB3LYP) =  -1699.35350424     a.u. after    3 cycles
 Optimization completed.
    -- Stationary point found.
 Normal termination of Gaussian 16 at Mon Aug 24 19:12:45 2020.

 ----------------------------------------------------------------------
 # freq B3LYP/6-31G* scf=qc volume NMR pop=NPA density=current Geom=All
 Check Guess=Read
 ----------------------------------------------------------------------

 Structure from the checkpoint file:  "sulfonylfluoride_4_conf52.chk"
 -------------------
 Title Card Required
 -------------------
 Charge =  0 Multiplicity = 1

 SCF Done:  E(RB3LYP) =  -1699.35350424     a.u. after    1 cycles

      1  C    Isotropic =    77.1896   Anisotropy =    16.3597

      2  C    Isotropic =    75.2767   Anisotropy =    15.4896

      3  C    Isotropic =    68.0542   Anisotropy =    14.6428

      4  F    Isotropic =   298.0928   Anisotropy =    69.6332

      5  F    Isotropic =   300.4982   Anisotropy =    75.0959

      6  S    Isotropic =   218.8939   Anisotropy =   375.8757

      7  O    Isotropic =    95.1850   Anisotropy =    75.1911

      8  O    Isotropic =    98.6604   Anisotropy =    74.7071

      9  F    Isotropic =   115.4517   Anisotropy =   363.0351

     10  F    Isotropic =   314.3310   Anisotropy =    85.1128

     11  F    Isotropic =   321.7210   Anisotropy =    96.2836

     12  F    Isotropic =   326.9627   Anisotropy =    86.8493

     13  F    Isotropic =   320.5731   Anisotropy =    90.5636

     14  C    Isotropic =    68.8503   Anisotropy =    13.7346

     15  F    Isotropic =   273.7107   Anisotropy =   101.3918

     16  F    Isotropic =   281.4114   Anisotropy =   114.3426

     17  F    Isotropic =   277.7712   Anisotropy =   105.3643

  Exact polarizability:  76.144   1.941  66.006  -0.731   1.617  60.196
 Approx polarizability: 109.189  -1.701 105.339  -2.670   3.519  97.506

                      1                      2                      3
                      A                      A                      A
 Frequencies --     19.4306                42.4616                61.3301
 Red. masses --     17.9359                18.2125                18.5365
 Frc consts  --      0.0040                 0.0193                 0.0411
 IR Inten    --      0.0474                 0.0512                 0.0383

                      4                      5                      6
                      A                      A                      A
 Frequencies --    108.1010               118.5814               147.7560
 Red. masses --     18.5561                18.4993                17.7473
 Frc consts  --      0.1278                 0.1533                 0.2283
 IR Inten    --      0.0597                 0.2745                 2.0333

                      7                      8                      9
                      A                      A                      A
 Frequencies --    168.1080               183.2691               213.0644
 Red. masses --     17.9891                17.7218                18.5327
 Frc consts  --      0.2995                 0.3507                 0.4957
 IR Inten    --      1.0685                 4.3267                 4.3410

                     10                     11                     12
                      A                      A                      A
 Frequencies --    226.2316               247.1722               259.7425
 Red. masses --     18.1367                18.0235                18.3610
 Frc consts  --      0.5469                 0.6488                 0.7298
 IR Inten    --      1.9042                 1.8808                 1.8590

                     13                     14                     15
                      A                      A                      A
 Frequencies --    284.7599               296.8887               312.9455
 Red. masses --     18.4178                18.5096                18.6401
 Frc consts  --      0.8799                 0.9612                 1.0756
 IR Inten    --      0.7013                 0.8788                 0.5290

                     16                     17                     18
                      A                      A                      A
 Frequencies --    321.4780               329.2731               357.9892
 Red. masses --     18.5293                17.9395                18.3239
 Frc consts  --      1.1283                 1.1460                 1.3836
 IR Inten    --      0.5501                 0.6619                 1.5307

                     19                     20                     21
                      A                      A                      A
 Frequencies --    375.5090               432.3544               447.6540
 Red. masses --     18.2799                18.6093                17.8472
 Frc consts  --      1.5187                 2.0496                 2.1072
 IR Inten    --      3.0477                10.1687                12.8383

                     22                     23                     24
                      A                      A                      A
 Frequencies --    472.6781               491.3242               530.0540
 Red. masses --     17.9683                17.9162                17.9455
 Frc consts  --      2.3653                 2.5482                 2.9706
 IR Inten    --      0.6492                 5.6188                 8.4343

                     25                     26                     27
                      A                      A                      A
 Frequencies --    576.9512               582.6984               636.6698
 Red. masses --     18.3148                19.4753                17.3046
 Frc consts  --      3.5919                 3.8960                 4.1328
 IR Inten    --     37.9288                75.7562                 8.1105

                     28                     29                     30
                      A                      A                      A
 Frequencies --    639.2480               656.7527               747.5479
 Red. masses --     17.7923                17.4891                17.1384
 Frc consts  --      4.2837                 4.4445                 5.6428
 IR Inten    --     18.5889                 3.0131                37.3913

                     31                     32                     33
                      A                      A                      A
 Frequencies --    798.9796               928.6642              1016.8074
 Red. masses --     21.6363                13.7744                13.5964
 Frc consts  --      8.1377                 6.9991                 8.2823
 IR Inten    --    139.4768               134.2954               131.0190

                     34                     35                     36
                      A                      A                      A
 Frequencies --   1102.6789              1165.3479              1199.7918
 Red. masses --     13.7440                13.9024                13.2352
 Frc consts  --      9.8460                11.1237                11.2251
 IR Inten    --     88.5394                31.5569                32.3372

                     37                     38                     39
                      A                      A                      A
 Frequencies --   1203.3649              1219.6461              1235.6433
 Red. masses --     16.2888                13.7058                13.0822
 Frc consts  --     13.8974                12.0122                11.7684
 IR Inten    --    134.1848               150.3874               132.7771

                     40                     41                     42
                      A                      A                      A
 Frequencies --   1262.8952              1267.8021              1284.1706
 Red. masses --     13.1850                13.0748                12.8105
 Frc consts  --     12.3898                12.3819                12.4469
 IR Inten    --    249.9788               325.6967               121.1528

                     43                     44                     45
                      A                      A                      A
 Frequencies --   1304.9464              1361.8501              1417.4226
 Red. masses --     12.4383                12.5116                20.7546
 Frc consts  --     12.4795                13.6717                24.5677
 IR Inten    --     25.7020                49.2677               203.9504

 - Thermochemistry -
 -------------------
 Temperature   298.150 Kelvin.  Pressure   1.00000 Atm.
 Atom     1 has atomic number  6 and mass  12.00000

 Molecular mass:   301.94593 amu.
 Principal axes and moments of inertia in atomic units:
                           1         2         3
     Eigenvalues --  2571.124924908.412585259.78492
           X            0.99996   0.00932  -0.00172
           Y           -0.00932   0.99995   0.00309
           Z            0.00175  -0.00308   0.99999
 This molecule is an asymmetric top.
 Rotational symmetry number  1.
 Warning -- assumption of classical behavior for rotation
           may cause significant error
 Rotational temperatures (Kelvin)      0.03369     0.01765     0.01647
 Rotational constants (GHZ):           0.70193     0.36768     0.34312
 Zero-point vibrational energy     167824.3 (Joules/Mol)
                                   40.11098 (Kcal/Mol)
 Warning -- explicit consideration of  26 degrees of freedom as
           vibrations may cause significant error
 Vibrational temperatures:     27.96    61.09    88.24   155.53   170.61
          (Kelvin)            212.59   241.87   263.68   306.55   325.50
                              355.63   373.71   409.71   427.16   450.26
                              462.54   473.75   515.07   540.27   622.06
                              644.07   680.08   706.91   762.63   830.10
                              838.37   916.03   919.74   944.92  1075.55
                             1149.55  1336.14  1462.96  1586.51  1676.68
                             1726.23  1731.37  1754.80  1777.82  1817.02
                             1824.08  1847.64  1877.53  1959.40  2039.36

 Zero-point correction=                           0.063921 (Hartree/Particle)
 Thermal correction to Energy=                    0.079746
 Thermal correction to Enthalpy=                  0.080690
 Thermal correction to Gibbs Free Energy=         0.019428
 Sum of electronic and zero-point Energies=          -1699.289583
 Sum of electronic and thermal Energies=             -1699.273758
 Sum of electronic and thermal Enthalpies=           -1699.272814
 Sum of electronic and thermal Free Energies=        -1699.334076

                     E (Thermal)             CV                S
                      KCal/Mol        Cal/Mol-Kelvin    Cal/Mol-Kelvin
 Total                   50.042             55.779            128.938
 Electronic               0.000              0.000              0.000
 Translational            0.889              2.981             43.012
 Rotational               0.889              2.981             32.562
 Vibrational             48.264             49.817             53.364
 Vibration     1          0.593              1.986              6.692
 Vibration     2          0.595              1.980              5.141
 Vibration     3          0.597              1.973              4.414
 Vibration     4          0.606              1.943              3.303
 Vibration     5          0.609              1.934              3.123
 Vibration     6          0.617              1.905              2.701
 Vibration     7          0.625              1.882              2.457
 Vibration     8          0.631              1.863              2.295
 Vibration     9          0.644              1.821              2.017
 Vibration    10          0.650              1.801              1.909
 Vibration    11          0.661              1.767              1.751
 Vibration    12          0.668              1.746              1.664
 Vibration    13          0.683              1.702              1.505
 Vibration    14          0.691              1.680              1.434
 Vibration    15          0.701              1.649              1.347
 Vibration    16          0.707              1.632              1.303
 Vibration    17          0.712              1.617              1.264
 Vibration    18          0.733              1.559              1.131
 Vibration    19          0.746              1.522              1.057
 Vibration    20          0.793              1.400              0.851
 Vibration    21          0.807              1.366              0.803
 Vibration    22          0.830              1.311              0.730
 Vibration    23          0.847              1.269              0.680
 Vibration    24          0.885              1.184              0.587
 Vibration    25          0.933              1.081              0.491
 Vibration    26          0.940              1.069              0.480

 Optimization completed.
    -- Stationary point found.
 Normal termination of Gaussian 16 at Mon Aug 24 19:19:13 2020.
 Gaussian 16:  ES64L-G16RevA.03 25-Dec-2016

 ----------------------------------------------------------------------
 # TD(NStates=10, Root=1) B3LYP/6-31G* scf=qc volume pop=NPA density=cu
 rrent Geom=AllCheck Guess=Read
 ----------------------------------------------------------------------

 Structure from the checkpoint file:  "sulfonylfluoride_4_conf53.chk"
 -------------------
 Title Card Required
 -------------------
 Charge =  0 Multiplicity = 1

                         Standard orientation:
 ---------------------------------------------------------------------
 Center     Atomic      Atomic             Coordinates (Angstroms)
 Number     Number       Type             X           Y           Z
 ---------------------------------------------------------------------
      1          6           0        1.344306    0.180673   -0.661406
      2          6           0        0.243078    1.132882   -0.112206
      3          6           0       -0.974031    0.566908    0.679009
      4          9           0       -0.546127    0.002869    1.821985
      5          9           0       -1.770595    1.607156    0.960990
      6         16           0       -2.086599   -0.729006   -0.122550
      7          8           0       -1.355031   -1.961381   -0.304293
      8          8           0       -3.375695   -0.646922    0.524031
      9          9           0       -2.221789   -0.021358   -1.562540
     10          9           0        0.836360    2.007249    0.734910
     11          9           0       -0.244009    1.811340   -1.173597
     12          9           0        2.260943    0.985451   -1.246661
     13          9           0        0.790476   -0.613609   -1.604995
     14          6           0        2.102804   -0.715713    0.350608
     15          9           0        1.293506   -1.656875    0.847812
     16          9           0        3.119248   -1.308561   -0.282769
     17          9           0        2.585815    0.024341    1.356738
 ---------------------------------------------------------------------

 SCF Done:  E(RB3LYP) =  -1699.35350424     a.u. after    1 cycles

 Excitation energies and oscillator strengths:

 Excited State   1:      Singlet-A      7.4964 eV  165.39 nm  f=0.0003  <S**2>=0.000
      72 -> 74        -0.19441
      72 -> 75         0.19109
      73 -> 74         0.47323
      73 -> 75        -0.42855
 This state for optimization and/or second-order correction.
 Total Energy, E(TD-HF/TD-DFT) =  -1699.07801637
 Copying the excited state density for this state as the 1-particle RhoCI density.

 Excited State   2:      Singlet-A      7.5985 eV  163.17 nm  f=0.0018  <S**2>=0.000
      71 -> 75        -0.23985
      72 -> 74        -0.16816
      73 -> 74         0.42006
      73 -> 75         0.45610

 Excited State   3:      Singlet-A      7.8023 eV  158.91 nm  f=0.0094  <S**2>=0.000
      70 -> 75        -0.13421
      72 -> 74         0.16528
      72 -> 75         0.62127
      73 -> 75         0.20991

 Excited State   4:      Singlet-A      7.9970 eV  155.04 nm  f=0.0000  <S**2>=0.000
      71 -> 74         0.66757
      71 -> 75        -0.17819

 Excited State   5:      Singlet-A      8.1223 eV  152.65 nm  f=0.1500  <S**2>=0.000
      72 -> 74         0.60357
      72 -> 75        -0.12291
      73 -> 74         0.24248

 Excited State   6:      Singlet-A      8.4077 eV  147.46 nm  f=0.0126  <S**2>=0.000
      71 -> 74         0.16644
      71 -> 75         0.57001
      71 -> 78         0.10896
      72 -> 76         0.18719
      73 -> 74         0.13714
      73 -> 75         0.13993
      73 -> 78        -0.14444

 Excited State   7:      Singlet-A      8.5993 eV  144.18 nm  f=0.0492  <S**2>=0.000
      70 -> 74         0.66326
      72 -> 76        -0.11647

 Excited State   8:      Singlet-A      8.7698 eV  141.38 nm  f=0.0065  <S**2>=0.000
      68 -> 75        -0.10333
      70 -> 75         0.54428
      72 -> 75         0.12408
      72 -> 76         0.24390
      73 -> 76         0.30261

 Excited State   9:      Singlet-A      8.8533 eV  140.04 nm  f=0.0041  <S**2>=0.000
      69 -> 75        -0.10439
      70 -> 75        -0.34948
      72 -> 76         0.11325
      73 -> 76         0.55378
      73 -> 78         0.11216

 Excited State  10:      Singlet-A      8.9981 eV  137.79 nm  f=0.0031  <S**2>=0.000
      69 -> 74         0.11729
      69 -> 75         0.13350
      70 -> 75        -0.17786
      71 -> 75        -0.14202
      71 -> 76        -0.15724
      71 -> 78        -0.11085
      72 -> 76         0.56261
      73 -> 76        -0.17470

 The electronic state is 1-A.
 Alpha  occ. eigenvalues --  -89.18882 -24.78877 -24.78471 -24.77690 -24.77172
 Alpha  occ. eigenvalues --  -24.77166 -24.76913 -24.76827 -24.76819 -24.76617
 Alpha  occ. eigenvalues --  -24.76542 -19.21522 -19.21490 -10.48020 -10.44995
 Alpha  occ. eigenvalues --  -10.43373 -10.42518  -8.21326  -6.17983  -6.17637
 Alpha  occ. eigenvalues --   -6.17567  -1.35388  -1.34368  -1.32300  -1.30429
 Alpha  occ. eigenvalues --   -1.29036  -1.27687  -1.26582  -1.26054  -1.25916
 Alpha  occ. eigenvalues --   -1.25248  -1.15408  -1.07546  -0.85721  -0.80909
 Alpha  occ. eigenvalues --   -0.75744  -0.72050  -0.68639  -0.66057  -0.64365
 Alpha  occ. eigenvalues --   -0.63798  -0.63262  -0.62597  -0.62320  -0.60445
 Alpha  occ. eigenvalues --   -0.59856  -0.58851  -0.56152  -0.53508  -0.52456
 Alpha  occ. eigenvalues --   -0.51649  -0.50970  -0.50057  -0.49917  -0.49283
 Alpha  occ. eigenvalues --   -0.48730  -0.48455  -0.47487  -0.47434  -0.47049
 Alpha  occ. eigenvalues --   -0.46636  -0.46275  -0.45734  -0.45113  -0.44908
 Alpha  occ. eigenvalues --   -0.44613  -0.43749  -0.42338  -0.41733  -0.38514
 Alpha  occ. eigenvalues --   -0.37990  -0.36359  -0.36070
 Alpha virt. eigenvalues --   -0.03375  -0.02815   0.00679   0.03544   0.04563
 Alpha virt. eigenvalues --    0.05560   0.09878   0.11962   0.16339   0.17242
 Alpha virt. eigenvalues --    0.18084   0.18843   0.21907   0.23092   0.24612

 Mulliken charges:
               1
     1  C    0.473110
     2  C    0.536323
     3  C    0.322742
     4  F   -0.259753
     5  F   -0.248435
     6  S    1.037291
     7  O   -0.293815
     8  O   -0.286016
     9  F   -0.275944
    10  F   -0.270271
    11  F   -0.265357
    12  F   -0.266495
    13  F   -0.261402
    14  C    0.781491
    15  F   -0.241414
    16  F   -0.242276
    17  F   -0.239779
 Sum of Mulliken charges =  -0.00000

 Dipole moment (field-independent basis, Debye):
    X=              0.0161    Y=             -0.6128    Z=              0.4500  Tot=              0.7605
 Quadrupole moment (field-independent basis, Debye-Ang):
   XX=            -96.0679   YY=            -95.8968   ZZ=            -96.4608
   XY=              0.3791   XZ=             -0.7272   YZ=             -0.0808

 Summary of Natural Population Analysis:

                                       Natural Population
                Natural  -----------------------------------------------
    Atom  No    Charge         Core      Valence    Rydberg      Total
 -----------------------------------------------------------------------
      C    1    0.64455      1.99884     3.30284    0.05377     5.35545
      C    2    0.65219      1.99886     3.29087    0.05808     5.34781
      C    3    0.47263      1.99915     3.46292    0.06530     5.52737
      F    4   -0.35686      1.99993     7.34771    0.00922     9.35686
      F    5   -0.33477      1.99993     7.32537    0.00947     9.33477
      S    6    2.02134      9.99909     3.75761    0.22196    13.97866
      O    7   -0.62737      1.99989     6.60333    0.02415     8.62737
      O    8   -0.64085      1.99989     6.61684    0.02413     8.64085
      F    9   -0.50309      1.99997     7.49323    0.00988     9.50309
      F   10   -0.34594      1.99994     7.33737    0.00864     9.34594
      F   11   -0.33960      1.99993     7.33108    0.00859     9.33960
      F   12   -0.33858      1.99994     7.33012    0.00852     9.33858
      F   13   -0.34528      1.99993     7.33680    0.00855     9.34528
      C   14    1.07409      1.99925     2.85285    0.07380     4.92591
      F   15   -0.34669      1.99992     7.33922    0.00754     9.34669
      F   16   -0.34170      1.99993     7.33443    0.00734     9.34170
      F   17   -0.34407      1.99993     7.33680    0.00734     9.34407
 =======================================================================
   * Total *    0.00000     41.99432   103.39940    0.60629   146.00000

 Normal termination of Gaussian 16 at Mon Aug 24 19:28:15 2020.
