 Gaussian 16, Revision A.03,

 ---------------------------------
 # opt=CalcAll B3LYP/6-31G* scf=qc
 ---------------------------------

 -------------------
 Title Card Required
 -------------------
 Symbolic Z-matrix:
 Charge =  0 Multiplicity = 1

 SCF Done:  E(RB3LYP) =  -1084.53042298     a.u. after    9 cycles
 SCF Done:  E(RB3LYP) =  -1084.55402292     a.u. after   11 cycles
 SCF Done:  E(RB3LYP) =  -1084.55742507     a.u. after   13 cycles
 SCF Done:  E(RB3LYP) =  -1084.55857728     a.u. after   17 cycles
 SCF Done:  E(RB3LYP) =  -1084.55866823     a.u. after   13 cycles
 SCF Done:  E(RB3LYP) =  -1084.55867161     a.u. after    3 cycles
 SCF Done:  E(RB3LYP) =  -1084.55867200     a.u. after    3 cycles
 Optimization completed.
    -- Stationary point found.
 Normal termination of Gaussian 16 at Mon Aug 24 18:21:41 2020.

 ----------------------------------------------------------------------
 # freq B3LYP/6-31G* scf=qc volume NMR pop=NPA density=current Geom=All
 Check Guess=Read
 ----------------------------------------------------------------------

 Structure from the checkpoint file:  "sulfonylfluoride_8_conf12.chk"
 -------------------
 Title Card Required
 -------------------
 Charge =  0 Multiplicity = 1

 SCF Done:  E(RB3LYP) =  -1084.55867200     a.u. after    1 cycles

      1  C    Isotropic =    45.1065   Anisotropy =   105.6318

      2  C    Isotropic =    70.7455   Anisotropy =   170.6869

      3  C    Isotropic =    66.4087   Anisotropy =   169.1528

      4  C    Isotropic =    50.6341   Anisotropy =   117.6444

      5  C    Isotropic =    66.4074   Anisotropy =   169.1511

      6  C    Isotropic =    70.7458   Anisotropy =   170.6864

      7  S    Isotropic =   218.5789   Anisotropy =   341.2259

      8  O    Isotropic =   103.4990   Anisotropy =    72.1914

      9  O    Isotropic =   103.5171   Anisotropy =    72.1978

     10  F    Isotropic =    96.5266   Anisotropy =   360.2390

     11  N    Isotropic =  -107.0093   Anisotropy =   257.2478

     12  O    Isotropic =  -277.5350   Anisotropy =   723.3905

     13  O    Isotropic =  -277.5352   Anisotropy =   723.3905

     14  H    Isotropic =    23.8544   Anisotropy =     5.3832

     15  H    Isotropic =    24.2557   Anisotropy =     7.9611

     16  H    Isotropic =    24.2556   Anisotropy =     7.9615

     17  H    Isotropic =    23.8545   Anisotropy =     5.3832

  Exact polarizability: 140.119  -0.000 103.162   2.897  -0.001  44.662
 Approx polarizability: 201.580  -0.001 219.244   5.492  -0.007  73.513

                      1                      2                      3
                      A                      A                      A
 Frequencies --     33.0316                61.8758                68.0854
 Red. masses --     10.2082                 6.6348                11.2424
 Frc consts  --      0.0066                 0.0150                 0.0307
 IR Inten    --      0.0367                 0.0012                 5.6889

                      4                      5                      6
                      A                      A                      A
 Frequencies --    141.4296               176.4584               243.6605
 Red. masses --     11.2006                10.9817                14.7609
 Frc consts  --      0.1320                 0.2015                 0.5163
 IR Inten    --      5.9315                 0.7831                 0.3784

                      7                      8                      9
                      A                      A                      A
 Frequencies --    254.4393               325.2050               345.0263
 Red. masses --      9.5647                 8.1306                 8.7077
 Frc consts  --      0.3648                 0.5066                 0.6107
 IR Inten    --      0.5263                 1.2981                 1.1814

                     10                     11                     12
                      A                      A                      A
 Frequencies --    419.4192               446.6583               463.4234
 Red. masses --      3.0228                 7.9019                 9.2487
 Frc consts  --      0.3133                 0.9288                 1.1703
 IR Inten    --      0.0319                 7.3464                27.9228

                     13                     14                     15
                      A                      A                      A
 Frequencies --    464.3487               517.8977               536.9299
 Red. masses --     13.6882                 4.9687                 6.9768
 Frc consts  --      1.7389                 0.7852                 1.1851
 IR Inten    --      6.3480                13.3749                 2.5856

                     16                     17                     18
                      A                      A                      A
 Frequencies --    601.2830               636.4959               684.1056
 Red. masses --     14.5819                 7.1171                 5.0400
 Frc consts  --      3.1061                 1.6988                 1.3897
 IR Inten    --    107.5233                 0.1470                10.2806

                     19                     20                     21
                      A                      A                      A
 Frequencies --    740.4885               751.3105               795.8123
 Red. masses --      8.2288                 4.1281                17.6912
 Frc consts  --      2.6584                 1.3729                 6.6013
 IR Inten    --     43.5952                38.3960               252.1153

                     22                     23                     24
                      A                      A                      A
 Frequencies --    857.6478               867.9548               879.1214
 Red. masses --      1.2387                10.4757                 1.6462
 Frc consts  --      0.5368                 4.6497                 0.7496
 IR Inten    --      0.1178                21.6658                22.6264

                     25                     26                     27
                      A                      A                      A
 Frequencies --    994.5045               996.7569              1032.3206
 Red. masses --      1.3452                 1.2989                 3.4877
 Frc consts  --      0.7839                 0.7603                 2.1899
 IR Inten    --      0.0394                 0.7458                 6.0223

                     28                     29                     30
                      A                      A                      A
 Frequencies --   1099.7466              1126.4337              1134.7462
 Red. masses --      3.3097                 3.7705                 1.2906
 Frc consts  --      2.3585                 2.8188                 0.9791
 IR Inten    --     23.2778                14.5208                 6.6303

                     31                     32                     33
                      A                      A                      A
 Frequencies --   1186.3211              1207.1444              1325.5346
 Red. masses --     12.3015                 1.2452                 1.3069
 Frc consts  --     10.2003                 1.0691                 1.3530
 IR Inten    --    225.9274                 1.0423                 0.2487

                     34                     35                     36
                      A                      A                      A
 Frequencies --   1369.8373              1397.4109              1400.3334
 Red. masses --      9.1184                11.9484                14.5714
 Frc consts  --     10.0811                13.7470                16.8351
 IR Inten    --     78.7550                99.4754               244.0529

                     37                     38                     39
                      A                      A                      A
 Frequencies --   1444.8030              1523.0449              1627.8590
 Red. masses --      3.4465                 2.1661                 9.9508
 Frc consts  --      4.2388                 2.9604                15.5361
 IR Inten    --     22.6306                 5.3927               120.0304

                     40                     41                     42
                      A                      A                      A
 Frequencies --   1643.3000              1677.7628              3236.8345
 Red. masses --      5.6814                10.1491                 1.0912
 Frc consts  --      9.0394                16.8322                 6.7357
 IR Inten    --      0.0208                91.2537                 3.2021

                     43                     44                     45
                      A                      A                      A
 Frequencies --   3237.3742              3258.6081              3258.8741
 Red. masses --      1.0906                 1.0929                 1.0940
 Frc consts  --      6.7343                 6.8373                 6.8452
 IR Inten    --      0.5116                 5.0325                 2.1459

 - Thermochemistry -
 -------------------
 Temperature   298.150 Kelvin.  Pressure   1.00000 Atm.
 Atom     1 has atomic number  6 and mass  12.00000

 Molecular mass:   204.98451 amu.
 Principal axes and moments of inertia in atomic units:
                           1         2         3
     Eigenvalues --   837.665445325.421695776.48398
           X            1.00000   0.00000   0.00300
           Y           -0.00000   1.00000   0.00000
           Z           -0.00300  -0.00000   1.00000
 This molecule is an asymmetric top.
 Rotational symmetry number  1.
 Warning -- assumption of classical behavior for rotation
           may cause significant error
 Rotational temperatures (Kelvin)      0.10340     0.01626     0.01499
 Rotational constants (GHZ):           2.15449     0.33889     0.31243
 Zero-point vibrational energy     278081.9 (Joules/Mol)
                                   66.46316 (Kcal/Mol)
 Warning -- explicit consideration of  16 degrees of freedom as
           vibrations may cause significant error
 Vibrational temperatures:     47.53    89.03    97.96   203.49   253.88
          (Kelvin)            350.57   366.08   467.90   496.42   603.45
                              642.64   666.76   668.09   745.14   772.52
                              865.11   915.78   984.28  1065.40  1080.97
                             1145.00  1233.96  1248.79  1264.86  1430.87
                             1434.11  1485.28  1582.29  1620.69  1632.65
                             1706.85  1736.81  1907.15  1970.89  2010.56
                             2014.77  2078.75  2191.32  2342.13  2364.34
                             2413.93  4657.08  4657.86  4688.41  4688.79

 Zero-point correction=                           0.105916 (Hartree/Particle)
 Thermal correction to Energy=                    0.116823
 Thermal correction to Enthalpy=                  0.117767
 Thermal correction to Gibbs Free Energy=         0.067292
 Sum of electronic and zero-point Energies=          -1084.452756
 Sum of electronic and thermal Energies=             -1084.441849
 Sum of electronic and thermal Enthalpies=           -1084.440905
 Sum of electronic and thermal Free Energies=        -1084.491380

                     E (Thermal)             CV                S
                      KCal/Mol        Cal/Mol-Kelvin    Cal/Mol-Kelvin
 Total                   73.307             39.939            106.234
 Electronic               0.000              0.000              0.000
 Translational            0.889              2.981             41.858
 Rotational               0.889              2.981             31.622
 Vibrational             71.530             33.977             32.754
 Vibration     1          0.594              1.983              5.638
 Vibration     2          0.597              1.973              4.396
 Vibration     3          0.598              1.969              4.208
 Vibration     4          0.615              1.912              2.784
 Vibration     5          0.628              1.871              2.366
 Vibration     6          0.659              1.773              1.776
 Vibration     7          0.665              1.755              1.700
 Vibration     8          0.709              1.625              1.284
 Vibration     9          0.723              1.585              1.189
 Vibration    10          0.782              1.428              0.894
 Vibration    11          0.806              1.368              0.806
 Vibration    12          0.821              1.331              0.756
 Vibration    13          0.822              1.329              0.754
 Vibration    14          0.873              1.210              0.615
 Vibration    15          0.892              1.168              0.572
 Vibration    16          0.960              1.029              0.447

 Optimization completed.
    -- Stationary point found.
 Normal termination of Gaussian 16 at Mon Aug 24 18:25:04 2020.
 Gaussian 16:  ES64L-G16RevA.03 25-Dec-2016

 ----------------------------------------------------------------------
 # TD(NStates=10, Root=1) B3LYP/6-31G* scf=qc volume pop=NPA density=cu
 rrent Geom=AllCheck Guess=Read
 ----------------------------------------------------------------------

 Structure from the checkpoint file:  "sulfonylfluoride_8_conf13.chk"
 -------------------
 Title Card Required
 -------------------
 Charge =  0 Multiplicity = 1

                         Standard orientation:
 ---------------------------------------------------------------------
 Center     Atomic      Atomic             Coordinates (Angstroms)
 Number     Number       Type             X           Y           Z
 ---------------------------------------------------------------------
      1          6           0        1.989791    0.000000   -0.015185
      2          6           0        1.323170    1.223015   -0.034417
      3          6           0       -0.068807    1.223389   -0.068722
      4          6           0       -0.742225   -0.000016   -0.080131
      5          6           0       -0.068789   -1.223413   -0.068871
      6          6           0        1.323188   -1.223021   -0.034546
      7         16           0       -2.526150   -0.000043   -0.123041
      8          8           0       -3.006332    1.273941   -0.620538
      9          8           0       -3.006290   -1.274353   -0.619745
     10          9           0       -2.818723    0.000458    1.470504
     11          7           0        3.468890    0.000007    0.021064
     12          8           0        4.033367   -1.090825    0.035564
     13          8           0        4.033370    1.090842    0.035194
     14          1           0        1.891530    2.144567   -0.025947
     15          1           0       -0.624663    2.153891   -0.096760
     16          1           0       -0.624633   -2.153918   -0.097041
     17          1           0        1.891560   -2.144566   -0.026156
 ---------------------------------------------------------------------

 SCF Done:  E(RB3LYP) =  -1084.55867200     a.u. after    1 cycles

 Excitation energies and oscillator strengths:

 Excited State   1:      Singlet-A      3.6812 eV  336.80 nm  f=0.0000  <S**2>=0.000
      51 -> 53         0.68432
      51 -> 55         0.17467
 This state for optimization and/or second-order correction.
 Total Energy, E(TD-HF/TD-DFT) =  -1084.42339024
 Copying the excited state density for this state as the 1-particle RhoCI density.

 Excited State   2:      Singlet-A      4.1480 eV  298.90 nm  f=0.0000  <S**2>=0.000
      49 -> 53         0.68691
      49 -> 55         0.16481

 Excited State   3:      Singlet-A      4.5042 eV  275.26 nm  f=0.0192  <S**2>=0.000
      50 -> 54         0.18988
      52 -> 53         0.67653

 Excited State   4:      Singlet-A      4.9960 eV  248.17 nm  f=0.2858  <S**2>=0.000
      50 -> 53         0.69083
      52 -> 54        -0.11410

 Excited State   5:      Singlet-A      5.3706 eV  230.86 nm  f=0.0015  <S**2>=0.000
      47 -> 53         0.69350

 Excited State   6:      Singlet-A      5.6215 eV  220.55 nm  f=0.0223  <S**2>=0.000
      48 -> 53         0.65910
      48 -> 55        -0.21163

 Excited State   7:      Singlet-A      5.7743 eV  214.72 nm  f=0.0050  <S**2>=0.000
      45 -> 53         0.69465

 Excited State   8:      Singlet-A      5.8035 eV  213.64 nm  f=0.0015  <S**2>=0.000
      46 -> 53         0.68751

 Excited State   9:      Singlet-A      6.0770 eV  204.02 nm  f=0.0020  <S**2>=0.000
      50 -> 54        -0.42868
      52 -> 55         0.54699

 Excited State  10:      Singlet-A      6.0964 eV  203.37 nm  f=0.0000  <S**2>=0.000
      51 -> 53        -0.17343
      51 -> 55         0.67326

 The electronic state is 1-A.
 Alpha  occ. eigenvalues --  -89.17407 -24.75147 -19.20741 -19.20740 -19.19375
 Alpha  occ. eigenvalues --  -19.19375 -14.59855 -10.29051 -10.28076 -10.25905
 Alpha  occ. eigenvalues --  -10.25905 -10.25514 -10.25513  -8.19694  -6.16370
 Alpha  occ. eigenvalues --   -6.16036  -6.15937  -1.26533  -1.25118  -1.13387
 Alpha  occ. eigenvalues --   -1.07914  -1.05476  -0.93121  -0.85320  -0.81291
 Alpha  occ. eigenvalues --   -0.76275  -0.68759  -0.67468  -0.62804  -0.60049
 Alpha  occ. eigenvalues --   -0.57699  -0.55784  -0.54342  -0.54307  -0.51968
 Alpha  occ. eigenvalues --   -0.50405  -0.50204  -0.48606  -0.48000  -0.45477
 Alpha  occ. eigenvalues --   -0.44723  -0.42770  -0.41072  -0.39933  -0.36351
 Alpha  occ. eigenvalues --   -0.36077  -0.34379  -0.33509  -0.33227  -0.32149
 Alpha  occ. eigenvalues --   -0.31684  -0.31281
 Alpha virt. eigenvalues --   -0.12305  -0.06181  -0.05175   0.00644   0.03897
 Alpha virt. eigenvalues --    0.07060   0.08907   0.08919   0.11028   0.11796
 Alpha virt. eigenvalues --    0.13978   0.15719   0.17153   0.22456   0.24036

 Mulliken charges:
               1
     1  C    0.282560
     2  C   -0.171268
     3  C   -0.141970
     4  C   -0.174366
     5  C   -0.141981
     6  C   -0.171267
     7  S    1.213546
     8  O   -0.474734
     9  O   -0.474735
    10  F   -0.298012
    11  N    0.362083
    12  O   -0.284914
    13  O   -0.284915
    14  H    0.183508
    15  H    0.196473
    16  H    0.196485
    17  H    0.183508
 Sum of Mulliken charges =  -0.00000

 Dipole moment (field-independent basis, Debye):
    X=              3.5678    Y=              0.0002    Z=              0.5696  Tot=              3.6130
 Quadrupole moment (field-independent basis, Debye-Ang):
   XX=            -96.1876   YY=            -75.1928   ZZ=            -80.5020
   XY=             -0.0008   XZ=             -2.6472   YZ=              0.0019

 Summary of Natural Population Analysis:

                                       Natural Population
                Natural  -----------------------------------------------
    Atom  No    Charge         Core      Valence    Rydberg      Total
 -----------------------------------------------------------------------
      C    1    0.06237      1.99876     3.92087    0.01800     5.93763
      C    2   -0.24791      1.99901     4.23462    0.01428     6.24791
      C    3   -0.19385      1.99901     4.17859    0.01626     6.19385
      C    4   -0.36645      1.99867     4.34234    0.02544     6.36645
      C    5   -0.19385      1.99901     4.17859    0.01626     6.19385
      C    6   -0.24791      1.99901     4.23462    0.01428     6.24791
      S    7    2.43108      9.99869     3.36904    0.20119    13.56892
      O    8   -0.89808      1.99988     6.87491    0.02328     8.89808
      O    9   -0.89809      1.99988     6.87492    0.02328     8.89809
      F   10   -0.50268      1.99997     7.49341    0.00930     9.50268
      N   11    0.39798      1.99957     4.55534    0.04712     6.60202
      O   12   -0.21405      1.99984     6.19919    0.01501     8.21405
      O   13   -0.21405      1.99984     6.19920    0.01501     8.21405
      H   14    0.26771      0.00000     0.73153    0.00077     0.73229
      H   15    0.27504      0.00000     0.72387    0.00109     0.72496
      H   16    0.27505      0.00000     0.72386    0.00109     0.72495
      H   17    0.26771      0.00000     0.73153    0.00077     0.73229
 =======================================================================
   * Total *    0.00000     33.99112    69.56645    0.44243   104.00000

 Normal termination of Gaussian 16 at Mon Aug 24 18:29:23 2020.
