 Gaussian 16, Revision A.03,

 ---------------------------------
 # opt=CalcAll B3LYP/6-31G* scf=qc
 ---------------------------------

 -------------------
 Title Card Required
 -------------------
 Symbolic Z-matrix:
 Charge =  0 Multiplicity = 1

 SCF Done:  E(RB3LYP) =  -880.056997577     a.u. after    8 cycles
 SCF Done:  E(RB3LYP) =  -880.062742742     a.u. after   15 cycles
 SCF Done:  E(RB3LYP) =  -880.063925699     a.u. after   15 cycles
 SCF Done:  E(RB3LYP) =  -880.063853225     a.u. after   13 cycles
 SCF Done:  E(RB3LYP) =  -880.064044098     a.u. after   11 cycles
 SCF Done:  E(RB3LYP) =  -880.064041781     a.u. after    5 cycles
 SCF Done:  E(RB3LYP) =  -880.064044705     a.u. after    4 cycles
 Optimization completed.
    -- Stationary point found.
 Normal termination of Gaussian 16 at Mon Aug 24 17:25:56 2020.

 ----------------------------------------------------------------------
 # freq B3LYP/6-31G* scf=qc volume NMR pop=NPA density=current Geom=All
 Check Guess=Read
 ----------------------------------------------------------------------

 Structure from the checkpoint file:  "sulfonylfluoride_1_conf42.chk"
 -------------------
 Title Card Required
 -------------------
 Charge =  0 Multiplicity = 1

 SCF Done:  E(RB3LYP) =  -880.064044705     a.u. after    1 cycles

      1  C    Isotropic =    67.5153   Anisotropy =   169.1608

      2  C    Isotropic =    62.2922   Anisotropy =   178.5539

      3  C    Isotropic =    67.5157   Anisotropy =   169.1601

      4  C    Isotropic =    67.8827   Anisotropy =   170.9417

      5  C    Isotropic =    55.6201   Anisotropy =   111.5168

      6  C    Isotropic =    67.8829   Anisotropy =   170.9422

      7  S    Isotropic =   212.0635   Anisotropy =   320.1023

      8  O    Isotropic =   106.4299   Anisotropy =    75.6296

      9  O    Isotropic =   106.4417   Anisotropy =    75.6347

     10  F    Isotropic =    97.6855   Anisotropy =   363.9134

     11  H    Isotropic =    24.7471   Anisotropy =     4.7283

     12  H    Isotropic =    24.6549   Anisotropy =     4.6499

     13  H    Isotropic =    24.7471   Anisotropy =     4.7283

     14  H    Isotropic =    24.3792   Anisotropy =     7.8326

     15  H    Isotropic =    24.3792   Anisotropy =     7.8325

  Exact polarizability: 107.804  -0.000  88.192   3.157   0.001  39.458
 Approx polarizability: 161.463   0.000 163.826   6.078   0.003  64.312

                      1                      2                      3
                      A                      A                      A
 Frequencies --     40.6958               115.6117               184.5592
 Red. masses --      5.7887                 7.1219                 6.9874
 Frc consts  --      0.0056                 0.0561                 0.1402
 IR Inten    --      0.0552                 0.2961                 1.2276

                      4                      5                      6
                      A                      A                      A
 Frequencies --    270.8861               311.8028               334.8355
 Red. masses --      6.5958                 8.7868                 9.5035
 Frc consts  --      0.2852                 0.5033                 0.6278
 IR Inten    --      1.9737                 1.9045                 1.3699

                      7                      8                      9
                      A                      A                      A
 Frequencies --    413.3342               437.6786               467.1845
 Red. masses --      2.9688                 7.3566                12.2812
 Frc consts  --      0.2988                 0.8303                 1.5793
 IR Inten    --      0.0201                 3.6444                 7.7420

                     10                     11                     12
                      A                      A                      A
 Frequencies --    517.3386               574.9541               626.5316
 Red. masses --      5.6332                14.4312                 6.4428
 Frc consts  --      0.8883                 2.8107                 1.4901
 IR Inten    --     13.5583               120.7662                 0.0002

                     13                     14                     15
                      A                      A                      A
 Frequencies --    693.0524               718.5879               761.0439
 Red. masses --      2.8097                 7.5828                 1.4277
 Frc consts  --      0.7951                 2.3070                 0.4872
 IR Inten    --     12.1361                29.0597                92.6431

                     16                     17                     18
                      A                      A                      A
 Frequencies --    794.3550               860.9412               945.9264
 Red. masses --     11.4565                 1.2431                 1.3028
 Frc consts  --      4.2593                 0.5429                 0.6868
 IR Inten    --    181.0799                 0.1115                 1.0437

                     19                     20                     21
                      A                      A                      A
 Frequencies --    983.6244              1012.5060              1015.0936
 Red. masses --      1.3550                 1.2810                 6.4277
 Frc consts  --      0.7724                 0.7737                 3.9023
 IR Inten    --      0.0331                 0.0390                 2.2257

                     22                     23                     24
                      A                      A                      A
 Frequencies --   1049.9496              1100.6647              1113.0696
 Red. masses --      2.9514                 3.0030                 1.5564
 Frc consts  --      1.9170                 2.1435                 1.1361
 IR Inten    --      1.4470                18.1942                 4.2628

                     25                     26                     27
                      A                      A                      A
 Frequencies --   1183.4499              1198.2947              1213.0250
 Red. masses --     10.1824                 1.1069                 1.1741
 Frc consts  --      8.4023                 0.9365                 1.0179
 IR Inten    --    214.0890                 0.0747                 0.5005

                     28                     29                     30
                      A                      A                      A
 Frequencies --   1346.4888              1362.5572              1389.7773
 Red. masses --      1.6091                 3.9730                13.6760
 Frc consts  --      1.7188                 4.3459                15.5633
 IR Inten    --      0.2092                40.9213               135.7482

                     31                     32                     33
                      A                      A                      A
 Frequencies --   1495.4571              1526.5842              1644.4960
 Red. masses --      2.1979                 2.0367                 5.3143
 Frc consts  --      2.8960                 2.7965                 8.4677
 IR Inten    --     22.7968                 3.2845                 2.9800

                     34                     35                     36
                      A                      A                      A
 Frequencies --   1645.5528              3196.9850              3209.2346
 Red. masses --      5.7523                 1.0865                 1.0901
 Frc consts  --      9.1774                 6.5429                 6.6146
 IR Inten    --      0.1222                 0.8692                10.6135

                     37                     38                     39
                      A                      A                      A
 Frequencies --   3217.5937              3233.7772              3234.6314
 Red. masses --      1.0946                 1.0931                 1.0949
 Frc consts  --      6.6771                 6.7348                 6.7496
 IR Inten    --     10.6754                 0.3364                 4.3244

 - Thermochemistry -
 -------------------
 Temperature   298.150 Kelvin.  Pressure   1.00000 Atm.
 Atom     1 has atomic number  6 and mass  12.00000

 Molecular mass:   159.99943 amu.
 Principal axes and moments of inertia in atomic units:
                           1         2         3
     Eigenvalues --   698.490242189.304112502.70010
           X            0.99998  -0.00000   0.00572
           Y            0.00000   1.00000   0.00001
           Z           -0.00572  -0.00001   0.99998
 This molecule is an asymmetric top.
 Rotational symmetry number  1.
 Warning -- assumption of classical behavior for rotation
           may cause significant error
 Rotational temperatures (Kelvin)      0.12400     0.03956     0.03461
 Rotational constants (GHZ):           2.58377     0.82434     0.72112
 Zero-point vibrational energy     271804.3 (Joules/Mol)
                                   64.96279 (Kcal/Mol)
 Warning -- explicit consideration of  11 degrees of freedom as
           vibrations may cause significant error
 Vibrational temperatures:     58.55   166.34   265.54   389.74   448.61
          (Kelvin)            481.75   594.70   629.72   672.17   744.33
                              827.23   901.44   997.15  1033.89  1094.97
                             1142.90  1238.70  1360.98  1415.22  1456.77
                             1460.49  1510.64  1583.61  1601.46  1702.72
                             1724.08  1745.27  1937.30  1960.42  1999.58
                             2151.63  2196.41  2366.06  2367.58  4599.75
                             4617.37  4629.40  4652.68  4653.91

 Zero-point correction=                           0.103525 (Hartree/Particle)
 Thermal correction to Energy=                    0.111875
 Thermal correction to Enthalpy=                  0.112819
 Thermal correction to Gibbs Free Energy=         0.069228
 Sum of electronic and zero-point Energies=           -879.960520
 Sum of electronic and thermal Energies=              -879.952170
 Sum of electronic and thermal Enthalpies=            -879.951226
 Sum of electronic and thermal Free Energies=         -879.994817

                     E (Thermal)             CV                S
                      KCal/Mol        Cal/Mol-Kelvin    Cal/Mol-Kelvin
 Total                   70.203             31.362             91.746
 Electronic               0.000              0.000              0.000
 Translational            0.889              2.981             41.119
 Rotational               0.889              2.981             29.727
 Vibrational             68.425             25.400             20.900
 Vibration     1          0.594              1.981              5.225
 Vibration     2          0.608              1.936              3.172
 Vibration     3          0.631              1.861              2.282
 Vibration     4          0.675              1.727              1.591
 Vibration     5          0.700              1.651              1.353
 Vibration     6          0.716              1.606              1.237
 Vibration     7          0.777              1.441              0.915
 Vibration     8          0.798              1.388              0.834
 Vibration     9          0.824              1.323              0.745
 Vibration    10          0.872              1.212              0.616
 Vibration    11          0.931              1.085              0.495

 Optimization completed.
    -- Stationary point found.
 Normal termination of Gaussian 16 at Mon Aug 24 17:29:23 2020.
 Gaussian 16:  ES64L-G16RevA.03 25-Dec-2016

 ----------------------------------------------------------------------
 # TD(NStates=10, Root=1) B3LYP/6-31G* scf=qc volume pop=NPA density=cu
 rrent Geom=AllCheck Guess=Read
 ----------------------------------------------------------------------

 Structure from the checkpoint file:  "sulfonylfluoride_1_conf43.chk"
 -------------------
 Title Card Required
 -------------------
 Charge =  0 Multiplicity = 1

                         Standard orientation:
 ---------------------------------------------------------------------
 Center     Atomic      Atomic             Coordinates (Angstroms)
 Number     Number       Type             X           Y           Z
 ---------------------------------------------------------------------
      1          6           0       -2.369735    1.213037   -0.006370
      2          6           0       -3.062405    0.000012   -0.035416
      3          6           0       -2.369760   -1.213026   -0.006375
      4          6           0       -0.976778   -1.222286    0.047517
      5          6           0       -0.301653   -0.000015    0.069593
      6          6           0       -0.976755    1.222272    0.047522
      7         16           0        1.474172   -0.000034    0.134909
      8          8           0        1.957458    1.272724    0.637291
      9          8           0        1.957453   -1.273012    0.636739
     10          9           0        1.805627    0.000318   -1.455315
     11          1           0       -2.913301    2.152928   -0.021187
     12          1           0       -4.147978    0.000023   -0.075747
     13          1           0       -2.913344   -2.152906   -0.021196
     14          1           0       -0.419790   -2.152197    0.083171
     15          1           0       -0.419755    2.152176    0.083183
 ---------------------------------------------------------------------

 SCF Done:  E(RB3LYP) =  -880.064044705     a.u. after    1 cycles

 Excitation energies and oscillator strengths:

 Excited State   1:      Singlet-A      5.2821 eV  234.73 nm  f=0.0136  <S**2>=0.000
      40 -> 43        -0.38089
      41 -> 42         0.59457
 This state for optimization and/or second-order correction.
 Total Energy, E(TD-HF/TD-DFT) =  -879.869931956
 Copying the excited state density for this state as the 1-particle RhoCI density.

 Excited State   2:      Singlet-A      5.8987 eV  210.19 nm  f=0.1108  <S**2>=0.000
      40 -> 42         0.63560
      41 -> 43         0.29408

 Excited State   3:      Singlet-A      6.2793 eV  197.45 nm  f=0.0020  <S**2>=0.000
      38 -> 42        -0.20606
      39 -> 42         0.66824

 Excited State   4:      Singlet-A      6.5879 eV  188.20 nm  f=0.0103  <S**2>=0.000
      37 -> 42         0.67870
      41 -> 43        -0.17200

 Excited State   5:      Singlet-A      6.7153 eV  184.63 nm  f=0.0030  <S**2>=0.000
      38 -> 42         0.64009
      39 -> 42         0.19505
      40 -> 43         0.16866
      41 -> 42         0.10939

 Excited State   6:      Singlet-A      6.9298 eV  178.91 nm  f=0.2430  <S**2>=0.000
      37 -> 43         0.13565
      38 -> 42        -0.19144
      40 -> 43         0.52298
      41 -> 42         0.33530
      41 -> 44        -0.20180

 Excited State   7:      Singlet-A      7.0130 eV  176.79 nm  f=0.5301  <S**2>=0.000
      37 -> 42         0.14172
      40 -> 42        -0.27695
      40 -> 44         0.17206
      41 -> 43         0.59249

 Excited State   8:      Singlet-A      7.1429 eV  173.58 nm  f=0.0008  <S**2>=0.000
      39 -> 43         0.70400

 Excited State   9:      Singlet-A      7.3679 eV  168.28 nm  f=0.0085  <S**2>=0.000
      35 -> 42         0.34388
      37 -> 43         0.57659
      41 -> 44         0.16744

 Excited State  10:      Singlet-A      7.4339 eV  166.78 nm  f=0.0006  <S**2>=0.000
      35 -> 42         0.61246
      37 -> 43        -0.32575
      41 -> 44        -0.11187

 The electronic state is 1-A.
 Alpha  occ. eigenvalues --  -89.15410 -24.73156 -19.17449 -19.17449 -10.25284
 Alpha  occ. eigenvalues --  -10.23280 -10.23279 -10.22790 -10.22539 -10.22533
 Alpha  occ. eigenvalues --   -8.17709  -6.14388  -6.14058  -6.13937  -1.24473
 Alpha  occ. eigenvalues --   -1.11427  -1.03497  -0.89502  -0.80126  -0.78299
 Alpha  occ. eigenvalues --   -0.69901  -0.64277  -0.62257  -0.57540  -0.53633
 Alpha  occ. eigenvalues --   -0.51254  -0.50248  -0.47888  -0.47727  -0.45828
 Alpha  occ. eigenvalues --   -0.44094  -0.43598  -0.40673  -0.39497  -0.38197
 Alpha  occ. eigenvalues --   -0.37937  -0.34241  -0.34139  -0.32499  -0.29115
 Alpha  occ. eigenvalues --   -0.28608
 Alpha virt. eigenvalues --   -0.06081  -0.03517   0.02442   0.05402   0.08488
 Alpha virt. eigenvalues --    0.10362   0.11395   0.12382   0.13627   0.14711
 Alpha virt. eigenvalues --    0.16435   0.17786   0.24524   0.27186   0.28004

 Mulliken charges:
               1
     1  C   -0.117590
     2  C   -0.134136
     3  C   -0.117589
     4  C   -0.129952
     5  C   -0.158072
     6  C   -0.129946
     7  S    1.179327
     8  O   -0.486439
     9  O   -0.486440
    10  F   -0.306046
    11  H    0.166993
    12  H    0.152493
    13  H    0.166992
    14  H    0.200206
    15  H    0.200200
 Sum of Mulliken charges =  -0.00000

 Dipole moment (field-independent basis, Debye):
    X=             -6.0664    Y=              0.0002    Z=             -0.6941  Tot=              6.1059
 Quadrupole moment (field-independent basis, Debye-Ang):
   XX=            -62.0785   YY=            -59.2987   ZZ=            -66.4611
   XY=              0.0004   XZ=             -1.7729   YZ=             -0.0006

 Summary of Natural Population Analysis:

                                       Natural Population
                Natural  -----------------------------------------------
    Atom  No    Charge         Core      Valence    Rydberg      Total
 -----------------------------------------------------------------------
      C    1   -0.17005      1.99914     4.15389    0.01702     6.17005
      C    2   -0.27087      1.99917     4.25427    0.01744     6.27087
      C    3   -0.17006      1.99914     4.15389    0.01702     6.17006
      C    4   -0.17179      1.99904     4.15269    0.02006     6.17179
      C    5   -0.36987      1.99874     4.34235    0.02878     6.36987
      C    6   -0.17179      1.99904     4.15269    0.02006     6.17179
      S    7    2.38816      9.99872     3.40906    0.20406    13.61184
      O    8   -0.90730      1.99988     6.88446    0.02295     8.90730
      O    9   -0.90730      1.99988     6.88447    0.02295     8.90730
      F   10   -0.51427      1.99997     7.50484    0.00946     9.51427
      H   11    0.24530      0.00000     0.75392    0.00078     0.75470
      H   12    0.24287      0.00000     0.75635    0.00078     0.75713
      H   13    0.24530      0.00000     0.75392    0.00078     0.75470
      H   14    0.26584      0.00000     0.73285    0.00131     0.73416
      H   15    0.26583      0.00000     0.73285    0.00131     0.73417
 =======================================================================
   * Total *   -0.00000     27.99272    53.62253    0.38475    82.00000

 Normal termination of Gaussian 16 at Mon Aug 24 17:34:05 2020.
