 Gaussian 16, Revision A.03,

 ---------------------------------
 # opt=CalcAll B3LYP/6-31G* scf=qc
 ---------------------------------

 -------------------
 Title Card Required
 -------------------
 Symbolic Z-matrix:
 Charge =  0 Multiplicity = 1

 SCF Done:  E(RB3LYP) =  -1339.65304782     a.u. after    8 cycles
 SCF Done:  E(RB3LYP) =  -1339.65712905     a.u. after   11 cycles
 SCF Done:  E(RB3LYP) =  -1339.65777916     a.u. after   13 cycles
 SCF Done:  E(RB3LYP) =  -1339.65780719     a.u. after    9 cycles
 SCF Done:  E(RB3LYP) =  -1339.65780875     a.u. after    5 cycles
 SCF Done:  E(RB3LYP) =  -1339.65780987     a.u. after    3 cycles
 Optimization completed.
    -- Stationary point found.
 Normal termination of Gaussian 16 at Mon Aug 24 17:22:44 2020.

 ----------------------------------------------------------------------
 # freq B3LYP/6-31G* scf=qc volume NMR pop=NPA density=current Geom=All
 Check Guess=Read
 ----------------------------------------------------------------------

 Structure from the checkpoint file:  "sulfonylfluoride_2_conf12.chk"
 -------------------
 Title Card Required
 -------------------
 Charge =  0 Multiplicity = 1

 SCF Done:  E(RB3LYP) =  -1339.65780987     a.u. after    1 cycles

      1  C    Isotropic =    66.6157   Anisotropy =   144.3788

      2  C    Isotropic =    45.8357   Anisotropy =   122.3035

      3  C    Isotropic =    66.6162   Anisotropy =   144.3782

      4  C    Isotropic =    66.8429   Anisotropy =   166.8088

      5  C    Isotropic =    57.6065   Anisotropy =   111.3916

      6  C    Isotropic =    66.8434   Anisotropy =   166.8096

      7  S    Isotropic =   214.8362   Anisotropy =   325.0816

      8  O    Isotropic =   105.5035   Anisotropy =    73.4760

      9  O    Isotropic =   105.4922   Anisotropy =    73.4725

     10  F    Isotropic =    96.9613   Anisotropy =   364.3733

     11  Cl   Isotropic =   697.8027   Anisotropy =   442.3304

     12  H    Isotropic =    24.9473   Anisotropy =     7.0624

     13  H    Isotropic =    24.9473   Anisotropy =     7.0624

     14  H    Isotropic =    24.4990   Anisotropy =     7.5851

     15  H    Isotropic =    24.4990   Anisotropy =     7.5849

  Exact polarizability: 140.252  -0.000  91.290   3.111   0.001  44.098
 Approx polarizability: 202.789  -0.000 170.622   5.869   0.003  71.668

                      1                      2                      3
                      A                      A                      A
 Frequencies --     41.3605                72.8155               150.9623
 Red. masses --      5.8034                12.8476                11.3710
 Frc consts  --      0.0058                 0.0401                 0.1527
 IR Inten    --      0.0477                 2.3101                 3.3372

                      4                      5                      6
                      A                      A                      A
 Frequencies --    184.8382               254.9765               284.9745
 Red. masses --     10.7949                17.0318                 9.8579
 Frc consts  --      0.2173                 0.6524                 0.4717
 IR Inten    --      0.0890                 0.2701                 0.3336

                      7                      8                      9
                      A                      A                      A
 Frequencies --    340.1891               356.9494               417.4139
 Red. masses --      8.3307                 7.0777                 3.0354
 Frc consts  --      0.5680                 0.5313                 0.3116
 IR Inten    --      3.2606                 1.5267                 0.0124

                     10                     11                     12
                      A                      A                      A
 Frequencies --    457.2482               472.4436               478.8030
 Red. masses --      7.7832                10.4725                10.7922
 Frc consts  --      0.9588                 1.3772                 1.4577
 IR Inten    --      3.5423                 7.1809                54.4077

                     13                     14                     15
                      A                      A                      A
 Frequencies --    521.9178               609.9004               638.2761
 Red. masses --      4.1913                14.0945                 7.1344
 Frc consts  --      0.6727                 3.0890                 1.7125
 IR Inten    --     21.2886                81.6818                 0.1344

                     16                     17                     18
                      A                      A                      A
 Frequencies --    699.6079               754.9112               796.7019
 Red. masses --      4.7127                 8.7590                12.5483
 Frc consts  --      1.3590                 2.9410                 4.6927
 IR Inten    --      4.6170                46.6998               281.0850

                     19                     20                     21
                      A                      A                      A
 Frequencies --    840.2439               842.8005               972.9535
 Red. masses --      1.4431                 1.2416                 1.2560
 Frc consts  --      0.6003                 0.5196                 0.7005
 IR Inten    --     28.4896                 0.1028                 0.0051

                     22                     23                     24
                      A                      A                      A
 Frequencies --    978.3941              1028.7112              1101.5767
 Red. masses --      1.3421                 4.5634                 5.0365
 Frc consts  --      0.7569                 2.8453                 3.6009
 IR Inten    --      0.0435                21.2323                37.3745

                     25                     26                     27
                      A                      A                      A
 Frequencies --   1110.7726              1141.0313              1184.3187
 Red. masses --      2.7243                 1.3347                 9.3112
 Frc consts  --      1.9804                 1.0239                 7.6947
 IR Inten    --     71.0061                 4.9481               213.8009

                     28                     29                     30
                      A                      A                      A
 Frequencies --   1213.0949              1329.0918              1346.2990
 Red. masses --      1.1866                 1.3297                 7.9444
 Frc consts  --      1.0289                 1.3840                 8.4839
 IR Inten    --      0.6211                 7.0898                10.2276

                     31                     32                     33
                      A                      A                      A
 Frequencies --   1391.5247              1439.0753              1522.8291
 Red. masses --     17.2069                 2.8905                 2.1210
 Frc consts  --     19.6306                 3.5269                 2.8980
 IR Inten    --    149.0719                27.7682                31.2245

                     34                     35                     36
                      A                      A                      A
 Frequencies --   1627.4828              1634.8939              3226.7226
 Red. masses --      7.2194                 5.5165                 1.0891
 Frc consts  --     11.2663                 8.6875                 6.6812
 IR Inten    --      5.1244                61.9045                 0.0898

                     37                     38                     39
                      A                      A                      A
 Frequencies --   3227.8283              3238.5910              3239.6992
 Red. masses --      1.0889                 1.0949                 1.0959
 Frc consts  --      6.6841                 6.7658                 6.7767
 IR Inten    --      0.8882                 0.0509                 1.8845

 - Thermochemistry -
 -------------------
 Temperature   298.150 Kelvin.  Pressure   1.00000 Atm.
 Atom     1 has atomic number  6 and mass  12.00000

 Molecular mass:   193.96046 amu.
 Principal axes and moments of inertia in atomic units:
                           1         2         3
     Eigenvalues --   699.986094583.645084897.56949
           X            1.00000  -0.00000   0.00308
           Y            0.00000   1.00000   0.00001
           Z           -0.00308  -0.00001   1.00000
 This molecule is an asymmetric top.
 Rotational symmetry number  1.
 Warning -- assumption of classical behavior for rotation
           may cause significant error
 Rotational temperatures (Kelvin)      0.12374     0.01890     0.01769
 Rotational constants (GHZ):           2.57825     0.39373     0.36850
 Zero-point vibrational energy     246264.6 (Joules/Mol)
                                   58.85865 (Kcal/Mol)
 Warning -- explicit consideration of  14 degrees of freedom as
           vibrations may cause significant error
 Vibrational temperatures:     59.51   104.77   217.20   265.94   366.85
          (Kelvin)            410.01   489.46   513.57   600.57   657.88
                              679.74   688.89   750.92   877.51   918.34
                             1006.58  1086.15  1146.28  1208.92  1212.60
                             1399.86  1407.69  1480.09  1584.92  1598.15
                             1641.69  1703.97  1745.37  1912.27  1937.02
                             2002.09  2070.51  2191.01  2341.58  2352.25
                             4642.53  4644.12  4659.61  4661.20

 Zero-point correction=                           0.093797 (Hartree/Particle)
 Thermal correction to Energy=                    0.103361
 Thermal correction to Enthalpy=                  0.104305
 Thermal correction to Gibbs Free Energy=         0.057319
 Sum of electronic and zero-point Energies=          -1339.564013
 Sum of electronic and thermal Energies=             -1339.554449
 Sum of electronic and thermal Enthalpies=           -1339.553504
 Sum of electronic and thermal Free Energies=        -1339.600491

                     E (Thermal)             CV                S
                      KCal/Mol        Cal/Mol-Kelvin    Cal/Mol-Kelvin
 Total                   64.860             35.207             98.891
 Electronic               0.000              0.000              0.000
 Translational            0.889              2.981             41.693
 Rotational               0.889              2.981             31.130
 Vibrational             63.083             29.245             26.067
 Vibration     1          0.594              1.981              5.193
 Vibration     2          0.599              1.967              4.076
 Vibration     3          0.618              1.902              2.660
 Vibration     4          0.631              1.861              2.279
 Vibration     5          0.665              1.754              1.696
 Vibration     6          0.683              1.702              1.504
 Vibration     7          0.720              1.595              1.211
 Vibration     8          0.732              1.561              1.135
 Vibration     9          0.780              1.432              0.901
 Vibration    10          0.815              1.345              0.774
 Vibration    11          0.829              1.311              0.731
 Vibration    12          0.835              1.297              0.713
 Vibration    13          0.877              1.201              0.606
 Vibration    14          0.969              1.011              0.433

 Optimization completed.
    -- Stationary point found.
 Normal termination of Gaussian 16 at Mon Aug 24 17:26:36 2020.
 Gaussian 16:  ES64L-G16RevA.03 25-Dec-2016

 ----------------------------------------------------------------------
 # TD(NStates=10, Root=1) B3LYP/6-31G* scf=qc volume pop=NPA density=cu
 rrent Geom=AllCheck Guess=Read
 ----------------------------------------------------------------------

 Structure from the checkpoint file:  "sulfonylfluoride_2_conf13.chk"
 -------------------
 Title Card Required
 -------------------
 Charge =  0 Multiplicity = 1

                         Standard orientation:
 ---------------------------------------------------------------------
 Center     Atomic      Atomic             Coordinates (Angstroms)
 Number     Number       Type             X           Y           Z
 ---------------------------------------------------------------------
      1          6           0        1.579264   -1.219173   -0.028437
      2          6           0        2.260670    0.000001   -0.007386
      3          6           0        1.579278    1.219182   -0.028433
      4          6           0        0.187394    1.219914   -0.065821
      5          6           0       -0.491914    0.000015   -0.080011
      6          6           0        0.187382   -1.219893   -0.065827
      7         16           0       -2.267081    0.000031   -0.125644
      8          8           0       -2.751566    1.273835   -0.622649
      9          8           0       -2.751578   -1.273555   -0.623199
     10          9           0       -2.579280   -0.000321    1.467079
     11         17           0        4.009743   -0.000009    0.038743
     12          1           0        2.131980   -2.151957   -0.019953
     13          1           0        2.132002    2.151960   -0.019945
     14          1           0       -0.365036    2.152757   -0.094925
     15          1           0       -0.365051   -2.152734   -0.094936
 ---------------------------------------------------------------------

 SCF Done:  E(RB3LYP) =  -1339.65780987     a.u. after    1 cycles

 Excitation energies and oscillator strengths:

 Excited State   1:      Singlet-A      5.1801 eV  239.35 nm  f=0.0023  <S**2>=0.000
      48 -> 50         0.51675
      49 -> 51         0.47833
 This state for optimization and/or second-order correction.
 Total Energy, E(TD-HF/TD-DFT) =  -1339.46744366
 Copying the excited state density for this state as the 1-particle RhoCI density.

 Excited State   2:      Singlet-A      5.4643 eV  226.90 nm  f=0.2741  <S**2>=0.000
      48 -> 51        -0.19144
      49 -> 50         0.67661

 Excited State   3:      Singlet-A      6.1708 eV  200.92 nm  f=0.0012  <S**2>=0.000
      44 -> 50         0.13386
      46 -> 50         0.21111
      47 -> 50         0.65471

 Excited State   4:      Singlet-A      6.3293 eV  195.89 nm  f=0.0000  <S**2>=0.000
      44 -> 50        -0.14686
      46 -> 50         0.65959
      47 -> 50        -0.17852

 Excited State   5:      Singlet-A      6.4414 eV  192.48 nm  f=0.1711  <S**2>=0.000
      43 -> 51         0.14314
      44 -> 50        -0.17467
      48 -> 50        -0.44096
      49 -> 51         0.48642

 Excited State   6:      Singlet-A      6.5401 eV  189.57 nm  f=0.0024  <S**2>=0.000
      43 -> 50         0.13889
      45 -> 50         0.68364

 Excited State   7:      Singlet-A      6.6196 eV  187.30 nm  f=0.0006  <S**2>=0.000
      49 -> 52         0.69010
      49 -> 53         0.11520

 Excited State   8:      Singlet-A      6.6702 eV  185.88 nm  f=0.0359  <S**2>=0.000
      44 -> 50         0.64721
      46 -> 50         0.11386
      47 -> 50        -0.17241
      49 -> 51         0.11829

 Excited State   9:      Singlet-A      6.8762 eV  180.31 nm  f=0.4180  <S**2>=0.000
      43 -> 50         0.17964
      47 -> 51        -0.14859
      48 -> 51         0.62573
      49 -> 50         0.16126

 Excited State  10:      Singlet-A      6.9074 eV  179.50 nm  f=0.0162  <S**2>=0.000
      46 -> 51         0.40603
      47 -> 51         0.55986
      48 -> 51         0.12588

 The electronic state is 1-A.
 Alpha  occ. eigenvalues -- -101.57573 -89.16169 -24.73855 -19.18141 -19.18140
 Alpha  occ. eigenvalues --  -10.29153 -10.26198 -10.24591 -10.24590 -10.23974
 Alpha  occ. eigenvalues --  -10.23974  -9.49208  -8.18455  -7.25614  -7.24638
 Alpha  occ. eigenvalues --   -7.24586  -6.15132  -6.14802  -6.14691  -1.25204
 Alpha  occ. eigenvalues --   -1.12136  -1.04219  -0.92688  -0.87800  -0.79852
 Alpha  occ. eigenvalues --   -0.79200  -0.69746  -0.66157  -0.62734  -0.58513
 Alpha  occ. eigenvalues --   -0.53864  -0.51895  -0.51383  -0.49381  -0.49028
 Alpha  occ. eigenvalues --   -0.47235  -0.44989  -0.44303  -0.43041  -0.41584
 Alpha  occ. eigenvalues --   -0.40137  -0.39064  -0.36670  -0.34909  -0.34869
 Alpha  occ. eigenvalues --   -0.33876  -0.33145  -0.29967  -0.28426
 Alpha virt. eigenvalues --   -0.07146  -0.04820   0.00213   0.02084   0.05008
 Alpha virt. eigenvalues --    0.09030   0.09776   0.11540   0.12347   0.12489
 Alpha virt. eigenvalues --    0.14953   0.17503   0.23025   0.24272   0.24916

 Mulliken charges:
               1
     1  C   -0.124511
     2  C   -0.078597
     3  C   -0.124512
     4  C   -0.140362
     5  C   -0.151448
     6  C   -0.140358
     7  S    1.196950
     8  O   -0.477347
     9  O   -0.477345
    10  F   -0.300039
    11  Cl   0.057406
    12  H    0.180044
    13  H    0.180043
    14  H    0.200042
    15  H    0.200035
 Sum of Mulliken charges =   0.00000

 Dipole moment (field-independent basis, Debye):
    X=              4.5505    Y=             -0.0001    Z=              0.5945  Tot=              4.5892
 Quadrupole moment (field-independent basis, Debye-Ang):
   XX=            -86.2172   YY=            -70.8328   ZZ=            -77.8263
   XY=              0.0005   XZ=             -2.3832   YZ=             -0.0007

 Summary of Natural Population Analysis:

                                       Natural Population
                Natural  -----------------------------------------------
    Atom  No    Charge         Core      Valence    Rydberg      Total
 -----------------------------------------------------------------------
      C    1   -0.21543      1.99897     4.19702    0.01944     6.21543
      C    2   -0.07095      1.99863     4.04964    0.02269     6.07095
      C    3   -0.21544      1.99897     4.19703    0.01944     6.21544
      C    4   -0.19843      1.99903     4.17922    0.02017     6.19843
      C    5   -0.33724      1.99872     4.31092    0.02761     6.33724
      C    6   -0.19843      1.99903     4.17923    0.02017     6.19843
      S    7    2.40564      9.99870     3.39258    0.20308    13.59436
      O    8   -0.89856      1.99988     6.87556    0.02311     8.89856
      O    9   -0.89855      1.99988     6.87555    0.02311     8.89855
      F   10   -0.50642      1.99997     7.49704    0.00941     9.50642
     Cl   11    0.07890      9.99964     6.90080    0.02067    16.92110
      H   12    0.25821      0.00000     0.74082    0.00097     0.74179
      H   13    0.25821      0.00000     0.74082    0.00097     0.74179
      H   14    0.26925      0.00000     0.72955    0.00121     0.73075
      H   15    0.26924      0.00000     0.72955    0.00121     0.73076
 =======================================================================
   * Total *    0.00000     37.99143    59.59533    0.41324    98.00000

 Normal termination of Gaussian 16 at Mon Aug 24 17:31:51 2020.
