 Gaussian 16, Revision A.03,

 ---------------------------------
 # opt=CalcAll B3LYP/6-31G* scf=qc
 ---------------------------------

 -------------------
 Title Card Required
 -------------------
 Symbolic Z-matrix:
 Charge =  0 Multiplicity = 1

 SCF Done:  E(RB3LYP) =  -919.357138894     a.u. after    8 cycles
 SCF Done:  E(RB3LYP) =  -919.361383854     a.u. after   15 cycles
 SCF Done:  E(RB3LYP) =  -919.376655943     a.u. after   15 cycles
 SCF Done:  E(RB3LYP) =  -919.379547441     a.u. after   15 cycles
 SCF Done:  E(RB3LYP) =  -919.380801708     a.u. after   15 cycles
 SCF Done:  E(RB3LYP) =  -919.380975802     a.u. after   13 cycles
 SCF Done:  E(RB3LYP) =  -919.380988918     a.u. after    7 cycles
 SCF Done:  E(RB3LYP) =  -919.380989868     a.u. after    3 cycles
 SCF Done:  E(RB3LYP) =  -919.380989882     a.u. after    2 cycles
 Optimization completed.
    -- Stationary point found.
 Normal termination of Gaussian 16 at Mon Aug 24 18:03:49 2020.

 ----------------------------------------------------------------------
 # freq B3LYP/6-31G* scf=qc volume NMR pop=NPA density=current Geom=All
 Check Guess=Read
 ----------------------------------------------------------------------

 Structure from the checkpoint file:  "sulfonylfluoride_6_conf102.chk"
 -------------------
 Title Card Required
 -------------------
 Charge =  0 Multiplicity = 1

 SCF Done:  E(RB3LYP) =  -919.380989882     a.u. after    1 cycles

      1  C    Isotropic =   126.7498   Anisotropy =    45.1969

      2  H    Isotropic =    28.1443   Anisotropy =     3.4906

      3  H    Isotropic =    28.2988   Anisotropy =     3.8302

      4  C    Isotropic =    69.8209   Anisotropy =   159.3552

      5  C    Isotropic =    65.0596   Anisotropy =   157.3751

      6  C    Isotropic =    67.7501   Anisotropy =   166.8104

      7  C    Isotropic =    66.5458   Anisotropy =   172.3576

      8  C    Isotropic =    67.4579   Anisotropy =   167.5277

      9  C    Isotropic =    64.3995   Anisotropy =   160.8302

     10  S    Isotropic =   199.7784   Anisotropy =   298.3364

     11  O    Isotropic =    91.3438   Anisotropy =    76.0543

     12  O    Isotropic =    87.8933   Anisotropy =    70.6240

     13  F    Isotropic =   122.4506   Anisotropy =   350.2894

     14  H    Isotropic =    24.9575   Anisotropy =     7.2710

     15  H    Isotropic =    24.9028   Anisotropy =     4.7485

     16  H    Isotropic =    24.8645   Anisotropy =     4.2723

     17  H    Isotropic =    24.8601   Anisotropy =     4.7394

     18  H    Isotropic =    24.8776   Anisotropy =     7.3732

  Exact polarizability: 119.453  -0.018  93.573 -17.022  -1.498  56.474
 Approx polarizability: 175.276   2.219 167.034 -35.935  -4.966  92.314

                      1                      2                      3
                      A                      A                      A
 Frequencies --     24.3334                61.2204                81.6706
 Red. masses --      5.4911                 5.9460                 7.0032
 Frc consts  --      0.0019                 0.0131                 0.0275
 IR Inten    --      0.1792                 1.2072                 1.7798

                      4                      5                      6
                      A                      A                      A
 Frequencies --    208.1794               241.0379               267.7461
 Red. masses --      6.4214                 8.3090                 8.9258
 Frc consts  --      0.1640                 0.2844                 0.3770
 IR Inten    --      1.7447                 0.1054                 1.0805

                      7                      8                      9
                      A                      A                      A
 Frequencies --    355.4648               410.0333               414.4205
 Red. masses --      1.9860                10.5766                 3.0773
 Frc consts  --      0.1479                 1.0477                 0.3114
 IR Inten    --      1.0470                 9.8489                 0.6917

                     10                     11                     12
                      A                      A                      A
 Frequencies --    440.7548               463.5866               532.8539
 Red. masses --      7.7557                 5.6465                 6.0106
 Frc consts  --      0.8877                 0.7150                 1.0055
 IR Inten    --     10.4260                 9.5246                76.5329

                     13                     14                     15
                      A                      A                      A
 Frequencies --    609.0728               634.8659               685.9086
 Red. masses --      5.5289                 6.2699                 6.9487
 Frc consts  --      1.2085                 1.4889                 1.9261
 IR Inten    --     20.6336                 0.0287                23.7746

                     16                     17                     18
                      A                      A                      A
 Frequencies --    709.7062               766.8513               810.6769
 Red. masses --      1.7164                 2.7452                 4.0902
 Frc consts  --      0.5094                 0.9512                 1.5838
 IR Inten    --     31.4197                27.2481               115.7306

                     19                     20                     21
                      A                      A                      A
 Frequencies --    835.9840               854.7962               917.5386
 Red. masses --      4.2075                 1.2555                 1.8013
 Frc consts  --      1.7325                 0.5405                 0.8935
 IR Inten    --      0.1138                 0.1124                10.3580

                     22                     23                     24
                      A                      A                      A
 Frequencies --    930.8892               967.7076              1001.8600
 Red. masses --      1.4453                 1.3570                 1.2745
 Frc consts  --      0.7379                 0.7487                 0.7537
 IR Inten    --      5.8917                 0.0413                 0.0340

                     25                     26                     27
                      A                      A                      A
 Frequencies --   1019.2499              1058.8923              1113.9342
 Red. masses --      6.1135                 2.2448                 1.5817
 Frc consts  --      3.7420                 1.4829                 1.1564
 IR Inten    --      1.0735                 1.6598                 4.2750

                     28                     29                     30
                      A                      A                      A
 Frequencies --   1162.5684              1195.6346              1197.6529
 Red. masses --      2.5856                 1.2565                 1.3752
 Frc consts  --      2.0590                 1.0583                 1.1622
 IR Inten    --    105.6231                25.2895                48.6943

                     31                     32                     33
                      A                      A                      A
 Frequencies --   1218.0367              1232.3236              1310.3625
 Red. masses --      1.1405                 2.6964                 1.5427
 Frc consts  --      0.9969                 2.4126                 1.5607
 IR Inten    --      0.1193                 7.0092                23.1293

                     34                     35                     36
                      A                      A                      A
 Frequencies --   1361.9052              1372.2989              1394.3695
 Red. masses --      5.1075                 1.3314                 9.3774
 Frc consts  --      5.5816                 1.4773                10.7421
 IR Inten    --      3.4468                 0.9653               180.7869

                     37                     38                     39
                      A                      A                      A
 Frequencies --   1485.0976              1504.5263              1547.7427
 Red. masses --      1.1093                 2.2135                 2.2167
 Frc consts  --      1.4414                 2.9520                 3.1287
 IR Inten    --      7.9211                 8.4254                 6.6740

                     40                     41                     42
                      A                      A                      A
 Frequencies --   1647.0364              1665.2686              3091.9085
 Red. masses --      5.5107                 5.5072                 1.0602
 Frc consts  --      8.8077                 8.9981                 5.9713
 IR Inten    --      0.5992                 0.0428                 3.6939

                     43                     44                     45
                      A                      A                      A
 Frequencies --   3151.4405              3186.1573              3190.6240
 Red. masses --      1.1063                 1.0858                 1.0878
 Frc consts  --      6.4734                 6.4945                 6.5248
 IR Inten    --      0.0969                 2.3997                 0.4816

                     46                     47                     48
                      A                      A                      A
 Frequencies --   3198.0958              3207.2227              3215.9446
 Red. masses --      1.0911                 1.0945                 1.0981
 Frc consts  --      6.5752                 6.6334                 6.6916
 IR Inten    --     11.4618                26.4337                12.7323

 - Thermochemistry -
 -------------------
 Temperature   298.150 Kelvin.  Pressure   1.00000 Atm.
 Atom     1 has atomic number  6 and mass  12.00000

 Molecular mass:   174.01508 amu.
 Principal axes and moments of inertia in atomic units:
                           1         2         3
     Eigenvalues --   768.743993094.769513355.91212
           X            0.99992  -0.00285  -0.01208
           Y            0.00269   0.99990  -0.01384
           Z            0.01212   0.01380   0.99983
 This molecule is an asymmetric top.
 Rotational symmetry number  1.
 Warning -- assumption of classical behavior for rotation
           may cause significant error
 Rotational temperatures (Kelvin)      0.11267     0.02799     0.02581
 Rotational constants (GHZ):           2.34765     0.58316     0.53778
 Zero-point vibrational energy     346650.6 (Joules/Mol)
                                   82.85148 (Kcal/Mol)
 Warning -- explicit consideration of  13 degrees of freedom as
           vibrations may cause significant error
 Vibrational temperatures:     35.01    88.08   117.51   299.52   346.80
          (Kelvin)            385.23   511.43   589.95   596.26   634.15
                              667.00   766.66   876.32   913.43   986.87
                             1021.11  1103.33  1166.38  1202.79  1229.86
                             1320.13  1339.34  1392.32  1441.45  1466.47
                             1523.51  1602.70  1672.68  1720.25  1723.16
                             1752.48  1773.04  1885.32  1959.48  1974.43
                             2006.19  2136.72  2164.68  2226.86  2369.72
                             2395.95  4448.57  4534.22  4584.17  4590.60
                             4601.35  4614.48  4627.03

 Zero-point correction=                           0.132032 (Hartree/Particle)
 Thermal correction to Energy=                    0.141744
 Thermal correction to Enthalpy=                  0.142689
 Thermal correction to Gibbs Free Energy=         0.095088
 Sum of electronic and zero-point Energies=           -919.248958
 Sum of electronic and thermal Energies=              -919.239246
 Sum of electronic and thermal Enthalpies=            -919.238301
 Sum of electronic and thermal Free Energies=         -919.285902

                     E (Thermal)             CV                S
                      KCal/Mol        Cal/Mol-Kelvin    Cal/Mol-Kelvin
 Total                   88.946             36.177            100.184
 Electronic               0.000              0.000              0.000
 Translational            0.889              2.981             41.369
 Rotational               0.889              2.981             30.458
 Vibrational             87.168             30.215             28.357
 Vibration     1          0.593              1.985              6.245
 Vibration     2          0.597              1.973              4.417
 Vibration     3          0.600              1.962              3.850
 Vibration     4          0.641              1.828              2.060
 Vibration     5          0.658              1.778              1.795
 Vibration     6          0.673              1.732              1.611
 Vibration     7          0.731              1.564              1.142
 Vibration     8          0.774              1.448              0.926
 Vibration     9          0.778              1.439              0.911
 Vibration    10          0.801              1.381              0.824
 Vibration    11          0.821              1.331              0.756
 Vibration    12          0.888              1.177              0.581
 Vibration    13          0.968              1.013              0.434

 Optimization completed.
    -- Stationary point found.
 Normal termination of Gaussian 16 at Mon Aug 24 18:07:37 2020.
 Gaussian 16:  ES64L-G16RevA.03 25-Dec-2016

 ----------------------------------------------------------------------
 # TD(NStates=10, Root=1) B3LYP/6-31G* scf=qc volume pop=NPA density=cu
 rrent Geom=AllCheck Guess=Read
 ----------------------------------------------------------------------

 Structure from the checkpoint file:  "sulfonylfluoride_6_conf103.chk"
 -------------------
 Title Card Required
 -------------------
 Charge =  0 Multiplicity = 1

                         Standard orientation:
 ---------------------------------------------------------------------
 Center     Atomic      Atomic             Coordinates (Angstroms)
 Number     Number       Type             X           Y           Z
 ---------------------------------------------------------------------
      1          6           0        0.601786    0.000133   -1.168830
      2          1           0        0.844230    0.911362   -1.721730
      3          1           0        0.804350   -0.859126   -1.816165
      4          6           0       -0.798047   -0.002739   -0.622264
      5          6           0       -1.451405    1.205949   -0.350633
      6          6           0       -2.749052    1.206155    0.159009
      7          6           0       -3.402233   -0.002312    0.408311
      8          6           0       -2.753354   -1.210800    0.147640
      9          6           0       -1.456335   -1.211488   -0.363323
     10         16           0        1.901287   -0.124697    0.103639
     11          8           0        1.636399   -1.216428    1.021533
     12          8           0        3.201769    0.067646   -0.513247
     13          9           0        1.565453    1.248472    0.904703
     14          1           0       -0.942199    2.147768   -0.538469
     15          1           0       -3.248821    2.149184    0.361476
     16          1           0       -4.413914   -0.002332    0.804429
     17          1           0       -3.256284   -2.153702    0.342456
     18          1           0       -0.950531   -2.153359   -0.558293
 ---------------------------------------------------------------------

 SCF Done:  E(RB3LYP) =  -919.380989882     a.u. after    1 cycles

 Excitation energies and oscillator strengths:

 Excited State   1:      Singlet-A      5.3283 eV  232.69 nm  f=0.0032  <S**2>=0.000
      44 -> 46         0.54257
      45 -> 47        -0.44966
 This state for optimization and/or second-order correction.
 Total Energy, E(TD-HF/TD-DFT) =  -919.185177490
 Copying the excited state density for this state as the 1-particle RhoCI density.

 Excited State   2:      Singlet-A      5.9305 eV  209.06 nm  f=0.1280  <S**2>=0.000
      44 -> 47         0.32327
      45 -> 46         0.62374

 Excited State   3:      Singlet-A      6.7079 eV  184.83 nm  f=0.0811  <S**2>=0.000
      44 -> 46        -0.25141
      44 -> 47         0.12989
      44 -> 48         0.11334
      45 -> 47        -0.33176
      45 -> 48         0.53240

 Excited State   4:      Singlet-A      6.8025 eV  182.26 nm  f=0.2694  <S**2>=0.000
      43 -> 46        -0.10975
      44 -> 46         0.20138
      44 -> 47         0.39278
      44 -> 48        -0.38778
      45 -> 46        -0.19477
      45 -> 47         0.21273
      45 -> 48         0.20945

 Excited State   5:      Singlet-A      6.9993 eV  177.14 nm  f=0.4554  <S**2>=0.000
      41 -> 46         0.13614
      44 -> 46        -0.21730
      44 -> 47         0.39237
      45 -> 46        -0.21157
      45 -> 47        -0.24014
      45 -> 48        -0.38459

 Excited State   6:      Singlet-A      7.0407 eV  176.10 nm  f=0.0154  <S**2>=0.000
      43 -> 46         0.59141
      44 -> 48        -0.34735

 Excited State   7:      Singlet-A      7.1021 eV  174.57 nm  f=0.1743  <S**2>=0.000
      43 -> 46         0.33926
      44 -> 46         0.19548
      44 -> 47         0.18098
      44 -> 48         0.45307
      45 -> 47         0.24299
      45 -> 48         0.10315

 Excited State   8:      Singlet-A      7.4415 eV  166.61 nm  f=0.0035  <S**2>=0.000
      40 -> 46        -0.19019
      41 -> 46        -0.18793
      42 -> 46         0.62140

 Excited State   9:      Singlet-A      7.5358 eV  164.53 nm  f=0.0106  <S**2>=0.000
      39 -> 46         0.14835
      40 -> 46         0.50138
      41 -> 46         0.35919
      42 -> 46         0.23823

 Excited State  10:      Singlet-A      7.5518 eV  164.18 nm  f=0.0048  <S**2>=0.000
      41 -> 46         0.10648
      42 -> 48         0.12289
      43 -> 47         0.53013
      43 -> 48        -0.39572

 The electronic state is 1-A.
 Alpha  occ. eigenvalues --  -89.15015 -24.73461 -19.17472 -19.17408 -10.25784
 Alpha  occ. eigenvalues --  -10.22474 -10.21079 -10.20997 -10.20798 -10.20719
 Alpha  occ. eigenvalues --  -10.20677  -8.17415  -6.14101  -6.13749  -6.13610
 Alpha  occ. eigenvalues --   -1.24625  -1.11393  -1.03329  -0.87932  -0.81850
 Alpha  occ. eigenvalues --   -0.76282  -0.74208  -0.65644  -0.62549  -0.60950
 Alpha  occ. eigenvalues --   -0.55396  -0.53035  -0.52238  -0.50208  -0.48757
 Alpha  occ. eigenvalues --   -0.47718  -0.44360  -0.44133  -0.43562  -0.43273
 Alpha  occ. eigenvalues --   -0.42712  -0.38477  -0.37945  -0.36985  -0.36020
 Alpha  occ. eigenvalues --   -0.34128  -0.33955  -0.32360  -0.26733  -0.26482
 Alpha virt. eigenvalues --   -0.03340  -0.01861   0.01490   0.05226   0.07061
 Alpha virt. eigenvalues --    0.09562   0.09899   0.10428   0.12275   0.14490
 Alpha virt. eigenvalues --    0.14791   0.16387   0.17276   0.18167   0.22856

 Mulliken charges:
               1
     1  C   -0.598254
     2  H    0.218914
     3  H    0.216901
     4  C    0.161638
     5  C   -0.158817
     6  C   -0.127638
     7  C   -0.131868
     8  C   -0.128245
     9  C   -0.151912
    10  S    1.214107
    11  O   -0.473970
    12  O   -0.477260
    13  F   -0.313505
    14  H    0.150244
    15  H    0.150245
    16  H    0.143699
    17  H    0.151165
    18  H    0.154555
 Sum of Mulliken charges =  -0.00000

 Dipole moment (field-independent basis, Debye):
    X=             -4.5552    Y=              0.5971    Z=             -2.0748  Tot=              5.0410
 Quadrupole moment (field-independent basis, Debye-Ang):
   XX=            -74.5059   YY=            -65.2577   ZZ=            -70.3742
   XY=              0.9688   XZ=             -3.4015   YZ=              1.6832

 Summary of Natural Population Analysis:

                                       Natural Population
                Natural  -----------------------------------------------
    Atom  No    Charge         Core      Valence    Rydberg      Total
 -----------------------------------------------------------------------
      C    1   -0.71811      1.99916     4.69907    0.01989     6.71811
      H    2    0.27918      0.00000     0.71872    0.00210     0.72082
      H    3    0.27778      0.00000     0.72015    0.00206     0.72222
      C    4   -0.07837      1.99905     4.05941    0.01991     6.07837
      C    5   -0.19180      1.99907     4.17494    0.01780     6.19180
      C    6   -0.19763      1.99914     4.18073    0.01776     6.19763
      C    7   -0.24666      1.99915     4.23008    0.01743     6.24666
      C    8   -0.19682      1.99915     4.17994    0.01774     6.19682
      C    9   -0.18776      1.99907     4.17100    0.01770     6.18776
      S   10    2.37792      9.99891     3.42031    0.20287    13.62208
      O   11   -0.89757      1.99988     6.87390    0.02379     8.89757
      O   12   -0.89902      1.99989     6.87575    0.02339     8.89902
      F   13   -0.51015      1.99997     7.50104    0.00914     9.51015
      H   14    0.23656      0.00000     0.76223    0.00121     0.76344
      H   15    0.23782      0.00000     0.76133    0.00084     0.76218
      H   16    0.23702      0.00000     0.76218    0.00080     0.76298
      H   17    0.23827      0.00000     0.76089    0.00084     0.76173
      H   18    0.23936      0.00000     0.75946    0.00118     0.76064
 =======================================================================
   * Total *    0.00000     29.99243    59.61112    0.39645    90.00000

 Normal termination of Gaussian 16 at Mon Aug 24 18:12:25 2020.
