 Gaussian 16, Revision A.03,

 ---------------------------------
 # opt=CalcAll B3LYP/6-31G* scf=qc
 ---------------------------------

 -------------------
 Title Card Required
 -------------------
 Symbolic Z-matrix:
 Charge =  0 Multiplicity = 1

 SCF Done:  E(RB3LYP) =  -919.358558553     a.u. after    8 cycles
 SCF Done:  E(RB3LYP) =  -919.374241988     a.u. after   13 cycles
 SCF Done:  E(RB3LYP) =  -919.377672826     a.u. after   15 cycles
 SCF Done:  E(RB3LYP) =  -919.379919012     a.u. after   15 cycles
 SCF Done:  E(RB3LYP) =  -919.380847162     a.u. after   15 cycles
 SCF Done:  E(RB3LYP) =  -919.380982871     a.u. after   13 cycles
 SCF Done:  E(RB3LYP) =  -919.380987979     a.u. after    7 cycles
 SCF Done:  E(RB3LYP) =  -919.380989675     a.u. after    2 cycles
 SCF Done:  E(RB3LYP) =  -919.380989880     a.u. after    2 cycles
 Optimization completed.
    -- Stationary point found.
 Normal termination of Gaussian 16 at Mon Aug 24 18:24:44 2020.

 ----------------------------------------------------------------------
 # freq B3LYP/6-31G* scf=qc volume NMR pop=NPA density=current Geom=All
 Check Guess=Read
 ----------------------------------------------------------------------

 Structure from the checkpoint file:  "sulfonylfluoride_6_conf92.chk"
 -------------------
 Title Card Required
 -------------------
 Charge =  0 Multiplicity = 1

 SCF Done:  E(RB3LYP) =  -919.380989880     a.u. after    1 cycles

      1  C    Isotropic =   126.7476   Anisotropy =    45.1969

      2  H    Isotropic =    28.1443   Anisotropy =     3.4905

      3  H    Isotropic =    28.2989   Anisotropy =     3.8306

      4  C    Isotropic =    69.8214   Anisotropy =   159.3584

      5  C    Isotropic =    65.0576   Anisotropy =   157.3741

      6  C    Isotropic =    67.7503   Anisotropy =   166.8102

      7  C    Isotropic =    66.5455   Anisotropy =   172.3577

      8  C    Isotropic =    67.4583   Anisotropy =   167.5276

      9  C    Isotropic =    64.4007   Anisotropy =   160.8313

     10  S    Isotropic =   199.7745   Anisotropy =   298.3363

     11  O    Isotropic =    91.3420   Anisotropy =    76.0613

     12  O    Isotropic =    87.8929   Anisotropy =    70.6227

     13  F    Isotropic =   122.4497   Anisotropy =   350.2904

     14  H    Isotropic =    24.9574   Anisotropy =     7.2713

     15  H    Isotropic =    24.9029   Anisotropy =     4.7485

     16  H    Isotropic =    24.8645   Anisotropy =     4.2723

     17  H    Isotropic =    24.8601   Anisotropy =     4.7393

     18  H    Isotropic =    24.8777   Anisotropy =     7.3728

  Exact polarizability: 119.451  -0.018  93.573  17.023   1.498  56.475
 Approx polarizability: 175.275   2.220 167.034  35.938   4.966  92.317

                      1                      2                      3
                      A                      A                      A
 Frequencies --     24.3518                61.2383                81.6759
 Red. masses --      5.4919                 5.9451                 7.0030
 Frc consts  --      0.0019                 0.0131                 0.0275
 IR Inten    --      0.1791                 1.2071                 1.7798

                      4                      5                      6
                      A                      A                      A
 Frequencies --    208.1826               241.0394               267.7465
 Red. masses --      6.4221                 8.3091                 8.9247
 Frc consts  --      0.1640                 0.2844                 0.3770
 IR Inten    --      1.7449                 0.1054                 1.0808

                      7                      8                      9
                      A                      A                      A
 Frequencies --    355.4719               410.0342               414.4215
 Red. masses --      1.9860                10.5768                 3.0773
 Frc consts  --      0.1479                 1.0477                 0.3114
 IR Inten    --      1.0472                 9.8489                 0.6917

                     10                     11                     12
                      A                      A                      A
 Frequencies --    440.7529               463.5853               532.8509
 Red. masses --      7.7562                 5.6466                 6.0097
 Frc consts  --      0.8878                 0.7150                 1.0053
 IR Inten    --     10.4271                 9.5266                76.5211

                     13                     14                     15
                      A                      A                      A
 Frequencies --    609.0691               634.8662               685.8943
 Red. masses --      5.5292                 6.2698                 6.9486
 Frc consts  --      1.2085                 1.4889                 1.9260
 IR Inten    --     20.6359                 0.0287                23.7747

                     16                     17                     18
                      A                      A                      A
 Frequencies --    709.7073               766.8488               810.6623
 Red. masses --      1.7165                 2.7456                 4.0896
 Frc consts  --      0.5094                 0.9513                 1.5835
 IR Inten    --     31.4161                27.2595               115.7194

                     19                     20                     21
                      A                      A                      A
 Frequencies --    835.9864               854.7995               917.5462
 Red. masses --      4.2074                 1.2555                 1.8012
 Frc consts  --      1.7325                 0.5405                 0.8935
 IR Inten    --      0.1147                 0.1125                10.3535

                     22                     23                     24
                      A                      A                      A
 Frequencies --    930.8918               967.7084              1001.8594
 Red. masses --      1.4453                 1.3570                 1.2745
 Frc consts  --      0.7379                 0.7487                 0.7537
 IR Inten    --      5.8902                 0.0413                 0.0340

                     25                     26                     27
                      A                      A                      A
 Frequencies --   1019.2500              1058.8917              1113.9340
 Red. masses --      6.1137                 2.2447                 1.5817
 Frc consts  --      3.7421                 1.4829                 1.1564
 IR Inten    --      1.0731                 1.6596                 4.2753

                     28                     29                     30
                      A                      A                      A
 Frequencies --   1162.5598              1195.6306              1197.6442
 Red. masses --      2.5845                 1.2578                 1.3739
 Frc consts  --      2.0581                 1.0594                 1.1611
 IR Inten    --    105.5858                25.4894                48.5272

                     31                     32                     33
                      A                      A                      A
 Frequencies --   1218.0370              1232.3386              1310.3436
 Red. masses --      1.1405                 2.6958                 1.5428
 Frc consts  --      0.9969                 2.4121                 1.5608
 IR Inten    --      0.1193                 7.0109                23.1247

                     34                     35                     36
                      A                      A                      A
 Frequencies --   1361.9041              1372.3018              1394.3671
 Red. masses --      5.1072                 1.3315                 9.3793
 Frc consts  --      5.5812                 1.4773                10.7442
 IR Inten    --      3.4450                 0.9655               180.7925

                     37                     38                     39
                      A                      A                      A
 Frequencies --   1485.0971              1504.5283              1547.7440
 Red. masses --      1.1093                 2.2135                 2.2168
 Frc consts  --      1.4414                 2.9521                 3.1287
 IR Inten    --      7.9195                 8.4259                 6.6735

                     40                     41                     42
                      A                      A                      A
 Frequencies --   1647.0353              1665.2720              3091.9316
 Red. masses --      5.5107                 5.5072                 1.0601
 Frc consts  --      8.8076                 8.9981                 5.9714
 IR Inten    --      0.5991                 0.0428                 3.6943

                     43                     44                     45
                      A                      A                      A
 Frequencies --   3151.4652              3186.1499              3190.6149
 Red. masses --      1.1063                 1.0858                 1.0878
 Frc consts  --      6.4736                 6.4945                 6.5247
 IR Inten    --      0.0967                 2.4057                 0.4836

                     46                     47                     48
                      A                      A                      A
 Frequencies --   3198.0882              3207.2200              3215.9437
 Red. masses --      1.0911                 1.0945                 1.0981
 Frc consts  --      6.5751                 6.6334                 6.6916
 IR Inten    --     11.4527                26.4310                12.7373

 - Thermochemistry -
 -------------------
 Temperature   298.150 Kelvin.  Pressure   1.00000 Atm.
 Atom     1 has atomic number  6 and mass  12.00000

 Molecular mass:   174.01508 amu.
 Principal axes and moments of inertia in atomic units:
                           1         2         3
     Eigenvalues --   768.756833094.609303355.74273
           X            0.99992  -0.00285   0.01208
           Y            0.00269   0.99990   0.01383
           Z           -0.01212  -0.01380   0.99983
 This molecule is an asymmetric top.
 Rotational symmetry number  1.
 Warning -- assumption of classical behavior for rotation
           may cause significant error
 Rotational temperatures (Kelvin)      0.11267     0.02799     0.02581
 Rotational constants (GHZ):           2.34761     0.58319     0.53781
 Zero-point vibrational energy     346650.8 (Joules/Mol)
                                   82.85152 (Kcal/Mol)
 Warning -- explicit consideration of  13 degrees of freedom as
           vibrations may cause significant error
 Vibrational temperatures:     35.04    88.11   117.51   299.53   346.80
          (Kelvin)            385.23   511.44   589.95   596.26   634.15
                              667.00   766.65   876.31   913.43   986.85
                             1021.11  1103.32  1166.36  1202.80  1229.87
                             1320.14  1339.35  1392.32  1441.45  1466.47
                             1523.51  1602.70  1672.66  1720.25  1723.14
                             1752.48  1773.06  1885.29  1959.48  1974.44
                             2006.18  2136.72  2164.68  2226.86  2369.72
                             2395.95  4448.60  4534.26  4584.16  4590.58
                             4601.34  4614.47  4627.03

 Zero-point correction=                           0.132032 (Hartree/Particle)
 Thermal correction to Energy=                    0.141744
 Thermal correction to Enthalpy=                  0.142689
 Thermal correction to Gibbs Free Energy=         0.095089
 Sum of electronic and zero-point Energies=           -919.248958
 Sum of electronic and thermal Energies=              -919.239246
 Sum of electronic and thermal Enthalpies=            -919.238301
 Sum of electronic and thermal Free Energies=         -919.285901

                     E (Thermal)             CV                S
                      KCal/Mol        Cal/Mol-Kelvin    Cal/Mol-Kelvin
 Total                   88.946             36.177            100.181
 Electronic               0.000              0.000              0.000
 Translational            0.889              2.981             41.369
 Rotational               0.889              2.981             30.458
 Vibrational             87.168             30.215             28.354
 Vibration     1          0.593              1.985              6.243
 Vibration     2          0.597              1.973              4.417
 Vibration     3          0.600              1.962              3.850
 Vibration     4          0.641              1.828              2.060
 Vibration     5          0.658              1.778              1.795
 Vibration     6          0.673              1.732              1.611
 Vibration     7          0.731              1.564              1.142
 Vibration     8          0.774              1.448              0.926
 Vibration     9          0.778              1.439              0.911
 Vibration    10          0.801              1.381              0.824
 Vibration    11          0.821              1.331              0.756
 Vibration    12          0.888              1.177              0.581
 Vibration    13          0.968              1.013              0.434

 Optimization completed.
    -- Stationary point found.
 Normal termination of Gaussian 16 at Mon Aug 24 18:28:15 2020.
 Gaussian 16:  ES64L-G16RevA.03 25-Dec-2016

 ----------------------------------------------------------------------
 # TD(NStates=10, Root=1) B3LYP/6-31G* scf=qc volume pop=NPA density=cu
 rrent Geom=AllCheck Guess=Read
 ----------------------------------------------------------------------

 Structure from the checkpoint file:  "sulfonylfluoride_6_conf93.chk"
 -------------------
 Title Card Required
 -------------------
 Charge =  0 Multiplicity = 1

                         Standard orientation:
 ---------------------------------------------------------------------
 Center     Atomic      Atomic             Coordinates (Angstroms)
 Number     Number       Type             X           Y           Z
 ---------------------------------------------------------------------
      1          6           0       -0.601810   -0.000093   -1.168919
      2          1           0       -0.844272   -0.911331   -1.721794
      3          1           0       -0.804405    0.859172   -1.816232
      4          6           0        0.798007    0.002791   -0.622350
      5          6           0        1.451311   -1.205927   -0.350697
      6          6           0        2.748927   -1.206183    0.159008
      7          6           0        3.402132    0.002266    0.408360
      8          6           0        2.753308    1.210777    0.147676
      9          6           0        1.456313    1.211513   -0.363357
     10         16           0       -1.901230    0.124703    0.103662
     11          8           0       -1.636237    1.216388    1.021580
     12          8           0       -3.201774   -0.067603   -0.513109
     13          9           0       -1.565337   -1.248511    0.904635
     14          1           0        0.942058   -2.147720   -0.538551
     15          1           0        3.248662   -2.149229    0.361486
     16          1           0        4.413795    0.002247    0.804524
     17          1           0        3.256263    2.153660    0.342525
     18          1           0        0.950553    2.153401   -0.558359
 ---------------------------------------------------------------------

 SCF Done:  E(RB3LYP) =  -919.380989880     a.u. after    1 cycles

 Excitation energies and oscillator strengths:

 Excited State   1:      Singlet-A      5.3283 eV  232.69 nm  f=0.0032  <S**2>=0.000
      44 -> 46         0.54258
      45 -> 47        -0.44966
 This state for optimization and/or second-order correction.
 Total Energy, E(TD-HF/TD-DFT) =  -919.185178393
 Copying the excited state density for this state as the 1-particle RhoCI density.

 Excited State   2:      Singlet-A      5.9304 eV  209.07 nm  f=0.1280  <S**2>=0.000
      44 -> 47         0.32325
      45 -> 46         0.62375

 Excited State   3:      Singlet-A      6.7078 eV  184.84 nm  f=0.0810  <S**2>=0.000
      44 -> 46         0.25138
      44 -> 47        -0.12993
      44 -> 48         0.11331
      45 -> 47         0.33172
      45 -> 48         0.53243

 Excited State   4:      Singlet-A      6.8024 eV  182.26 nm  f=0.2692  <S**2>=0.000
      43 -> 46         0.10975
      44 -> 46         0.20141
      44 -> 47         0.39269
      44 -> 48         0.38786
      45 -> 46        -0.19469
      45 -> 47         0.21279
      45 -> 48        -0.20945

 Excited State   5:      Singlet-A      6.9993 eV  177.14 nm  f=0.4555  <S**2>=0.000
      41 -> 46         0.13614
      44 -> 46        -0.21727
      44 -> 47         0.39246
      45 -> 46        -0.21161
      45 -> 47        -0.24008
      45 -> 48         0.38453

 Excited State   6:      Singlet-A      7.0406 eV  176.10 nm  f=0.0154  <S**2>=0.000
      43 -> 46         0.59135
      44 -> 48        -0.34742

 Excited State   7:      Singlet-A      7.1020 eV  174.58 nm  f=0.1744  <S**2>=0.000
      43 -> 46         0.33936
      44 -> 46        -0.19549
      44 -> 47        -0.18097
      44 -> 48         0.45296
      45 -> 47        -0.24301
      45 -> 48         0.10317

 Excited State   8:      Singlet-A      7.4415 eV  166.61 nm  f=0.0035  <S**2>=0.000
      40 -> 46         0.19011
      41 -> 46        -0.18818
      42 -> 46         0.62135

 Excited State   9:      Singlet-A      7.5357 eV  164.53 nm  f=0.0106  <S**2>=0.000
      39 -> 46         0.14832
      40 -> 46         0.50138
      41 -> 46        -0.35922
      42 -> 46        -0.23828

 Excited State  10:      Singlet-A      7.5518 eV  164.18 nm  f=0.0048  <S**2>=0.000
      41 -> 46        -0.10637
      42 -> 48         0.12291
      43 -> 47         0.53011
      43 -> 48         0.39579

 The electronic state is 1-A.
 Alpha  occ. eigenvalues --  -89.15015 -24.73460 -19.17472 -19.17408 -10.25784
 Alpha  occ. eigenvalues --  -10.22474 -10.21079 -10.20997 -10.20798 -10.20719
 Alpha  occ. eigenvalues --  -10.20677  -8.17415  -6.14101  -6.13749  -6.13610
 Alpha  occ. eigenvalues --   -1.24625  -1.11393  -1.03329  -0.87932  -0.81850
 Alpha  occ. eigenvalues --   -0.76282  -0.74207  -0.65644  -0.62549  -0.60950
 Alpha  occ. eigenvalues --   -0.55396  -0.53035  -0.52238  -0.50208  -0.48757
 Alpha  occ. eigenvalues --   -0.47718  -0.44360  -0.44133  -0.43562  -0.43273
 Alpha  occ. eigenvalues --   -0.42712  -0.38477  -0.37945  -0.36985  -0.36019
 Alpha  occ. eigenvalues --   -0.34128  -0.33955  -0.32360  -0.26733  -0.26482
 Alpha virt. eigenvalues --   -0.03340  -0.01860   0.01490   0.05226   0.07061
 Alpha virt. eigenvalues --    0.09562   0.09899   0.10428   0.12275   0.14490
 Alpha virt. eigenvalues --    0.14791   0.16387   0.17276   0.18167   0.22856

 Mulliken charges:
               1
     1  C   -0.598250
     2  H    0.218913
     3  H    0.216900
     4  C    0.161631
     5  C   -0.158810
     6  C   -0.127638
     7  C   -0.131869
     8  C   -0.128244
     9  C   -0.151906
    10  S    1.214106
    11  O   -0.473972
    12  O   -0.477258
    13  F   -0.313510
    14  H    0.150245
    15  H    0.150245
    16  H    0.143699
    17  H    0.151166
    18  H    0.154553
 Sum of Mulliken charges =  -0.00000

 Dipole moment (field-independent basis, Debye):
    X=              4.5550    Y=             -0.5970    Z=             -2.0751  Tot=              5.0409
 Quadrupole moment (field-independent basis, Debye-Ang):
   XX=            -74.5058   YY=            -65.2575   ZZ=            -70.3737
   XY=              0.9687   XZ=              3.4022   YZ=             -1.6832

 Summary of Natural Population Analysis:

                                       Natural Population
                Natural  -----------------------------------------------
    Atom  No    Charge         Core      Valence    Rydberg      Total
 -----------------------------------------------------------------------
      C    1   -0.71810      1.99916     4.69905    0.01989     6.71810
      H    2    0.27918      0.00000     0.71872    0.00210     0.72082
      H    3    0.27778      0.00000     0.72015    0.00206     0.72222
      C    4   -0.07838      1.99905     4.05942    0.01991     6.07838
      C    5   -0.19179      1.99907     4.17493    0.01780     6.19179
      C    6   -0.19763      1.99914     4.18073    0.01776     6.19763
      C    7   -0.24667      1.99915     4.23008    0.01743     6.24667
      C    8   -0.19682      1.99915     4.17993    0.01774     6.19682
      C    9   -0.18776      1.99907     4.17100    0.01770     6.18776
      S   10    2.37790      9.99891     3.42032    0.20287    13.62210
      O   11   -0.89757      1.99988     6.87390    0.02379     8.89757
      O   12   -0.89902      1.99989     6.87575    0.02339     8.89902
      F   13   -0.51015      1.99997     7.50105    0.00914     9.51015
      H   14    0.23656      0.00000     0.76223    0.00121     0.76344
      H   15    0.23782      0.00000     0.76133    0.00084     0.76218
      H   16    0.23702      0.00000     0.76218    0.00080     0.76298
      H   17    0.23827      0.00000     0.76089    0.00084     0.76173
      H   18    0.23936      0.00000     0.75946    0.00118     0.76064
 =======================================================================
   * Total *   -0.00000     29.99243    59.61112    0.39645    90.00000

 Normal termination of Gaussian 16 at Mon Aug 24 18:32:46 2020.
