 Gaussian 16, Revision A.03,

 ---------------------------------
 # opt=CalcAll B3LYP/6-31G* scf=qc
 ---------------------------------

 -------------------
 Title Card Required
 -------------------
 Symbolic Z-matrix:
 Charge =  0 Multiplicity = 1

 SCF Done:  E(RB3LYP) =  -1376.16634022     a.u. after    8 cycles
 SCF Done:  E(RB3LYP) =  -1376.17546804     a.u. after   15 cycles
 SCF Done:  E(RB3LYP) =  -1376.17590058     a.u. after   13 cycles
 SCF Done:  E(RB3LYP) =  -1376.17596713     a.u. after    5 cycles
 SCF Done:  E(RB3LYP) =  -1376.17596734     a.u. after    2 cycles
 Optimization completed.
    -- Stationary point found.
 Normal termination of Gaussian 16 at Mon Aug 24 18:01:18 2020.

 ----------------------------------------------------------------------
 # freq B3LYP/6-31G* scf=qc volume NMR pop=NPA density=current Geom=All
 Check Guess=Read
 ----------------------------------------------------------------------

 Structure from the checkpoint file:  "sulfonylfluoride_5_conf22.chk"
 -------------------
 Title Card Required
 -------------------
 Charge =  0 Multiplicity = 1

 SCF Done:  E(RB3LYP) =  -1376.17596734     a.u. after    1 cycles

      1  C    Isotropic =    46.0416   Anisotropy =    94.2283

      2  C    Isotropic =    54.6008   Anisotropy =    82.4686

      3  C    Isotropic =    48.0749   Anisotropy =    91.7858

      4  C    Isotropic =    76.5153   Anisotropy =    90.2700

      5  C    Isotropic =    48.1413   Anisotropy =    91.3320

      6  F    Isotropic =   321.6239   Anisotropy =   213.9502

      7  C    Isotropic =    54.3221   Anisotropy =    82.7751

      8  F    Isotropic =   347.6713   Anisotropy =   166.3618

      9  S    Isotropic =   240.7097   Anisotropy =   377.0714

     10  O    Isotropic =    63.9335   Anisotropy =    82.9441

     11  O    Isotropic =    77.9979   Anisotropy =    70.4298

     12  F    Isotropic =    90.3485   Anisotropy =   389.0199

     13  F    Isotropic =   315.5341   Anisotropy =   188.5267

     14  F    Isotropic =   347.7789   Anisotropy =   167.4012

     15  F    Isotropic =   329.7649   Anisotropy =   203.9861

  Exact polarizability: 112.663   0.990  93.424  -1.979   1.865  45.689
 Approx polarizability: 174.355   1.451 180.071  -3.810   6.796  77.613

                      1                      2                      3
                      A                      A                      A
 Frequencies --     31.8597                69.5874               130.1123
 Red. masses --     17.1017                16.9765                18.4129
 Frc consts  --      0.0102                 0.0484                 0.1837
 IR Inten    --      0.2016                 0.9762                 0.0560

                      4                      5                      6
                      A                      A                      A
 Frequencies --    149.0107               156.2126               192.2015
 Red. masses --     17.1002                18.0019                17.2449
 Frc consts  --      0.2237                 0.2588                 0.3753
 IR Inten    --      0.7953                 0.7307                 1.9327

                      7                      8                      9
                      A                      A                      A
 Frequencies --    236.1270               259.0841               262.7783
 Red. masses --     18.2748                14.9347                17.8045
 Frc consts  --      0.6003                 0.5906                 0.7244
 IR Inten    --      0.1588                 1.5851                 0.9985

                     10                     11                     12
                      A                      A                      A
 Frequencies --    268.3795               274.8764               316.4069
 Red. masses --     18.4797                18.5482                17.7520
 Frc consts  --      0.7842                 0.8257                 1.0471
 IR Inten    --      0.1137                 0.0956                 1.3557

                     13                     14                     15
                      A                      A                      A
 Frequencies --    350.1965               378.0629               390.0121
 Red. masses --     17.2041                13.1274                13.7328
 Frc consts  --      1.2431                 1.1055                 1.2307
 IR Inten    --      1.6711                 0.2230                 0.7295

                     16                     17                     18
                      A                      A                      A
 Frequencies --    438.1141               447.4553               476.3364
 Red. masses --     16.6955                16.8247                16.5191
 Frc consts  --      1.8881                 1.9847                 2.2083
 IR Inten    --      5.6703                 3.8762                10.7639

                     19                     20                     21
                      A                      A                      A
 Frequencies --    490.0165               579.1853               582.1123
 Red. masses --     16.1387                18.0709                12.2694
 Frc consts  --      2.2832                 3.5716                 2.4495
 IR Inten    --     14.1333                53.3465                 3.8926

                     22                     23                     24
                      A                      A                      A
 Frequencies --    595.5284               628.1767               646.0745
 Red. masses --     19.1407                12.2172                12.3914
 Frc consts  --      3.9996                 2.8404                 3.0474
 IR Inten    --    102.6551                 0.7103                 7.4941

                     25                     26                     27
                      A                      A                      A
 Frequencies --    767.8806               794.5724               865.3375
 Red. masses --     14.1001                17.8932                14.6544
 Frc consts  --      4.8985                 6.6559                 6.4653
 IR Inten    --     46.4709               128.7429                16.3459

                     28                     29                     30
                      A                      A                      A
 Frequencies --   1022.7519              1135.0905              1187.1922
 Red. masses --     14.1955                13.8311                16.9179
 Frc consts  --      8.7486                10.4995                14.0488
 IR Inten    --    154.8583               110.0792               205.6241

                     31                     32                     33
                      A                      A                      A
 Frequencies --   1198.2624              1334.0470              1338.7676
 Red. masses --     14.3583                12.0779                12.7513
 Frc consts  --     12.1466                12.6644                13.4653
 IR Inten    --     45.9601                15.1923                45.8759

                     34                     35                     36
                      A                      A                      A
 Frequencies --   1407.7476              1444.2413              1548.3174
 Red. masses --     20.4723                12.6311                12.5031
 Frc consts  --     23.9037                15.5228                17.6600
 IR Inten    --    126.2107                 6.7073               461.9718

                     37                     38                     39
                      A                      A                      A
 Frequencies --   1558.0840              1665.6820              1673.6868
 Red. masses --     12.5269                12.0684                12.0621
 Frc consts  --     17.9174                19.7280                19.9077
 IR Inten    --    185.6375                11.2684                57.0122

 - Thermochemistry -
 -------------------
 Temperature   298.150 Kelvin.  Pressure   1.00000 Atm.
 Atom     1 has atomic number  6 and mass  12.00000

 Molecular mass:   249.95232 amu.
 Principal axes and moments of inertia in atomic units:
                           1         2         3
     Eigenvalues --  2149.769404179.445595949.41251
           X            0.99999   0.00440  -0.00268
           Y           -0.00439   0.99999   0.00200
           Z            0.00269  -0.00199   0.99999
 This molecule is an asymmetric top.
 Rotational symmetry number  1.
 Warning -- assumption of classical behavior for rotation
           may cause significant error
 Rotational temperatures (Kelvin)      0.04029     0.02072     0.01456
 Rotational constants (GHZ):           0.83950     0.43181     0.30335
 Zero-point vibrational energy     163227.9 (Joules/Mol)
                                   39.01240 (Kcal/Mol)
 Warning -- explicit consideration of  22 degrees of freedom as
           vibrations may cause significant error
 Vibrational temperatures:     45.84   100.12   187.20   214.39   224.76
          (Kelvin)            276.54   339.73   372.76   378.08   386.14
                              395.49   455.24   503.85   543.95   561.14
                              630.35   643.79   685.34   705.02   833.32
                              837.53   856.83   903.81   929.56  1104.81
                             1143.21  1245.03  1471.51  1633.14  1708.10
                             1724.03  1919.40  1926.19  2025.43  2077.94
                             2227.68  2241.74  2396.54  2408.06

 Zero-point correction=                           0.062170 (Hartree/Particle)
 Thermal correction to Energy=                    0.075139
 Thermal correction to Enthalpy=                  0.076083
 Thermal correction to Gibbs Free Energy=         0.021849
 Sum of electronic and zero-point Energies=          -1376.113797
 Sum of electronic and thermal Energies=             -1376.100828
 Sum of electronic and thermal Enthalpies=           -1376.099884
 Sum of electronic and thermal Free Energies=        -1376.154118

                     E (Thermal)             CV                S
                      KCal/Mol        Cal/Mol-Kelvin    Cal/Mol-Kelvin
 Total                   47.150             46.462            114.144
 Electronic               0.000              0.000              0.000
 Translational            0.889              2.981             42.449
 Rotational               0.889              2.981             32.347
 Vibrational             45.373             40.500             39.349
 Vibration     1          0.594              1.983              5.710
 Vibration     2          0.598              1.969              4.165
 Vibration     3          0.612              1.923              2.944
 Vibration     4          0.618              1.904              2.685
 Vibration     5          0.620              1.896              2.595
 Vibration     6          0.634              1.851              2.206
 Vibration     7          0.655              1.785              1.832
 Vibration     8          0.668              1.747              1.668
 Vibration     9          0.670              1.741              1.643
 Vibration    10          0.673              1.731              1.607
 Vibration    11          0.677              1.720              1.565
 Vibration    12          0.703              1.642              1.329
 Vibration    13          0.727              1.575              1.165
 Vibration    14          0.748              1.517              1.047
 Vibration    15          0.758              1.492              1.000
 Vibration    16          0.798              1.387              0.833
 Vibration    17          0.807              1.367              0.804
 Vibration    18          0.833              1.303              0.720
 Vibration    19          0.846              1.272              0.684
 Vibration    20          0.936              1.076              0.487
 Vibration    21          0.939              1.070              0.481
 Vibration    22          0.953              1.041              0.457

 Optimization completed.
    -- Stationary point found.
 Normal termination of Gaussian 16 at Mon Aug 24 18:07:28 2020.
 Gaussian 16:  ES64L-G16RevA.03 25-Dec-2016

 ----------------------------------------------------------------------
 # TD(NStates=10, Root=1) B3LYP/6-31G* scf=qc volume pop=NPA density=cu
 rrent Geom=AllCheck Guess=Read
 ----------------------------------------------------------------------

 Structure from the checkpoint file:  "sulfonylfluoride_5_conf23.chk"
 -------------------
 Title Card Required
 -------------------
 Charge =  0 Multiplicity = 1

                         Standard orientation:
 ---------------------------------------------------------------------
 Center     Atomic      Atomic             Coordinates (Angstroms)
 Number     Number       Type             X           Y           Z
 ---------------------------------------------------------------------
      1          6           0       -2.337923   -0.062538    0.006502
      2          6           0       -1.588365   -1.238803   -0.004507
      3          6           0       -0.200620   -1.164928   -0.024438
      4          6           0        0.457118    0.072571   -0.021433
      5          6           0       -0.308877    1.245434   -0.016238
      6          9           0        0.246906    2.451599   -0.037759
      7          6           0       -1.701599    1.175893   -0.000513
      8          9           0       -2.425022    2.295537    0.003785
      9         16           0        2.242094    0.112588   -0.100104
     10          8           0        2.692586   -0.601495   -1.274512
     11          8           0        2.729595    1.423426    0.261415
     12          9           0        2.531599   -0.849689    1.163496
     13          9           0        0.495190   -2.299843   -0.036206
     14          9           0       -2.202261   -2.421658    0.003152
     15          9           0       -3.665229   -0.125128    0.022445
 ---------------------------------------------------------------------

 SCF Done:  E(RB3LYP) =  -1376.17596734     a.u. after    1 cycles

 Excitation energies and oscillator strengths:

 Excited State   1:      Singlet-A      4.9572 eV  250.11 nm  f=0.0378  <S**2>=0.000
      60 -> 63        -0.30620
      61 -> 62         0.63494
 This state for optimization and/or second-order correction.
 Total Energy, E(TD-HF/TD-DFT) =  -1375.99379483
 Copying the excited state density for this state as the 1-particle RhoCI density.

 Excited State   2:      Singlet-A      5.7435 eV  215.87 nm  f=0.0076  <S**2>=0.000
      60 -> 62        -0.19282
      61 -> 63        -0.12787
      61 -> 64         0.66389

 Excited State   3:      Singlet-A      5.7604 eV  215.24 nm  f=0.0843  <S**2>=0.000
      60 -> 62         0.59410
      61 -> 63         0.28352
      61 -> 64         0.23147

 Excited State   4:      Singlet-A      6.1988 eV  200.01 nm  f=0.0014  <S**2>=0.000
      60 -> 64         0.69717

 Excited State   5:      Singlet-A      6.3226 eV  196.10 nm  f=0.0112  <S**2>=0.000
      58 -> 62        -0.11426
      59 -> 62         0.66873
      61 -> 63         0.16187

 Excited State   6:      Singlet-A      6.6586 eV  186.20 nm  f=0.1238  <S**2>=0.000
      57 -> 62         0.20190
      58 -> 62         0.54646
      59 -> 62         0.15454
      60 -> 62         0.12969
      60 -> 63         0.10815
      61 -> 63        -0.30266

 Excited State   7:      Singlet-A      6.6956 eV  185.17 nm  f=0.3027  <S**2>=0.000
      57 -> 62         0.38485
      59 -> 62        -0.11133
      60 -> 62        -0.19718
      60 -> 63         0.30555
      61 -> 62         0.14982
      61 -> 63         0.36574
      61 -> 65        -0.18014

 Excited State   8:      Singlet-A      6.7362 eV  184.06 nm  f=0.1804  <S**2>=0.000
      57 -> 62        -0.33717
      58 -> 62        -0.12043
      60 -> 63         0.45441
      61 -> 62         0.21454
      61 -> 63        -0.17928
      61 -> 65        -0.26225

 Excited State   9:      Singlet-A      6.9317 eV  178.86 nm  f=0.1931  <S**2>=0.000
      57 -> 62         0.41764
      58 -> 62        -0.39327
      60 -> 62         0.18473
      60 -> 65        -0.10733
      61 -> 63        -0.31677

 Excited State  10:      Singlet-A      7.2357 eV  171.35 nm  f=0.1001  <S**2>=0.000
      59 -> 63        -0.26516
      60 -> 63         0.24523
      61 -> 62         0.11326
      61 -> 65         0.57818
      61 -> 67         0.10457

 The electronic state is 1-A.
 Alpha  occ. eigenvalues --  -89.18353 -24.77053 -24.76861 -24.76626 -24.76420
 Alpha  occ. eigenvalues --  -24.76337 -24.75579 -19.19668 -19.19562 -10.35049
 Alpha  occ. eigenvalues --  -10.34880 -10.34601 -10.33744 -10.33681 -10.28999
 Alpha  occ. eigenvalues --   -8.20498  -6.17171  -6.16824  -6.16803  -1.29424
 Alpha  occ. eigenvalues --   -1.28838  -1.28488  -1.27351  -1.27099  -1.26841
 Alpha  occ. eigenvalues --   -1.13815  -1.05810  -0.94157  -0.84112  -0.81657
 Alpha  occ. eigenvalues --   -0.74030  -0.69763  -0.67855  -0.62901  -0.62596
 Alpha  occ. eigenvalues --   -0.61150  -0.58307  -0.57748  -0.56686  -0.55555
 Alpha  occ. eigenvalues --   -0.55436  -0.53941  -0.52504  -0.51688  -0.51387
 Alpha  occ. eigenvalues --   -0.49427  -0.48885  -0.46986  -0.46479  -0.46255
 Alpha  occ. eigenvalues --   -0.45771  -0.44464  -0.43945  -0.41289  -0.40495
 Alpha  occ. eigenvalues --   -0.38991  -0.36691  -0.36224  -0.34559  -0.30548
 Alpha  occ. eigenvalues --   -0.28871
 Alpha virt. eigenvalues --   -0.08172  -0.04980  -0.03372   0.00513   0.03731
 Alpha virt. eigenvalues --    0.06303   0.07491   0.10433   0.13611   0.14939
 Alpha virt. eigenvalues --    0.19247   0.21163   0.26206   0.28258   0.29489

 Mulliken charges:
               1
     1  C    0.243335
     2  C    0.277588
     3  C    0.365118
     4  C   -0.363946
     5  C    0.348321
     6  F   -0.211825
     7  C    0.276560
     8  F   -0.226570
     9  S    1.203170
    10  O   -0.456763
    11  O   -0.457543
    12  F   -0.302576
    13  F   -0.219156
    14  F   -0.225182
    15  F   -0.250531
 Sum of Mulliken charges =  -0.00000

 Dipole moment (field-independent basis, Debye):
    X=             -4.1387    Y=             -0.3872    Z=              0.5527  Tot=              4.1933
 Quadrupole moment (field-independent basis, Debye-Ang):
   XX=            -96.9572   YY=            -87.4222   ZZ=            -84.5815
   XY=             -1.4993   XZ=              2.0181   YZ=             -1.4259

 Summary of Natural Population Analysis:

                                       Natural Population
                Natural  -----------------------------------------------
    Atom  No    Charge         Core      Valence    Rydberg      Total
 -----------------------------------------------------------------------
      C    1    0.25309      1.99850     3.71875    0.02966     5.74691
      C    2    0.34209      1.99843     3.63027    0.02921     5.65791
      C    3    0.39725      1.99840     3.57177    0.03258     5.60275
      C    4   -0.51482      1.99861     4.48671    0.02950     6.51482
      C    5    0.40141      1.99840     3.56868    0.03151     5.59859
      F    6   -0.25661      1.99994     7.24944    0.00723     9.25661
      C    7    0.33701      1.99844     3.63510    0.02945     5.66299
      F    8   -0.26586      1.99994     7.25866    0.00725     9.26586
      S    9    2.39835      9.99883     3.39066    0.21215    13.60165
      O   10   -0.88222      1.99988     6.85827    0.02407     8.88222
      O   11   -0.88445      1.99988     6.86064    0.02393     8.88445
      F   12   -0.50367      1.99997     7.49382    0.00988     9.50367
      F   13   -0.26362      1.99994     7.25630    0.00739     9.26362
      F   14   -0.26465      1.99994     7.25750    0.00721     9.26465
      F   15   -0.29331      1.99994     7.28607    0.00730     9.29331
 =======================================================================
   * Total *    0.00000     37.98904    83.52262    0.48834   122.00000

 Normal termination of Gaussian 16 at Mon Aug 24 18:15:44 2020.
