 Gaussian 16, Revision A.03,

 ---------------------------------
 # opt=CalcAll B3LYP/6-31G* scf=qc
 ---------------------------------

 -------------------
 Title Card Required
 -------------------
 Symbolic Z-matrix:
 Charge =  0 Multiplicity = 1

 SCF Done:  E(RB3LYP) =  -919.363012108     a.u. after    8 cycles
 SCF Done:  E(RB3LYP) =  -919.375437824     a.u. after   15 cycles
 SCF Done:  E(RB3LYP) =  -919.378784354     a.u. after   15 cycles
 SCF Done:  E(RB3LYP) =  -919.380839147     a.u. after   15 cycles
 SCF Done:  E(RB3LYP) =  -919.381221029     a.u. after   13 cycles
 SCF Done:  E(RB3LYP) =  -919.381263478     a.u. after    9 cycles
 SCF Done:  E(RB3LYP) =  -919.381266670     a.u. after    5 cycles
 SCF Done:  E(RB3LYP) =  -919.381266994     a.u. after    4 cycles
 Optimization completed.
    -- Stationary point found.
 Normal termination of Gaussian 16 at Mon Aug 24 18:12:46 2020.

 ----------------------------------------------------------------------
 # freq B3LYP/6-31G* scf=qc volume NMR pop=NPA density=current Geom=All
 Check Guess=Read
 ----------------------------------------------------------------------

 Structure from the checkpoint file:  "sulfonylfluoride_6_conf172.chk"
 -------------------
 Title Card Required
 -------------------
 Charge =  0 Multiplicity = 1

 SCF Done:  E(RB3LYP) =  -919.381266994     a.u. after    1 cycles

      1  C    Isotropic =   126.2759   Anisotropy =    42.2782

      2  H    Isotropic =    28.1585   Anisotropy =     3.4970

      3  H    Isotropic =    28.1580   Anisotropy =     3.4975

      4  C    Isotropic =    70.9985   Anisotropy =   157.2612

      5  C    Isotropic =    64.9408   Anisotropy =   158.8899

      6  C    Isotropic =    67.4558   Anisotropy =   167.4253

      7  C    Isotropic =    66.3354   Anisotropy =   172.7838

      8  C    Isotropic =    67.4554   Anisotropy =   167.4271

      9  C    Isotropic =    64.9428   Anisotropy =   158.9052

     10  S    Isotropic =   196.6698   Anisotropy =   284.7126

     11  O    Isotropic =    90.0296   Anisotropy =    75.4045

     12  O    Isotropic =    90.0381   Anisotropy =    75.4103

     13  F    Isotropic =   115.4781   Anisotropy =   369.0157

     14  H    Isotropic =    24.8556   Anisotropy =     7.2854

     15  H    Isotropic =    24.8816   Anisotropy =     4.7828

     16  H    Isotropic =    24.8563   Anisotropy =     4.3076

     17  H    Isotropic =    24.8815   Anisotropy =     4.7831

     18  H    Isotropic =    24.8550   Anisotropy =     7.2862

  Exact polarizability: 116.255   0.001  96.185  14.141  -0.002  56.062
 Approx polarizability: 167.097   0.002 176.511  29.510  -0.006  90.345

                      1                      2                      3
                      A                      A                      A
 Frequencies --     21.3285                52.9977                78.6341
 Red. masses --      4.9953                 6.6511                 7.1096
 Frc consts  --      0.0013                 0.0110                 0.0259
 IR Inten    --      0.7206                 0.2764                 2.1980

                      4                      5                      6
                      A                      A                      A
 Frequencies --    209.5310               245.1635               248.3095
 Red. masses --      6.7291                 7.9822                 8.3884
 Frc consts  --      0.1741                 0.2827                 0.3047
 IR Inten    --      1.5024                 0.0351                 1.7741

                      7                      8                      9
                      A                      A                      A
 Frequencies --    362.2191               413.2374               419.3171
 Red. masses --      2.3377                 3.1672                 5.2658
 Frc consts  --      0.1807                 0.3187                 0.5455
 IR Inten    --      2.1689                 1.2179                 6.6211

                     10                     11                     12
                      A                      A                      A
 Frequencies --    449.9969               456.4628               533.2019
 Red. masses --      8.6926                 6.0994                 5.7790
 Frc consts  --      1.0371                 0.7488                 0.9680
 IR Inten    --      6.6139                10.2443                73.5693

                     13                     14                     15
                      A                      A                      A
 Frequencies --    594.1874               634.6989               704.2353
 Red. masses --      5.7654                 6.2732                 4.5889
 Frc consts  --      1.1993                 1.4889                 1.3409
 IR Inten    --     16.3053                 0.0050                21.5200

                     16                     17                     18
                      A                      A                      A
 Frequencies --    713.0799               781.3893               789.8173
 Red. masses --      1.7428                11.9162                 2.2953
 Frc consts  --      0.5221                 4.2867                 0.8436
 IR Inten    --      9.4685               248.6570                28.5514

                     19                     20                     21
                      A                      A                      A
 Frequencies --    832.8542               856.3649               925.2391
 Red. masses --      4.3177                 1.2526                 1.7345
 Frc consts  --      1.7646                 0.5412                 0.8748
 IR Inten    --     11.0306                 0.0417                 0.3828

                     22                     23                     24
                      A                      A                      A
 Frequencies --    931.6061               969.6457              1003.0976
 Red. masses --      1.3983                 1.3570                 1.2771
 Frc consts  --      0.7150                 0.7517                 0.7571
 IR Inten    --      0.8148                 0.0384                 0.0004

                     25                     26                     27
                      A                      A                      A
 Frequencies --   1019.1021              1058.7451              1113.4125
 Red. masses --      6.1042                 2.2514                 1.5620
 Frc consts  --      3.7352                 1.4869                 1.1409
 IR Inten    --      0.5054                 1.4485                 2.4621

                     28                     29                     30
                      A                      A                      A
 Frequencies --   1174.9381              1180.1722              1196.4456
 Red. masses --      1.1200                17.2653                 1.0992
 Frc consts  --      0.9110                14.1682                 0.9271
 IR Inten    --      4.4572               130.2776                 0.0561

                     31                     32                     33
                      A                      A                      A
 Frequencies --   1217.9253              1230.1419              1307.7932
 Red. masses --      1.1418                 2.6717                 1.3938
 Frc consts  --      0.9979                 2.3820                 1.4045
 IR Inten    --      0.0970                 1.9167                 0.7659

                     34                     35                     36
                      A                      A                      A
 Frequencies --   1360.8380              1372.6106              1396.3320
 Red. masses --      5.5035                 1.3373                10.3759
 Frc consts  --      6.0049                 1.4844                11.9194
 IR Inten    --     10.9948                 0.1154               166.7538

                     37                     38                     39
                      A                      A                      A
 Frequencies --   1487.7742              1504.6145              1547.2030
 Red. masses --      1.1084                 2.2178                 2.2064
 Frc consts  --      1.4455                 2.9582                 3.1119
 IR Inten    --      7.4625                 9.4097                 7.0380

                     40                     41                     42
                      A                      A                      A
 Frequencies --   1646.7672              1664.5468              3099.5712
 Red. masses --      5.5075                 5.4916                 1.0583
 Frc consts  --      8.7997                 8.9648                 5.9904
 IR Inten    --      0.5293                 0.0533                 3.3892

                     43                     44                     45
                      A                      A                      A
 Frequencies --   3160.7951              3187.4214              3191.9469
 Red. masses --      1.1090                 1.0855                 1.0881
 Frc consts  --      6.5277                 6.4976                 6.5315
 IR Inten    --      0.1163                 1.3363                 0.1013

                     46                     47                     48
                      A                      A                      A
 Frequencies --   3198.9713              3207.9138              3216.3098
 Red. masses --      1.0913                 1.0946                 1.0982
 Frc consts  --      6.5801                 6.6368                 6.6933
 IR Inten    --     11.8046                24.7165                12.3123

 - Thermochemistry -
 -------------------
 Temperature   298.150 Kelvin.  Pressure   1.00000 Atm.
 Atom     1 has atomic number  6 and mass  12.00000

 Molecular mass:   174.01508 amu.
 Principal axes and moments of inertia in atomic units:
                           1         2         3
     Eigenvalues --   761.522683213.912253467.51053
           X            0.99998   0.00000   0.00668
           Y           -0.00000   1.00000   0.00001
           Z           -0.00668  -0.00001   0.99998
 This molecule is an asymmetric top.
 Rotational symmetry number  1.
 Warning -- assumption of classical behavior for rotation
           may cause significant error
 Rotational temperatures (Kelvin)      0.11374     0.02695     0.02498
 Rotational constants (GHZ):           2.36991     0.56154     0.52047
 Zero-point vibrational energy     346731.1 (Joules/Mol)
                                   82.87071 (Kcal/Mol)
 Warning -- explicit consideration of  13 degrees of freedom as
           vibrations may cause significant error
 Vibrational temperatures:     30.69    76.25   113.14   301.47   352.74
          (Kelvin)            357.26   521.15   594.56   603.30   647.45
                              656.75   767.16   854.90   913.19  1013.24
                             1025.96  1124.24  1136.37  1198.29  1232.12
                             1331.21  1340.37  1395.10  1443.23  1466.26
                             1523.30  1601.95  1690.47  1698.00  1721.42
                             1752.32  1769.90  1881.62  1957.94  1974.88
                             2009.01  2140.58  2164.80  2226.08  2369.33
                             2394.91  4459.59  4547.68  4585.99  4592.50
                             4602.61  4615.47  4627.55

 Zero-point correction=                           0.132063 (Hartree/Particle)
 Thermal correction to Energy=                    0.141806
 Thermal correction to Enthalpy=                  0.142750
 Thermal correction to Gibbs Free Energy=         0.094814
 Sum of electronic and zero-point Energies=           -919.249204
 Sum of electronic and thermal Energies=              -919.239461
 Sum of electronic and thermal Enthalpies=            -919.238517
 Sum of electronic and thermal Free Energies=         -919.286453

                     E (Thermal)             CV                S
                      KCal/Mol        Cal/Mol-Kelvin    Cal/Mol-Kelvin
 Total                   88.985             36.162            100.890
 Electronic               0.000              0.000              0.000
 Translational            0.889              2.981             41.369
 Rotational               0.889              2.981             30.518
 Vibrational             87.207             30.201             29.002
 Vibration     1          0.593              1.985              6.507
 Vibration     2          0.596              1.976              4.702
 Vibration     3          0.600              1.964              3.925
 Vibration     4          0.642              1.826              2.048
 Vibration     5          0.660              1.771              1.765
 Vibration     6          0.662              1.766              1.743
 Vibration     7          0.736              1.550              1.113
 Vibration     8          0.777              1.441              0.915
 Vibration     9          0.782              1.428              0.894
 Vibration    10          0.809              1.361              0.796
 Vibration    11          0.815              1.347              0.776
 Vibration    12          0.888              1.177              0.580
 Vibration    13          0.952              1.044              0.460

 Optimization completed.
    -- Stationary point found.
 Normal termination of Gaussian 16 at Mon Aug 24 18:16:14 2020.
 Gaussian 16:  ES64L-G16RevA.03 25-Dec-2016

 ----------------------------------------------------------------------
 # TD(NStates=10, Root=1) B3LYP/6-31G* scf=qc volume pop=NPA density=cu
 rrent Geom=AllCheck Guess=Read
 ----------------------------------------------------------------------

 Structure from the checkpoint file:  "sulfonylfluoride_6_conf173.chk"
 -------------------
 Title Card Required
 -------------------
 Charge =  0 Multiplicity = 1

                         Standard orientation:
 ---------------------------------------------------------------------
 Center     Atomic      Atomic             Coordinates (Angstroms)
 Number     Number       Type             X           Y           Z
 ---------------------------------------------------------------------
      1          6           0       -0.581407   -0.000432   -1.112125
      2          1           0       -0.818000   -0.891620   -1.699016
      3          1           0       -0.818037    0.890295   -1.699700
      4          6           0        0.832629   -0.000192   -0.596801
      5          6           0        1.491383   -1.209530   -0.340972
      6          6           0        2.797138   -1.208604    0.147706
      7          6           0        3.452063    0.000189    0.391251
      8          6           0        2.796852    1.208791    0.147529
      9          6           0        1.491096    1.209340   -0.341149
     10         16           0       -1.786376    0.000054    0.253065
     11          8           0       -1.772829   -1.271102    0.953026
     12          8           0       -1.772716    1.271666    0.952191
     13          9           0       -3.125286   -0.000195   -0.674148
     14          1           0        0.979464   -2.150856   -0.522583
     15          1           0        3.301669   -2.151377    0.338986
     16          1           0        4.470191    0.000336    0.770486
     17          1           0        3.301163    2.151710    0.338668
     18          1           0        0.978968    2.150522   -0.522918
 ---------------------------------------------------------------------

 SCF Done:  E(RB3LYP) =  -919.381266994     a.u. after    1 cycles

 Excitation energies and oscillator strengths:

 Excited State   1:      Singlet-A      5.3127 eV  233.37 nm  f=0.0038  <S**2>=0.000
      44 -> 46         0.55200
      45 -> 47         0.43881
 This state for optimization and/or second-order correction.
 Total Energy, E(TD-HF/TD-DFT) =  -919.186028507
 Copying the excited state density for this state as the 1-particle RhoCI density.

 Excited State   2:      Singlet-A      5.8846 eV  210.69 nm  f=0.1406  <S**2>=0.000
      44 -> 47        -0.29460
      45 -> 46         0.63707

 Excited State   3:      Singlet-A      6.7466 eV  183.77 nm  f=0.1771  <S**2>=0.000
      44 -> 46        -0.39809
      44 -> 48        -0.31858
      45 -> 47         0.47143

 Excited State   4:      Singlet-A      6.7981 eV  182.38 nm  f=0.3887  <S**2>=0.000
      41 -> 46        -0.11200
      44 -> 47         0.54165
      45 -> 46         0.21021
      45 -> 48         0.37783

 Excited State   5:      Singlet-A      6.9251 eV  179.04 nm  f=0.0004  <S**2>=0.000
      43 -> 46         0.68107
      43 -> 48         0.13821

 Excited State   6:      Singlet-A      7.1760 eV  172.78 nm  f=0.2255  <S**2>=0.000
      41 -> 46         0.14483
      44 -> 47        -0.27126
      45 -> 46        -0.16322
      45 -> 48         0.52978
      45 -> 49         0.30025

 Excited State   7:      Singlet-A      7.3086 eV  169.64 nm  f=0.0778  <S**2>=0.000
      42 -> 46        -0.19126
      44 -> 46        -0.12916
      44 -> 48         0.57454
      44 -> 49         0.25586
      45 -> 47         0.20641

 Excited State   8:      Singlet-A      7.3519 eV  168.64 nm  f=0.0306  <S**2>=0.000
      40 -> 46         0.15308
      42 -> 46         0.64221
      44 -> 48         0.13482

 Excited State   9:      Singlet-A      7.4421 eV  166.60 nm  f=0.0074  <S**2>=0.000
      41 -> 46         0.48840
      45 -> 48         0.14339
      45 -> 49        -0.47382

 Excited State  10:      Singlet-A      7.5624 eV  163.95 nm  f=0.0002  <S**2>=0.000
      40 -> 46         0.67195
      42 -> 46        -0.13970

 The electronic state is 1-A.
 Alpha  occ. eigenvalues --  -89.14959 -24.73345 -19.17431 -19.17430 -10.25711
 Alpha  occ. eigenvalues --  -10.22558 -10.21044 -10.21043 -10.20809 -10.20715
 Alpha  occ. eigenvalues --  -10.20700  -8.17363  -6.14048  -6.13699  -6.13557
 Alpha  occ. eigenvalues --   -1.24472  -1.11362  -1.03334  -0.87959  -0.81868
 Alpha  occ. eigenvalues --   -0.76285  -0.74268  -0.65570  -0.62541  -0.60416
 Alpha  occ. eigenvalues --   -0.55637  -0.53576  -0.51181  -0.50959  -0.48173
 Alpha  occ. eigenvalues --   -0.47928  -0.44852  -0.44075  -0.43702  -0.42857
 Alpha  occ. eigenvalues --   -0.42720  -0.38711  -0.37686  -0.36622  -0.36113
 Alpha  occ. eigenvalues --   -0.34155  -0.33966  -0.32337  -0.26745  -0.26558
 Alpha virt. eigenvalues --   -0.03551  -0.01865   0.02297   0.04013   0.07507
 Alpha virt. eigenvalues --    0.09655   0.09680   0.11233   0.12529   0.14401
 Alpha virt. eigenvalues --    0.15576   0.16040   0.17521   0.17978   0.21139

 Mulliken charges:
               1
     1  C   -0.573059
     2  H    0.213498
     3  H    0.213498
     4  C    0.133183
     5  C   -0.152388
     6  C   -0.125576
     7  C   -0.132479
     8  C   -0.125576
     9  C   -0.152385
    10  S    1.207695
    11  O   -0.477670
    12  O   -0.477681
    13  F   -0.319533
    14  H    0.158634
    15  H    0.153211
    16  H    0.144762
    17  H    0.153215
    18  H    0.158651
 Sum of Mulliken charges =  -0.00000

 Dipole moment (field-independent basis, Debye):
    X=              4.2628    Y=             -0.0009    Z=             -2.7913  Tot=              5.0953
 Quadrupole moment (field-independent basis, Debye-Ang):
   XX=            -69.0407   YY=            -67.2854   ZZ=            -71.2512
   XY=              0.0012   XZ=              5.7835   YZ=              0.0010

 Summary of Natural Population Analysis:

                                       Natural Population
                Natural  -----------------------------------------------
    Atom  No    Charge         Core      Valence    Rydberg      Total
 -----------------------------------------------------------------------
      C    1   -0.71325      1.99917     4.69393    0.02015     6.71325
      H    2    0.27598      0.00000     0.72154    0.00248     0.72402
      H    3    0.27598      0.00000     0.72154    0.00248     0.72402
      C    4   -0.08310      1.99905     4.06495    0.01909     6.08310
      C    5   -0.18679      1.99906     4.16986    0.01786     6.18679
      C    6   -0.19091      1.99915     4.17417    0.01759     6.19091
      C    7   -0.25180      1.99916     4.23526    0.01738     6.25180
      C    8   -0.19090      1.99915     4.17416    0.01759     6.19090
      C    9   -0.18681      1.99906     4.16988    0.01787     6.18681
      S   10    2.37188      9.99892     3.42760    0.20160    13.62812
      O   11   -0.90069      1.99988     6.87702    0.02378     8.90069
      O   12   -0.90069      1.99988     6.87703    0.02378     8.90069
      F   13   -0.51705      1.99997     7.50813    0.00895     9.51705
      H   14    0.24107      0.00000     0.75772    0.00121     0.75893
      H   15    0.23902      0.00000     0.76014    0.00084     0.76098
      H   16    0.23793      0.00000     0.76127    0.00080     0.76207
      H   17    0.23902      0.00000     0.76014    0.00084     0.76098
      H   18    0.24109      0.00000     0.75771    0.00121     0.75891
 =======================================================================
   * Total *   -0.00000     29.99244    59.61206    0.39550    90.00000

 Normal termination of Gaussian 16 at Mon Aug 24 18:20:51 2020.
