 Gaussian 16, Revision A.03,

 ---------------------------------
 # opt=CalcAll B3LYP/6-31G* scf=qc
 ---------------------------------

 -------------------
 Title Card Required
 -------------------
 Symbolic Z-matrix:
 Charge =  0 Multiplicity = 1

 SCF Done:  E(RB3LYP) =  -1698.84582207     a.u. after    8 cycles
 SCF Done:  E(RB3LYP) =  -1698.98987826     a.u. after   15 cycles
 SCF Done:  E(RB3LYP) =  -1699.20036735     a.u. after   15 cycles
 SCF Done:  E(RB3LYP) =  -1699.30013995     a.u. after   16 cycles
 SCF Done:  E(RB3LYP) =  -1699.33452517     a.u. after   15 cycles
 SCF Done:  E(RB3LYP) =  -1699.34399370     a.u. after   15 cycles
 SCF Done:  E(RB3LYP) =  -1699.34814847     a.u. after   11 cycles
 SCF Done:  E(RB3LYP) =  -1699.35036042     a.u. after   15 cycles
 SCF Done:  E(RB3LYP) =  -1699.35228762     a.u. after   15 cycles
 SCF Done:  E(RB3LYP) =  -1699.35144040     a.u. after   15 cycles
 SCF Done:  E(RB3LYP) =  -1699.35305025     a.u. after    8 cycles
 SCF Done:  E(RB3LYP) =  -1699.35311923     a.u. after    7 cycles
 SCF Done:  E(RB3LYP) =  -1699.35312113     a.u. after    5 cycles
 SCF Done:  E(RB3LYP) =  -1699.35312125     a.u. after    3 cycles
 Optimization completed.
    -- Stationary point found.
 Normal termination of Gaussian 16 at Mon Aug 24 18:49:03 2020.

 ----------------------------------------------------------------------
 # freq B3LYP/6-31G* scf=qc volume NMR pop=NPA density=current Geom=All
 Check Guess=Read
 ----------------------------------------------------------------------

 Structure from the checkpoint file:  "sulfonylfluoride_4_conf12.chk"
 -------------------
 Title Card Required
 -------------------
 Charge =  0 Multiplicity = 1

 SCF Done:  E(RB3LYP) =  -1699.35312125     a.u. after    1 cycles

      1  C    Isotropic =    76.6342   Anisotropy =    14.5758

      2  C    Isotropic =    75.5798   Anisotropy =    14.0377

      3  C    Isotropic =    67.5229   Anisotropy =    13.9134

      4  F    Isotropic =   291.8189   Anisotropy =    61.3171

      5  F    Isotropic =   290.7257   Anisotropy =    58.2875

      6  S    Isotropic =   215.8570   Anisotropy =   366.9256

      7  O    Isotropic =    95.7569   Anisotropy =    64.4273

      8  O    Isotropic =    92.2956   Anisotropy =    58.4189

      9  F    Isotropic =   122.7571   Anisotropy =   369.0096

     10  F    Isotropic =   308.7136   Anisotropy =    80.6800

     11  F    Isotropic =   314.1160   Anisotropy =    78.3783

     12  F    Isotropic =   323.6384   Anisotropy =    84.8654

     13  F    Isotropic =   323.8083   Anisotropy =    87.1840

     14  C    Isotropic =    69.0479   Anisotropy =    14.5463

     15  F    Isotropic =   276.1031   Anisotropy =   102.3158

     16  F    Isotropic =   274.1763   Anisotropy =   100.5723

     17  F    Isotropic =   281.2137   Anisotropy =   116.2936

  Exact polarizability:  74.361  -0.504  66.335  -2.473   0.669  61.441
 Approx polarizability: 102.116   6.041 104.235  -4.831  -0.282 104.768

                      1                      2                      3
                      A                      A                      A
 Frequencies --     36.3913                41.8898                66.7889
 Red. masses --     18.6584                17.4165                18.5457
 Frc consts  --      0.0146                 0.0180                 0.0487
 IR Inten    --      0.1130                 0.0632                 0.1351

                      4                      5                      6
                      A                      A                      A
 Frequencies --     86.8934               127.1194               138.4515
 Red. masses --     18.5847                18.4926                17.6520
 Frc consts  --      0.0827                 0.1761                 0.1994
 IR Inten    --      0.1451                 0.4902                 1.5370

                      7                      8                      9
                      A                      A                      A
 Frequencies --    158.2248               194.2701               216.1693
 Red. masses --     17.7072                17.3585                18.3770
 Frc consts  --      0.2612                 0.3860                 0.5060
 IR Inten    --      2.8581                 1.7113                 1.8958

                     10                     11                     12
                      A                      A                      A
 Frequencies --    221.7556               246.3879               273.3107
 Red. masses --     19.2322                18.6471                17.9626
 Frc consts  --      0.5572                 0.6670                 0.7906
 IR Inten    --      1.1985                 4.6298                 3.0756

                     13                     14                     15
                      A                      A                      A
 Frequencies --    281.9693               301.7529               324.9097
 Red. masses --     18.4150                18.5494                17.8399
 Frc consts  --      0.8626                 0.9951                 1.1096
 IR Inten    --      0.7403                 0.9988                 0.9345

                     16                     17                     18
                      A                      A                      A
 Frequencies --    328.7373               341.7597               361.0494
 Red. masses --     18.2693                18.7576                18.5037
 Frc consts  --      1.1632                 1.2908                 1.4212
 IR Inten    --      0.5903                 0.2287                 0.3048

                     19                     20                     21
                      A                      A                      A
 Frequencies --    390.8472               415.6906               449.8743
 Red. masses --     18.1083                17.8517                18.0371
 Frc consts  --      1.6298                 1.8175                 2.1508
 IR Inten    --      7.4642                 4.8083                18.3585

                     22                     23                     24
                      A                      A                      A
 Frequencies --    468.9530               476.3079               528.0550
 Red. masses --     17.9094                18.2610                17.9469
 Frc consts  --      2.3205                 2.4409                 2.9485
 IR Inten    --      4.8857                 3.1906                11.2066

                     25                     26                     27
                      A                      A                      A
 Frequencies --    579.5806               581.3407               625.6503
 Red. masses --     17.7366                20.2570                17.8988
 Frc consts  --      3.5103                 4.0335                 4.1280
 IR Inten    --      0.9305                87.9178                32.5127

                     28                     29                     30
                      A                      A                      A
 Frequencies --    653.8075               674.5963               744.9179
 Red. masses --     17.4652                17.5089                17.0368
 Frc consts  --      4.3987                 4.6946                 5.5700
 IR Inten    --      4.1091                17.2469                47.0577

                     31                     32                     33
                      A                      A                      A
 Frequencies --    779.3096               897.6780              1022.1266
 Red. masses --     20.1598                14.3750                13.5674
 Frc consts  --      7.2137                 6.8249                 8.3513
 IR Inten    --    201.7937                55.2497               154.0908

                     34                     35                     36
                      A                      A                      A
 Frequencies --   1111.9122              1169.2212              1181.5571
 Red. masses --     13.5715                13.6504                15.7215
 Frc consts  --      9.8859                10.9949                12.9317
 IR Inten    --     75.2580               124.7467                18.4084

                     37                     38                     39
                      A                      A                      A
 Frequencies --   1203.9324              1211.4037              1244.9885
 Red. masses --     13.2662                14.3217                13.0830
 Frc consts  --     11.3293                12.3829                11.9478
 IR Inten    --     48.3418               144.7180               110.6626

                     40                     41                     42
                      A                      A                      A
 Frequencies --   1256.8510              1274.3017              1282.4833
 Red. masses --     13.1149                13.2060                12.7566
 Frc consts  --     12.2062                12.6347                12.3620
 IR Inten    --    257.1206               335.9267               135.0585

                     43                     44                     45
                      A                      A                      A
 Frequencies --   1304.4019              1362.0222              1417.6605
 Red. masses --     12.6541                12.5090                20.7775
 Frc consts  --     12.6854                13.6723                24.6029
 IR Inten    --     14.4415                45.6205               210.5676

 - Thermochemistry -
 -------------------
 Temperature   298.150 Kelvin.  Pressure   1.00000 Atm.
 Atom     1 has atomic number  6 and mass  12.00000

 Molecular mass:   301.94593 amu.
 Principal axes and moments of inertia in atomic units:
                           1         2         3
     Eigenvalues --  2574.051774853.207345523.67979
           X            0.99997  -0.00559  -0.00581
           Y            0.00563   0.99997   0.00594
           Z            0.00578  -0.00597   0.99997
 This molecule is an asymmetric top.
 Rotational symmetry number  1.
 Warning -- assumption of classical behavior for rotation
           may cause significant error
 Rotational temperatures (Kelvin)      0.03365     0.01785     0.01568
 Rotational constants (GHZ):           0.70113     0.37187     0.32673
 Zero-point vibrational energy     167819.9 (Joules/Mol)
                                   40.10993 (Kcal/Mol)
 Warning -- explicit consideration of  26 degrees of freedom as
           vibrations may cause significant error
 Vibrational temperatures:     52.36    60.27    96.09   125.02   182.90
          (Kelvin)            199.20   227.65   279.51   311.02   319.06
                              354.50   393.23   405.69   434.16   467.47
                              472.98   491.72   519.47   562.34   598.09
                              647.27   674.72   685.30   759.75   833.89
                              836.42   900.17   940.68   970.59  1071.77
                             1121.25  1291.56  1470.61  1599.79  1682.25
                             1700.00  1732.19  1742.94  1791.26  1808.33
                             1833.44  1845.21  1876.74  1959.65  2039.70

 Zero-point correction=                           0.063919 (Hartree/Particle)
 Thermal correction to Energy=                    0.079696
 Thermal correction to Enthalpy=                  0.080640
 Thermal correction to Gibbs Free Energy=         0.019916
 Sum of electronic and zero-point Energies=          -1699.289202
 Sum of electronic and thermal Energies=             -1699.273425
 Sum of electronic and thermal Enthalpies=           -1699.272481
 Sum of electronic and thermal Free Energies=        -1699.333206

                     E (Thermal)             CV                S
                      KCal/Mol        Cal/Mol-Kelvin    Cal/Mol-Kelvin
 Total                   50.010             55.769            127.805
 Electronic               0.000              0.000              0.000
 Translational            0.889              2.981             43.012
 Rotational               0.889              2.981             32.601
 Vibrational             48.232             49.807             52.192
 Vibration     1          0.594              1.982              5.446
 Vibration     2          0.595              1.980              5.168
 Vibration     3          0.598              1.970              4.246
 Vibration     4          0.601              1.958              3.729
 Vibration     5          0.611              1.926              2.989
 Vibration     6          0.614              1.915              2.825
 Vibration     7          0.621              1.893              2.571
 Vibration     8          0.635              1.848              2.187
 Vibration     9          0.645              1.816              1.991
 Vibration    10          0.648              1.808              1.945
 Vibration    11          0.661              1.769              1.756
 Vibration    12          0.676              1.723              1.575
 Vibration    13          0.681              1.707              1.522
 Vibration    14          0.694              1.670              1.407
 Vibration    15          0.709              1.626              1.285
 Vibration    16          0.712              1.618              1.266
 Vibration    17          0.721              1.592              1.204
 Vibration    18          0.735              1.552              1.118
 Vibration    19          0.759              1.490              0.997
 Vibration    20          0.779              1.436              0.907
 Vibration    21          0.809              1.361              0.796
 Vibration    22          0.826              1.319              0.740
 Vibration    23          0.833              1.303              0.720
 Vibration    24          0.883              1.188              0.592
 Vibration    25          0.936              1.075              0.486
 Vibration    26          0.938              1.072              0.483

 Optimization completed.
    -- Stationary point found.
 Normal termination of Gaussian 16 at Mon Aug 24 18:55:33 2020.
 Gaussian 16:  ES64L-G16RevA.03 25-Dec-2016

 ----------------------------------------------------------------------
 # TD(NStates=10, Root=1) B3LYP/6-31G* scf=qc volume pop=NPA density=cu
 rrent Geom=AllCheck Guess=Read
 ----------------------------------------------------------------------

 Structure from the checkpoint file:  "sulfonylfluoride_4_conf13.chk"
 -------------------
 Title Card Required
 -------------------
 Charge =  0 Multiplicity = 1

                         Standard orientation:
 ---------------------------------------------------------------------
 Center     Atomic      Atomic             Coordinates (Angstroms)
 Number     Number       Type             X           Y           Z
 ---------------------------------------------------------------------
      1          6           0       -1.666821    0.521696    0.052221
      2          6           0       -0.268246    1.052289   -0.389274
      3          6           0        0.973960    0.691790    0.502736
      4          9           0        1.743602    1.775948    0.646040
      5          9           0        0.601511    0.246128    1.710382
      6         16           0        2.076302   -0.623940   -0.288666
      7          8           0        1.323193   -1.841426   -0.488716
      8          8           0        2.908324   -0.006985   -1.295333
      9          9           0        2.986180   -0.832980    1.026562
     10          9           0       -0.021172    0.631696   -1.654614
     11          9           0       -0.373271    2.396622   -0.392581
     12          9           0       -2.551860    1.063746   -0.816335
     13          9           0       -1.920654    0.993060    1.293856
     14          6           0       -1.914417   -1.007984    0.046851
     15          9           0       -1.650909   -1.514847   -1.161255
     16          9           0       -1.149413   -1.616362    0.960650
     17          9           0       -3.199548   -1.229279    0.344612
 ---------------------------------------------------------------------

 SCF Done:  E(RB3LYP) =  -1699.35312125     a.u. after    1 cycles

 Excitation energies and oscillator strengths:

 Excited State   1:      Singlet-A      7.2944 eV  169.97 nm  f=0.0009  <S**2>=0.000
      72 -> 74         0.59421
      72 -> 77         0.12928
      73 -> 74        -0.33731
 This state for optimization and/or second-order correction.
 Total Energy, E(TD-HF/TD-DFT) =  -1699.08505616
 Copying the excited state density for this state as the 1-particle RhoCI density.

 Excited State   2:      Singlet-A      7.5226 eV  164.82 nm  f=0.0772  <S**2>=0.000
      72 -> 74         0.32881
      73 -> 74         0.58739
      73 -> 75        -0.13366

 Excited State   3:      Singlet-A      7.8033 eV  158.89 nm  f=0.0003  <S**2>=0.000
      71 -> 74         0.64400
      72 -> 75         0.16569
      72 -> 76         0.10644
      73 -> 75        -0.15938

 Excited State   4:      Singlet-A      8.1510 eV  152.11 nm  f=0.0028  <S**2>=0.000
      71 -> 74        -0.21224
      71 -> 75        -0.18506
      71 -> 76        -0.11281
      72 -> 75         0.55445
      72 -> 76         0.15595
      73 -> 75        -0.14785
      73 -> 76        -0.17320

 Excited State   5:      Singlet-A      8.2919 eV  149.52 nm  f=0.0162  <S**2>=0.000
      70 -> 74         0.56744
      73 -> 74         0.10721
      73 -> 75         0.33164
      73 -> 77        -0.10820

 Excited State   6:      Singlet-A      8.4968 eV  145.92 nm  f=0.0193  <S**2>=0.000
      70 -> 74        -0.32553
      71 -> 74         0.11126
      71 -> 75         0.16104
      72 -> 75         0.17833
      72 -> 77         0.10655
      73 -> 75         0.46828
      73 -> 76        -0.25915

 Excited State   7:      Singlet-A      8.6761 eV  142.90 nm  f=0.0018  <S**2>=0.000
      71 -> 75         0.51026
      71 -> 76         0.18968
      71 -> 77         0.13334
      72 -> 75         0.13215
      72 -> 76        -0.11452
      72 -> 77        -0.29250
      73 -> 75        -0.12101
      73 -> 77         0.15875

 Excited State   8:      Singlet-A      8.8004 eV  140.88 nm  f=0.0594  <S**2>=0.000
      69 -> 74         0.23569
      70 -> 74        -0.13516
      72 -> 74         0.10049
      72 -> 76         0.29527
      72 -> 77        -0.24967
      73 -> 75         0.15137
      73 -> 76         0.40057
      73 -> 77         0.17049

 Excited State   9:      Singlet-A      8.8534 eV  140.04 nm  f=0.0104  <S**2>=0.000
      69 -> 74        -0.27082
      72 -> 75        -0.22261
      72 -> 76         0.33270
      72 -> 77        -0.20595
      73 -> 76        -0.33074
      73 -> 77         0.25543

 Excited State  10:      Singlet-A      8.9101 eV  139.15 nm  f=0.0055  <S**2>=0.000
      70 -> 74         0.11565
      71 -> 75        -0.11044
      71 -> 77        -0.13614
      72 -> 76        -0.31364
      72 -> 77         0.15340
      73 -> 77         0.52308

 The electronic state is 1-A.
 Alpha  occ. eigenvalues --  -89.18672 -24.78887 -24.78573 -24.77825 -24.77308
 Alpha  occ. eigenvalues --  -24.77224 -24.76758 -24.76725 -24.76548 -24.76487
 Alpha  occ. eigenvalues --  -24.76480 -19.21404 -19.21349 -10.47877 -10.45090
 Alpha  occ. eigenvalues --  -10.43610 -10.42483  -8.21115  -6.17772  -6.17429
 Alpha  occ. eigenvalues --   -6.17354  -1.35271  -1.34423  -1.32537  -1.30626
 Alpha  occ. eigenvalues --   -1.28475  -1.27808  -1.26548  -1.26147  -1.25836
 Alpha  occ. eigenvalues --   -1.25192  -1.15224  -1.07433  -0.85620  -0.80941
 Alpha  occ. eigenvalues --   -0.75952  -0.71465  -0.68502  -0.66092  -0.64342
 Alpha  occ. eigenvalues --   -0.63962  -0.63108  -0.62610  -0.62177  -0.60399
 Alpha  occ. eigenvalues --   -0.59951  -0.58917  -0.56274  -0.53360  -0.52936
 Alpha  occ. eigenvalues --   -0.51433  -0.50476  -0.50225  -0.49631  -0.49592
 Alpha  occ. eigenvalues --   -0.48930  -0.48273  -0.47336  -0.47155  -0.46910
 Alpha  occ. eigenvalues --   -0.46634  -0.46223  -0.45648  -0.45316  -0.45152
 Alpha  occ. eigenvalues --   -0.44504  -0.43638  -0.42348  -0.41476  -0.38607
 Alpha  occ. eigenvalues --   -0.37950  -0.36105  -0.35886
 Alpha virt. eigenvalues --   -0.04313  -0.00964   0.00763   0.01392   0.05344
 Alpha virt. eigenvalues --    0.05873   0.11273   0.11878   0.15937   0.16803
 Alpha virt. eigenvalues --    0.17649   0.18522   0.21430   0.23913   0.25531

 Mulliken charges:
               1
     1  C    0.489688
     2  C    0.476223
     3  C    0.333241
     4  F   -0.238277
     5  F   -0.240565
     6  S    1.067365
     7  O   -0.293113
     8  O   -0.295704
     9  F   -0.271628
    10  F   -0.267054
    11  F   -0.267339
    12  F   -0.272347
    13  F   -0.268889
    14  C    0.781174
    15  F   -0.242257
    16  F   -0.245914
    17  F   -0.244606
 Sum of Mulliken charges =  -0.00000

 Dipole moment (field-independent basis, Debye):
    X=              0.4709    Y=             -0.5929    Z=             -0.3563  Tot=              0.8368
 Quadrupole moment (field-independent basis, Debye-Ang):
   XX=            -96.6573   YY=            -96.0351   ZZ=            -96.1731
   XY=              0.3878   XZ=             -1.4109   YZ=              0.7490

 Summary of Natural Population Analysis:

                                       Natural Population
                Natural  -----------------------------------------------
    Atom  No    Charge         Core      Valence    Rydberg      Total
 -----------------------------------------------------------------------
      C    1    0.64135      1.99885     3.30508    0.05472     5.35865
      C    2    0.62288      1.99886     3.32079    0.05747     5.37712
      C    3    0.48220      1.99913     3.45099    0.06767     5.51780
      F    4   -0.32950      1.99993     7.32007    0.00950     9.32950
      F    5   -0.33662      1.99993     7.32739    0.00930     9.33662
      S    6    2.03963      9.99908     3.75142    0.20987    13.96037
      O    7   -0.61597      1.99989     6.59186    0.02422     8.61597
      O    8   -0.63185      1.99988     6.60793    0.02403     8.63185
      F    9   -0.50543      1.99997     7.49696    0.00850     9.50543
      F   10   -0.36948      1.99993     7.36028    0.00927     9.36948
      F   11   -0.34403      1.99993     7.33506    0.00904     9.34403
      F   12   -0.34335      1.99994     7.33506    0.00836     9.34335
      F   13   -0.34466      1.99993     7.33648    0.00825     9.34466
      C   14    1.07207      1.99923     2.85514    0.07356     4.92793
      F   15   -0.34550      1.99993     7.33818    0.00739     9.34550
      F   16   -0.34885      1.99992     7.34152    0.00741     9.34885
      F   17   -0.34289      1.99993     7.33566    0.00731     9.34289
 =======================================================================
   * Total *    0.00000     41.99428   103.40986    0.59586   146.00000

 Normal termination of Gaussian 16 at Mon Aug 24 19:04:23 2020.
