 Gaussian 16, Revision A.03,

 ---------------------------------
 # opt=CalcAll B3LYP/6-31G* scf=qc
 ---------------------------------

 -------------------
 Title Card Required
 -------------------
 Symbolic Z-matrix:
 Charge =  0 Multiplicity = 1

 SCF Done:  E(RB3LYP) =  -1217.09063884     a.u. after    8 cycles
 SCF Done:  E(RB3LYP) =  -1217.09670997     a.u. after   15 cycles
 SCF Done:  E(RB3LYP) =  -1217.09760460     a.u. after   15 cycles
 SCF Done:  E(RB3LYP) =  -1217.09765348     a.u. after   13 cycles
 SCF Done:  E(RB3LYP) =  -1217.09760955     a.u. after   13 cycles
 SCF Done:  E(RB3LYP) =  -1217.09769685     a.u. after    9 cycles
 SCF Done:  E(RB3LYP) =  -1217.09769716     a.u. after    3 cycles
 SCF Done:  E(RB3LYP) =  -1217.09769717     a.u. after    2 cycles
 Optimization completed.
    -- Stationary point found.
 Normal termination of Gaussian 16 at Mon Aug 24 17:25:38 2020.

 ----------------------------------------------------------------------
 # freq B3LYP/6-31G* scf=qc volume NMR pop=NPA density=current Geom=All
 Check Guess=Read
 ----------------------------------------------------------------------

 Structure from the checkpoint file:  "sulfonylfluoride_10_conf22.chk"
 -------------------
 Title Card Required
 -------------------
 Charge =  0 Multiplicity = 1

 SCF Done:  E(RB3LYP) =  -1217.09769717     a.u. after    1 cycles

      1  C    Isotropic =    53.1286   Anisotropy =   114.2338

      2  C    Isotropic =    67.3562   Anisotropy =   171.3035

      3  C    Isotropic =    68.7354   Anisotropy =   169.8821

      4  C    Isotropic =    56.7380   Anisotropy =   159.5693

      5  C    Isotropic =    68.7341   Anisotropy =   169.8833

      6  C    Isotropic =    67.3570   Anisotropy =   171.3048

      7  C    Isotropic =    64.1538   Anisotropy =    14.9812

      8  F    Isotropic =   273.3729   Anisotropy =   119.6652

      9  F    Isotropic =   273.3690   Anisotropy =   119.6670

     10  F    Isotropic =   248.8093   Anisotropy =   121.9354

     11  S    Isotropic =   216.0264   Anisotropy =   332.0371

     12  O    Isotropic =   105.1303   Anisotropy =    73.2910

     13  O    Isotropic =   105.1059   Anisotropy =    73.2815

     14  F    Isotropic =    97.1419   Anisotropy =   361.6916

     15  H    Isotropic =    24.3017   Anisotropy =     7.8392

     16  H    Isotropic =    24.5151   Anisotropy =     8.1073

     17  H    Isotropic =    24.5150   Anisotropy =     8.1073

     18  H    Isotropic =    24.3017   Anisotropy =     7.8388

  Exact polarizability: 128.050   0.000  96.075  -2.778   0.002  50.177
 Approx polarizability: 180.472  -0.000 181.007  -5.619   0.007  82.167

                      1                      2                      3
                      A                      A                      A
 Frequencies --     16.2585                42.2497                59.9035
 Red. masses --     14.3824                 5.3272                11.6779
 Frc consts  --      0.0022                 0.0056                 0.0247
 IR Inten    --      0.0010                 0.0906                 2.7213

                      4                      5                      6
                      A                      A                      A
 Frequencies --    128.0594               148.7843               219.1899
 Red. masses --     11.8238                12.9340                 9.2254
 Frc consts  --      0.1142                 0.1687                 0.2611
 IR Inten    --      4.2102                 0.0407                 0.0022

                      7                      8                      9
                      A                      A                      A
 Frequencies --    220.2980               264.8712               333.4455
 Red. masses --     16.8502                 9.6566                10.9971
 Frc consts  --      0.4818                 0.3992                 0.7204
 IR Inten    --      0.0601                 1.3709                 1.4528

                     10                     11                     12
                      A                      A                      A
 Frequencies --    388.0971               399.1609               413.8542
 Red. masses --      8.7490                 9.3752                 3.0199
 Frc consts  --      0.7764                 0.8801                 0.3047
 IR Inten    --      1.5774                 0.0002                 0.0770

                     13                     14                     15
                      A                      A                      A
 Frequencies --    424.0549               465.6339               471.6769
 Red. masses --      8.8782                11.1565                10.8588
 Frc consts  --      0.9406                 1.4252                 1.4234
 IR Inten    --     30.3264                 4.9738                 9.1302

                     16                     17                     18
                      A                      A                      A
 Frequencies --    514.0424               576.3568               591.2695
 Red. masses --      7.5739                11.8219                 7.9557
 Frc consts  --      1.1792                 2.3138                 1.6387
 IR Inten    --      7.7163                 0.0536                41.8539

                     19                     20                     21
                      A                      A                      A
 Frequencies --    597.9026               642.1234               708.4773
 Red. masses --      6.3110                 7.1387                11.5160
 Frc consts  --      1.3293                 1.7342                 3.4057
 IR Inten    --     62.6326                 0.2035                50.0712

                     22                     23                     24
                      A                      A                      A
 Frequencies --    733.0462               777.6019               808.9306
 Red. masses --      4.2396                13.5046                10.9404
 Frc consts  --      1.3423                 4.8111                 4.2180
 IR Inten    --      8.4511               130.0659               133.4827

                     25                     26                     27
                      A                      A                      A
 Frequencies --    860.0106               860.7140               982.9950
 Red. masses --      1.5504                 1.2419                 1.2646
 Frc consts  --      0.6756                 0.5421                 0.7199
 IR Inten    --     34.8055                 0.0087                 0.4310

                     28                     29                     30
                      A                      A                      A
 Frequencies --    986.6701              1032.3599              1087.4296
 Red. masses --      1.3519                 4.4281                 6.6899
 Frc consts  --      0.7754                 2.7806                 4.6609
 IR Inten    --      0.2213                24.3279               110.4871

                     31                     32                     33
                      A                      A                      A
 Frequencies --   1104.8683              1141.1104              1185.8288
 Red. masses --      2.7867                 1.4937                10.3295
 Frc consts  --      2.0043                 1.1460                 8.5580
 IR Inten    --     14.4950                32.2113               189.6294

                     34                     35                     36
                      A                      A                      A
 Frequencies --   1198.3922              1220.0530              1222.4438
 Red. masses --      9.9642                 1.1977                 6.3885
 Frc consts  --      8.4312                 1.0504                 5.6248
 IR Inten    --    254.2365                11.1493               163.7771

                     37                     38                     39
                      A                      A                      A
 Frequencies --   1339.5707              1340.6037              1361.0638
 Red. masses --      6.0185                 1.2770                10.9613
 Frc consts  --      6.3631                 1.3522                11.9638
 IR Inten    --    330.4081                 1.2833                12.0339

                     40                     41                     42
                      A                      A                      A
 Frequencies --   1394.1542              1447.4826              1542.7771
 Red. masses --     14.7424                 2.9947                 2.3174
 Frc consts  --     16.8826                 3.6969                 3.2498
 IR Inten    --    144.3726                56.2471                 1.1451

                     43                     44                     45
                      A                      A                      A
 Frequencies --   1637.8277              1663.7333              3226.7658
 Red. masses --      7.1626                 5.5936                 1.0892
 Frc consts  --     11.3203                 9.1225                 6.6816
 IR Inten    --      0.0001                 1.1420                 0.0583

                     46                     47                     48
                      A                      A                      A
 Frequencies --   3227.8141              3239.5910              3240.5476
 Red. masses --      1.0886                 1.0944                 1.0956
 Frc consts  --      6.6825                 6.7671                 6.7783
 IR Inten    --      1.2502                 0.0600                 1.7045

 - Thermochemistry -
 -------------------
 Temperature   298.150 Kelvin.  Pressure   1.00000 Atm.
 Atom     1 has atomic number  6 and mass  12.00000

 Molecular mass:   227.98681 amu.
 Principal axes and moments of inertia in atomic units:
                           1         2         3
     Eigenvalues --  1020.064906727.473717042.34915
           X            1.00000   0.00000  -0.00289
           Y           -0.00000   1.00000   0.00001
           Z            0.00289  -0.00001   1.00000
 This molecule is an asymmetric top.
 Rotational symmetry number  1.
 Warning -- assumption of classical behavior for rotation
           may cause significant error
 Rotational temperatures (Kelvin)      0.08491     0.01287     0.01230
 Rotational constants (GHZ):           1.76924     0.26826     0.25627
 Zero-point vibrational energy     284053.9 (Joules/Mol)
                                   67.89050 (Kcal/Mol)
 Warning -- explicit consideration of  19 degrees of freedom as
           vibrations may cause significant error
 Vibrational temperatures:     23.39    60.79    86.19   184.25   214.07
          (Kelvin)            315.37   316.96   381.09   479.75   558.39
                              574.30   595.44   610.12   669.94   678.64
                              739.59   829.25   850.70   860.25   923.87
                             1019.34  1054.69  1118.80  1163.87  1237.36
                             1238.38  1414.31  1419.60  1485.34  1564.57
                             1589.66  1641.80  1706.14  1724.22  1755.38
                             1758.82  1927.34  1928.83  1958.27  2005.88
                             2082.60  2219.71  2356.47  2393.74  4642.60
                             4644.10  4661.05  4662.43

 Zero-point correction=                           0.108190 (Hartree/Particle)
 Thermal correction to Energy=                    0.120187
 Thermal correction to Enthalpy=                  0.121131
 Thermal correction to Gibbs Free Energy=         0.067317
 Sum of electronic and zero-point Energies=          -1216.989507
 Sum of electronic and thermal Energies=             -1216.977510
 Sum of electronic and thermal Enthalpies=           -1216.976566
 Sum of electronic and thermal Free Energies=        -1217.030381

                     E (Thermal)             CV                S
                      KCal/Mol        Cal/Mol-Kelvin    Cal/Mol-Kelvin
 Total                   75.419             43.991            113.263
 Electronic               0.000              0.000              0.000
 Translational            0.889              2.981             42.175
 Rotational               0.889              2.981             32.247
 Vibrational             73.641             38.029             38.842
 Vibration     1          0.593              1.986              7.046
 Vibration     2          0.595              1.980              5.151
 Vibration     3          0.597              1.973              4.460
 Vibration     4          0.611              1.925              2.975
 Vibration     5          0.618              1.904              2.688
 Vibration     6          0.647              1.812              1.966
 Vibration     7          0.647              1.810              1.957
 Vibration     8          0.671              1.737              1.629
 Vibration     9          0.715              1.609              1.243
 Vibration    10          0.756              1.496              1.007
 Vibration    11          0.765              1.472              0.966
 Vibration    12          0.777              1.440              0.913
 Vibration    13          0.786              1.418              0.878
 Vibration    14          0.823              1.326              0.750
 Vibration    15          0.829              1.313              0.733
 Vibration    16          0.869              1.219              0.624
 Vibration    17          0.933              1.082              0.492
 Vibration    18          0.949              1.050              0.465
 Vibration    19          0.956              1.036              0.453

 Optimization completed.
    -- Stationary point found.
 Normal termination of Gaussian 16 at Mon Aug 24 17:30:03 2020.
 Gaussian 16:  ES64L-G16RevA.03 25-Dec-2016

 ----------------------------------------------------------------------
 # TD(NStates=10, Root=1) B3LYP/6-31G* scf=qc volume pop=NPA density=cu
 rrent Geom=AllCheck Guess=Read
 ----------------------------------------------------------------------

 Structure from the checkpoint file:  "sulfonylfluoride_10_conf23.chk"
 -------------------
 Title Card Required
 -------------------
 Charge =  0 Multiplicity = 1

                         Standard orientation:
 ---------------------------------------------------------------------
 Center     Atomic      Atomic             Coordinates (Angstroms)
 Number     Number       Type             X           Y           Z
 ---------------------------------------------------------------------
      1          6           0       -1.101748   -0.000037    0.073040
      2          6           0       -0.426389   -1.221246    0.053482
      3          6           0        0.965357   -1.214821    0.005455
      4          6           0        1.656129   -0.000013   -0.020058
      5          6           0        0.965333    1.214786    0.005462
      6          6           0       -0.426409    1.221189    0.053493
      7          6           0        3.165929    0.000007   -0.013318
      8          9           0        3.665655   -1.089990   -0.631400
      9          9           0        3.665621    1.089960   -0.631508
     10          9           0        3.646929    0.000079    1.248827
     11         16           0       -2.881813   -0.000066    0.130643
     12          8           0       -3.361544   -1.273973    0.630737
     13          8           0       -3.361548    1.273361    0.631956
     14          9           0       -3.195956    0.000712   -1.460605
     15          1           0       -0.980777   -2.152688    0.083294
     16          1           0        1.512952   -2.150627   -0.015807
     17          1           0        1.512913    2.150601   -0.015797
     18          1           0       -0.980801    2.152628    0.083317
 ---------------------------------------------------------------------

 SCF Done:  E(RB3LYP) =  -1217.09769717     a.u. after    1 cycles

 Excitation energies and oscillator strengths:

 Excited State   1:      Singlet-A      5.1978 eV  238.53 nm  f=0.0192  <S**2>=0.000
      56 -> 59        -0.36158
      57 -> 58         0.60668
 This state for optimization and/or second-order correction.
 Total Energy, E(TD-HF/TD-DFT) =  -1216.90668232
 Copying the excited state density for this state as the 1-particle RhoCI density.

 Excited State   2:      Singlet-A      5.8204 eV  213.01 nm  f=0.1727  <S**2>=0.000
      56 -> 58         0.64590
      57 -> 59         0.26445

 Excited State   3:      Singlet-A      6.0500 eV  204.93 nm  f=0.0021  <S**2>=0.000
      54 -> 58         0.17946
      55 -> 58         0.67738

 Excited State   4:      Singlet-A      6.3984 eV  193.77 nm  f=0.0018  <S**2>=0.000
      53 -> 58         0.68446
      57 -> 59         0.14249

 Excited State   5:      Singlet-A      6.4859 eV  191.16 nm  f=0.0003  <S**2>=0.000
      54 -> 58         0.67016
      55 -> 58        -0.17711

 Excited State   6:      Singlet-A      6.9138 eV  179.33 nm  f=0.2283  <S**2>=0.000
      53 -> 59        -0.19798
      56 -> 59         0.55906
      57 -> 58         0.32664
      57 -> 60        -0.14418

 Excited State   7:      Singlet-A      6.9865 eV  177.46 nm  f=0.4077  <S**2>=0.000
      55 -> 59         0.42934
      56 -> 58        -0.21202
      57 -> 59         0.49618

 Excited State   8:      Singlet-A      7.0096 eV  176.88 nm  f=0.2248  <S**2>=0.000
      55 -> 59         0.55952
      56 -> 58         0.15494
      57 -> 59        -0.37471

 Excited State   9:      Singlet-A      7.2846 eV  170.20 nm  f=0.0133  <S**2>=0.000
      50 -> 58         0.56661
      53 -> 59        -0.38461

 Excited State  10:      Singlet-A      7.3356 eV  169.02 nm  f=0.0198  <S**2>=0.000
      50 -> 58         0.41395
      53 -> 59         0.53839
      57 -> 60        -0.11747

 The electronic state is 1-A.
 Alpha  occ. eigenvalues --  -89.16553 -24.74526 -24.74526 -24.74297 -24.73953
 Alpha  occ. eigenvalues --  -19.18552 -19.18551 -10.45524 -10.26842 -10.25368
 Alpha  occ. eigenvalues --  -10.24779 -10.24778 -10.24336 -10.24334  -8.18845
 Alpha  occ. eigenvalues --   -6.15523  -6.15190  -6.15082  -1.32172  -1.25654
 Alpha  occ. eigenvalues --   -1.23618  -1.23151  -1.12550  -1.04631  -0.91587
 Alpha  occ. eigenvalues --   -0.83375  -0.80056  -0.74595  -0.69169  -0.66507
 Alpha  occ. eigenvalues --   -0.64028  -0.59999  -0.59875  -0.59662  -0.58197
 Alpha  occ. eigenvalues --   -0.53592  -0.51747  -0.49761  -0.49555  -0.47992
 Alpha  occ. eigenvalues --   -0.47599  -0.47282  -0.47183  -0.44680  -0.44491
 Alpha  occ. eigenvalues --   -0.43987  -0.43399  -0.41685  -0.41562  -0.39848
 Alpha  occ. eigenvalues --   -0.39279  -0.39058  -0.35422  -0.35240  -0.33573
 Alpha  occ. eigenvalues --   -0.30826  -0.30214
 Alpha virt. eigenvalues --   -0.08178  -0.05109   0.01156   0.03985   0.07839
 Alpha virt. eigenvalues --    0.09370   0.10691   0.11253   0.11347   0.12927
 Alpha virt. eigenvalues --    0.14673   0.18211   0.19539   0.19824   0.20422

 Mulliken charges:
               1
     1  C   -0.156512
     2  C   -0.134900
     3  C   -0.140138
     4  C   -0.019794
     5  C   -0.140138
     6  C   -0.134885
     7  C    0.786090
     8  F   -0.265636
     9  F   -0.265637
    10  F   -0.254546
    11  S    1.191763
    12  O   -0.479871
    13  O   -0.479868
    14  F   -0.301314
    15  H    0.209140
    16  H    0.188560
    17  H    0.188562
    18  H    0.209127
 Sum of Mulliken charges =  -0.00000

 Dipole moment (field-independent basis, Debye):
    X=              3.2412    Y=              0.0003    Z=             -0.6813  Tot=              3.3121
 Quadrupole moment (field-independent basis, Debye-Ang):
   XX=           -106.9505   YY=            -77.6124   ZZ=            -85.5355
   XY=             -0.0015   XZ=              2.6472   YZ=             -0.0015

 Summary of Natural Population Analysis:

                                       Natural Population
                Natural  -----------------------------------------------
    Atom  No    Charge         Core      Valence    Rydberg      Total
 -----------------------------------------------------------------------
      C    1   -0.37304      1.99873     4.34579    0.02852     6.37304
      C    2   -0.15830      1.99904     4.13936    0.01990     6.15830
      C    3   -0.14843      1.99909     4.13180    0.01754     6.14843
      C    4   -0.19012      1.99891     4.17363    0.01757     6.19012
      C    5   -0.14843      1.99909     4.13179    0.01754     6.14843
      C    6   -0.15830      1.99904     4.13936    0.01990     6.15830
      C    7    1.11136      1.99911     2.81846    0.07108     4.88864
      F    8   -0.36107      1.99993     7.35482    0.00632     9.36107
      F    9   -0.36107      1.99993     7.35482    0.00632     9.36107
      F   10   -0.35897      1.99993     7.35264    0.00640     9.35897
      S   11    2.39751      9.99873     3.39972    0.20404    13.60249
      O   12   -0.90173      1.99988     6.87870    0.02314     8.90173
      O   13   -0.90172      1.99988     6.87869    0.02314     8.90172
      F   14   -0.50937      1.99997     7.49988    0.00952     9.50937
      H   15    0.27123      0.00000     0.72750    0.00127     0.72877
      H   16    0.25962      0.00000     0.73896    0.00143     0.74038
      H   17    0.25961      0.00000     0.73896    0.00143     0.74039
      H   18    0.27122      0.00000     0.72751    0.00127     0.72878
 =======================================================================
   * Total *   -0.00000     35.99126    77.53240    0.47634   114.00000

 Normal termination of Gaussian 16 at Mon Aug 24 17:36:30 2020.
