 Gaussian 16, Revision A.03,

 ---------------------------------
 # opt=CalcAll B3LYP/6-31G* scf=qc
 ---------------------------------

 -------------------
 Title Card Required
 -------------------
 Symbolic Z-matrix:
 Charge =  0 Multiplicity = 1

 SCF Done:  E(RB3LYP) =  -919.377304113     a.u. after    9 cycles
 SCF Done:  E(RB3LYP) =  -919.382877899     a.u. after   15 cycles
 SCF Done:  E(RB3LYP) =  -919.383257014     a.u. after   13 cycles
 SCF Done:  E(RB3LYP) =  -919.382941826     a.u. after   15 cycles
 SCF Done:  E(RB3LYP) =  -919.383181388     a.u. after    9 cycles
 SCF Done:  E(RB3LYP) =  -919.383228383     a.u. after    6 cycles
 SCF Done:  E(RB3LYP) =  -919.383253879     a.u. after    9 cycles
 SCF Done:  E(RB3LYP) =  -919.383237340     a.u. after    8 cycles
 SCF Done:  E(RB3LYP) =  -919.383265833     a.u. after   13 cycles
 SCF Done:  E(RB3LYP) =  -919.383187743     a.u. after   13 cycles
 SCF Done:  E(RB3LYP) =  -919.383290228     a.u. after    5 cycles
 SCF Done:  E(RB3LYP) =  -919.383290282     a.u. after    3 cycles
 Optimization completed.
    -- Stationary point found.
 Normal termination of Gaussian 16 at Mon Aug 24 18:44:33 2020.

 ----------------------------------------------------------------------
 # freq B3LYP/6-31G* scf=qc volume NMR pop=NPA density=current Geom=All
 Check Guess=Read
 ----------------------------------------------------------------------

 Structure from the checkpoint file:  "sulfonylfluoride_9_conf32.chk"
 -------------------
 Title Card Required
 -------------------
 Charge =  0 Multiplicity = 1

 SCF Done:  E(RB3LYP) =  -919.383290282     a.u. after    1 cycles

      1  C    Isotropic =    58.2421   Anisotropy =   108.4856

      2  C    Isotropic =    67.7374   Anisotropy =   167.8192

      3  C    Isotropic =    66.7481   Anisotropy =   152.2437

      4  C    Isotropic =    50.3705   Anisotropy =   192.7247

      5  C    Isotropic =    66.7479   Anisotropy =   152.2413

      6  C    Isotropic =    67.7374   Anisotropy =   167.8192

      7  C    Isotropic =   167.5020   Anisotropy =    34.6984

      8  S    Isotropic =   211.5356   Anisotropy =   315.7089

      9  O    Isotropic =   106.3859   Anisotropy =    74.6942

     10  O    Isotropic =   106.3858   Anisotropy =    74.6941

     11  F    Isotropic =    97.6551   Anisotropy =   365.4630

     12  H    Isotropic =    24.4865   Anisotropy =     7.7425

     13  H    Isotropic =    24.9624   Anisotropy =     6.6614

     14  H    Isotropic =    24.9624   Anisotropy =     6.6613

     15  H    Isotropic =    24.4865   Anisotropy =     7.7425

     16  H    Isotropic =    29.9930   Anisotropy =     7.3521

     17  H    Isotropic =    29.6598   Anisotropy =     8.1594

     18  H    Isotropic =    29.9931   Anisotropy =     7.3519

  Exact polarizability: 131.432  -0.000  95.463  -2.585   0.000  48.996
 Approx polarizability: 184.800  -0.000 176.227  -5.033   0.000  78.156

                      1                      2                      3
                      A                      A                      A
 Frequencies --     26.3438                43.4492                84.0440
 Red. masses --      1.1023                 4.1047                 5.3775
 Frc consts  --      0.0005                 0.0046                 0.0224
 IR Inten    --      0.3518                 0.0004                 0.3318

                      4                      5                      6
                      A                      A                      A
 Frequencies --    164.2342               195.5883               284.3275
 Red. masses --      6.3773                 5.7116                 8.2686
 Frc consts  --      0.1013                 0.1287                 0.3938
 IR Inten    --      1.2839                 0.8243                 3.1111

                      7                      8                      9
                      A                      A                      A
 Frequencies --    308.7661               342.1282               370.5058
 Red. masses --      5.4276                 5.8000                 3.8594
 Frc consts  --      0.3049                 0.4000                 0.3121
 IR Inten    --      0.0625                 3.8331                 2.6718

                     10                     11                     12
                      A                      A                      A
 Frequencies --    415.9169               456.7838               472.8929
 Red. masses --      3.0052                 6.4883                 9.3529
 Frc consts  --      0.3063                 0.7976                 1.2323
 IR Inten    --      0.0036                 1.0917                 6.4389

                     13                     14                     15
                      A                      A                      A
 Frequencies --    522.5544               546.9125               647.1552
 Red. masses --      4.0395                 8.7919                 6.9536
 Frc consts  --      0.6499                 1.5494                 1.7158
 IR Inten    --     17.3280                81.0214                 0.0369

                     16                     17                     18
                      A                      A                      A
 Frequencies --    656.6966               705.9770               778.2550
 Red. masses --      7.0804                 3.8827                10.6702
 Frc consts  --      1.7990                 1.1402                 3.8077
 IR Inten    --     67.9835                 7.6718               211.1978

                     19                     20                     21
                      A                      A                      A
 Frequencies --    824.3094               829.5456               856.4727
 Red. masses --      5.2291                 1.3926                 1.2446
 Frc consts  --      2.0934                 0.5646                 0.5379
 IR Inten    --     48.2625                25.1362                 0.0522

                     22                     23                     24
                      A                      A                      A
 Frequencies --    975.3975               979.5215              1022.8358
 Red. masses --      1.2437                 1.3474                 1.3987
 Frc consts  --      0.6971                 0.7617                 0.8621
 IR Inten    --      0.4871                 0.0232                 0.0010

                     25                     26                     27
                      A                      A                      A
 Frequencies --   1034.2128              1075.3823              1104.1519
 Red. masses --      3.7567                 1.5636                 3.4751
 Frc consts  --      2.3674                 1.0653                 2.4962
 IR Inten    --      3.1278                15.5374                17.5094

                     28                     29                     30
                      A                      A                      A
 Frequencies --   1151.4843              1181.7839              1220.7050
 Red. masses --      1.3058                10.1376                 1.1987
 Frc consts  --      1.0201                 8.3418                 1.0524
 IR Inten    --      5.3425               242.0742                 0.6152

                     31                     32                     33
                      A                      A                      A
 Frequencies --   1239.1594              1343.2119              1354.4284
 Red. masses --      3.0634                 1.2975                 8.8285
 Frc consts  --      2.7715                 1.3793                 9.5422
 IR Inten    --      0.9904                 3.5430                21.1125

                     34                     35                     36
                      A                      A                      A
 Frequencies --   1388.0940              1443.1442              1448.9137
 Red. masses --     16.0557                 1.2384                 2.5771
 Frc consts  --     18.2270                 1.5197                 3.1876
 IR Inten    --    146.8332                 0.5920                14.4602

                     37                     38                     39
                      A                      A                      A
 Frequencies --   1517.6130              1518.3125              1542.1746
 Red. masses --      1.0526                 1.1035                 2.2695
 Frc consts  --      1.4284                 1.4989                 3.1801
 IR Inten    --      6.6468                15.6533                 5.2792

                     40                     41                     42
                      A                      A                      A
 Frequencies --   1630.9256              1655.9739              3047.5932
 Red. masses --      5.9741                 5.5443                 1.0409
 Frc consts  --      9.3625                 8.9579                 5.6958
 IR Inten    --      1.3264                28.7920                16.3323

                     43                     44                     45
                      A                      A                      A
 Frequencies --   3107.4354              3134.9942              3194.7590
 Red. masses --      1.0952                 1.1033                 1.0896
 Frc consts  --      6.2311                 6.3888                 6.5525
 IR Inten    --     15.4590                12.0690                12.7883

                     46                     47                     48
                      A                      A                      A
 Frequencies --   3195.4548              3231.6932              3232.1061
 Red. masses --      1.0900                 1.0926                 1.0936
 Frc consts  --      6.5573                 6.7228                 6.7312
 IR Inten    --      6.7714                 0.2553                 1.6545

 - Thermochemistry -
 -------------------
 Temperature   298.150 Kelvin.  Pressure   1.00000 Atm.
 Atom     1 has atomic number  6 and mass  12.00000

 Molecular mass:   174.01508 amu.
 Principal axes and moments of inertia in atomic units:
                           1         2         3
     Eigenvalues --   707.536013259.271103570.23009
           X            0.99999  -0.00000  -0.00449
           Y            0.00000   1.00000   0.00000
           Z            0.00449  -0.00000   0.99999
 This molecule is an asymmetric top.
 Rotational symmetry number  1.
 Warning -- assumption of classical behavior for rotation
           may cause significant error
 Rotational temperatures (Kelvin)      0.12242     0.02657     0.02426
 Rotational constants (GHZ):           2.55074     0.55373     0.50550
 Zero-point vibrational energy     343952.2 (Joules/Mol)
                                   82.20655 (Kcal/Mol)
 Warning -- explicit consideration of  14 degrees of freedom as
           vibrations may cause significant error
 Vibrational temperatures:     37.90    62.51   120.92   236.30   281.41
          (Kelvin)            409.08   444.25   492.25   533.08   598.41
                              657.21   680.39   751.84   786.89   931.11
                              944.84  1015.74  1119.74  1186.00  1193.53
                             1232.27  1403.38  1409.31  1471.63  1488.00
                             1547.24  1588.63  1656.73  1700.32  1756.32
                             1782.87  1932.58  1948.72  1997.16  2076.36
                             2084.66  2183.51  2184.51  2218.85  2346.54
                             2382.58  4384.81  4470.91  4510.56  4596.55
                             4597.55  4649.69  4650.28

 Zero-point correction=                           0.131004 (Hartree/Particle)
 Thermal correction to Energy=                    0.141270
 Thermal correction to Enthalpy=                  0.142215
 Thermal correction to Gibbs Free Energy=         0.093352
 Sum of electronic and zero-point Energies=           -919.252286
 Sum of electronic and thermal Energies=              -919.242020
 Sum of electronic and thermal Enthalpies=            -919.241076
 Sum of electronic and thermal Free Energies=         -919.289938

                     E (Thermal)             CV                S
                      KCal/Mol        Cal/Mol-Kelvin    Cal/Mol-Kelvin
 Total                   88.648             37.415            102.839
 Electronic               0.000              0.000              0.000
 Translational            0.889              2.981             41.369
 Rotational               0.889              2.981             30.488
 Vibrational             86.871             31.453             30.982
 Vibration     1          0.593              1.985              6.087
 Vibration     2          0.595              1.980              5.095
 Vibration     3          0.601              1.960              3.794
 Vibration     4          0.623              1.886              2.500
 Vibration     5          0.636              1.846              2.174
 Vibration     6          0.683              1.703              1.507
 Vibration     7          0.698              1.657              1.369
 Vibration     8          0.721              1.591              1.202
 Vibration     9          0.743              1.533              1.078
 Vibration    10          0.779              1.436              0.906
 Vibration    11          0.815              1.346              0.776
 Vibration    12          0.830              1.310              0.729
 Vibration    13          0.878              1.200              0.604
 Vibration    14          0.902              1.146              0.551

 Optimization completed.
    -- Stationary point found.
 Normal termination of Gaussian 16 at Mon Aug 24 18:47:56 2020.
 Gaussian 16:  ES64L-G16RevA.03 25-Dec-2016

 ----------------------------------------------------------------------
 # TD(NStates=10, Root=1) B3LYP/6-31G* scf=qc volume pop=NPA density=cu
 rrent Geom=AllCheck Guess=Read
 ----------------------------------------------------------------------

 Structure from the checkpoint file:  "sulfonylfluoride_9_conf33.chk"
 -------------------
 Title Card Required
 -------------------
 Charge =  0 Multiplicity = 1

                         Standard orientation:
 ---------------------------------------------------------------------
 Center     Atomic      Atomic             Coordinates (Angstroms)
 Number     Number       Type             X           Y           Z
 ---------------------------------------------------------------------
      1          6           0       -0.130382    0.000001    0.077482
      2          6           0        0.551125   -1.218431    0.056358
      3          6           0        1.942300   -1.206159    0.007556
      4          6           0        2.658295    0.000001   -0.016694
      5          6           0        1.942300    1.206161    0.007556
      6          6           0        0.551124    1.218432    0.056359
      7          6           0        4.167472   -0.000001   -0.037168
      8         16           0       -1.902499   -0.000001    0.131327
      9          8           0       -2.389985   -1.272834    0.630415
     10          8           0       -2.389989    1.272824    0.630432
     11          9           0       -2.230096    0.000009   -1.460696
     12          1           0       -0.000475   -2.151876    0.085475
     13          1           0        2.481922   -2.149439   -0.009450
     14          1           0        2.481923    2.149440   -0.009452
     15          1           0       -0.000475    2.151878    0.085476
     16          1           0        4.561609   -0.886905   -0.543282
     17          1           0        4.571122   -0.000089    0.983929
     18          1           0        4.561612    0.886987   -0.543132
 ---------------------------------------------------------------------

 SCF Done:  E(RB3LYP) =  -919.383290282     a.u. after    1 cycles

 Excitation energies and oscillator strengths:

 Excited State   1:      Singlet-A      5.2288 eV  237.12 nm  f=0.0069  <S**2>=0.000
      44 -> 46         0.56920
      45 -> 47         0.41696
 This state for optimization and/or second-order correction.
 Total Energy, E(TD-HF/TD-DFT) =  -919.191134371
 Copying the excited state density for this state as the 1-particle RhoCI density.

 Excited State   2:      Singlet-A      5.6842 eV  218.12 nm  f=0.2166  <S**2>=0.000
      44 -> 47        -0.25178
      45 -> 46         0.65623

 Excited State   3:      Singlet-A      6.3112 eV  196.45 nm  f=0.0018  <S**2>=0.000
      42 -> 46         0.20853
      43 -> 46         0.66674

 Excited State   4:      Singlet-A      6.6231 eV  187.20 nm  f=0.0124  <S**2>=0.000
      41 -> 46         0.68334
      44 -> 47        -0.14515

 Excited State   5:      Singlet-A      6.6681 eV  185.94 nm  f=0.1346  <S**2>=0.000
      42 -> 46        -0.33801
      44 -> 46        -0.35131
      44 -> 48         0.12770
      45 -> 47         0.47286

 Excited State   6:      Singlet-A      6.7986 eV  182.37 nm  f=0.1026  <S**2>=0.000
      42 -> 46         0.57497
      43 -> 46        -0.18748
      44 -> 46        -0.19570
      45 -> 47         0.26887

 Excited State   7:      Singlet-A      6.9381 eV  178.70 nm  f=0.5709  <S**2>=0.000
      41 -> 46         0.12623
      44 -> 47         0.61654
      45 -> 46         0.23165
      45 -> 48        -0.18423

 Excited State   8:      Singlet-A      7.1335 eV  173.81 nm  f=0.0006  <S**2>=0.000
      43 -> 47         0.70407

 Excited State   9:      Singlet-A      7.3058 eV  169.71 nm  f=0.0003  <S**2>=0.000
      40 -> 46         0.64748
      41 -> 47        -0.25850

 Excited State  10:      Singlet-A      7.3811 eV  167.97 nm  f=0.0025  <S**2>=0.000
      40 -> 46         0.26846
      41 -> 47         0.63095
      44 -> 48         0.12470

 The electronic state is 1-A.
 Alpha  occ. eigenvalues --  -89.15084 -24.72798 -19.17108 -19.17108 -10.24727
 Alpha  occ. eigenvalues --  -10.23312 -10.22917 -10.22916 -10.21910 -10.21909
 Alpha  occ. eigenvalues --  -10.20734  -8.17377  -6.14057  -6.13727  -6.13605
 Alpha  occ. eigenvalues --   -1.24102  -1.11082  -1.03149  -0.89375  -0.81518
 Alpha  occ. eigenvalues --   -0.77908  -0.73661  -0.67157  -0.64181  -0.60922
 Alpha  occ. eigenvalues --   -0.57119  -0.52572  -0.50475  -0.49387  -0.48226
 Alpha  occ. eigenvalues --   -0.47163  -0.45419  -0.44462  -0.43316  -0.43307
 Alpha  occ. eigenvalues --   -0.41145  -0.39507  -0.38508  -0.37356  -0.37245
 Alpha  occ. eigenvalues --   -0.33884  -0.33795  -0.32169  -0.28268  -0.27824
 Alpha virt. eigenvalues --   -0.05654  -0.03227   0.02715   0.05869   0.08484
 Alpha virt. eigenvalues --    0.10584   0.10705   0.11675   0.12677   0.13059
 Alpha virt. eigenvalues --    0.15302   0.15742   0.18197   0.18533   0.20524

 Mulliken charges:
               1
     1  C   -0.157734
     2  C   -0.132460
     3  C   -0.166588
     4  C    0.167891
     5  C   -0.166589
     6  C   -0.132461
     7  C   -0.529199
     8  S    1.180721
     9  O   -0.485584
    10  O   -0.485584
    11  F   -0.305715
    12  H    0.196358
    13  H    0.156152
    14  H    0.156152
    15  H    0.196358
    16  H    0.165886
    17  H    0.176512
    18  H    0.165884
 Sum of Mulliken charges =  -0.00000

 Dipole moment (field-independent basis, Debye):
    X=              6.4826    Y=             -0.0000    Z=             -0.6270  Tot=              6.5128
 Quadrupole moment (field-independent basis, Debye-Ang):
   XX=            -71.3627   YY=            -66.3749   ZZ=            -72.6293
   XY=             -0.0000   XZ=              2.2411   YZ=             -0.0000

 Summary of Natural Population Analysis:

                                       Natural Population
                Natural  -----------------------------------------------
    Atom  No    Charge         Core      Valence    Rydberg      Total
 -----------------------------------------------------------------------
      C    1   -0.36253      1.99873     4.33568    0.02812     6.36253
      C    2   -0.17697      1.99904     4.15759    0.02034     6.17697
      C    3   -0.17743      1.99907     4.16200    0.01637     6.17743
      C    4   -0.05005      1.99910     4.03509    0.01586     6.05005
      C    5   -0.17743      1.99907     4.16199    0.01637     6.17743
      C    6   -0.17697      1.99904     4.15759    0.02034     6.17697
      C    7   -0.69459      1.99940     4.68727    0.00792     6.69459
      S    8    2.39282      9.99870     3.40473    0.20376    13.60718
      O    9   -0.90641      1.99988     6.88361    0.02292     8.90641
      O   10   -0.90641      1.99988     6.88360    0.02292     8.90641
      F   11   -0.51315      1.99997     7.50379    0.00939     9.51315
      H   12    0.26497      0.00000     0.73374    0.00129     0.73503
      H   13    0.24076      0.00000     0.75829    0.00095     0.75924
      H   14    0.24076      0.00000     0.75829    0.00095     0.75924
      H   15    0.26497      0.00000     0.73374    0.00129     0.73503
      H   16    0.24397      0.00000     0.75486    0.00117     0.75603
      H   17    0.24974      0.00000     0.74850    0.00177     0.75026
      H   18    0.24397      0.00000     0.75486    0.00117     0.75603
 =======================================================================
   * Total *    0.00000     29.99187    59.61522    0.39290    90.00000

 Normal termination of Gaussian 16 at Mon Aug 24 18:52:16 2020.
