 Gaussian 16, Revision A.03,

 ---------------------------------
 # opt=CalcAll B3LYP/6-31G* scf=qc
 ---------------------------------

 -------------------
 Title Card Required
 -------------------
 Symbolic Z-matrix:
 Charge =  0 Multiplicity = 1

 SCF Done:  E(RB3LYP) =  -1554.12328214     a.u. after    8 cycles
 SCF Done:  E(RB3LYP) =  -1554.12949818     a.u. after   15 cycles
 SCF Done:  E(RB3LYP) =  -1554.12959007     a.u. after   13 cycles
 SCF Done:  E(RB3LYP) =  -1554.12989673     a.u. after   13 cycles
 SCF Done:  E(RB3LYP) =  -1554.12993562     a.u. after    9 cycles
 SCF Done:  E(RB3LYP) =  -1554.12993669     a.u. after    5 cycles
 SCF Done:  E(RB3LYP) =  -1554.12993670     a.u. after    2 cycles
 Optimization completed.
    -- Stationary point found.
 Normal termination of Gaussian 16 at Mon Aug 24 18:55:18 2020.

 ----------------------------------------------------------------------
 # freq B3LYP/6-31G* scf=qc volume NMR pop=NPA density=current Geom=All
 Check Guess=Read
 ----------------------------------------------------------------------

 Structure from the checkpoint file:  "sulfonylfluoride_7_conf22.chk"
 -------------------
 Title Card Required
 -------------------
 Charge =  0 Multiplicity = 1

 SCF Done:  E(RB3LYP) =  -1554.12993670     a.u. after    1 cycles

      1  C    Isotropic =    59.8099   Anisotropy =   151.6432

      2  C    Isotropic =    65.3274   Anisotropy =   177.6474

      3  C    Isotropic =    59.7288   Anisotropy =   151.5715

      4  C    Isotropic =    67.0744   Anisotropy =   173.2432

      5  C    Isotropic =    53.7900   Anisotropy =   112.7236

      6  C    Isotropic =    67.0358   Anisotropy =   173.3634

      7  S    Isotropic =   219.5863   Anisotropy =   341.5887

      8  O    Isotropic =   104.4720   Anisotropy =    71.7503

      9  O    Isotropic =   104.5994   Anisotropy =    71.2023

     10  F    Isotropic =    96.4846   Anisotropy =   360.8135

     11  C    Isotropic =    64.7951   Anisotropy =    14.7724

     12  F    Isotropic =   271.4875   Anisotropy =   121.3808

     13  F    Isotropic =   274.4845   Anisotropy =   118.9260

     14  F    Isotropic =   248.3720   Anisotropy =   121.4129

     15  C    Isotropic =    64.7957   Anisotropy =    14.7861

     16  F    Isotropic =   271.4408   Anisotropy =   120.9294

     17  F    Isotropic =   274.4735   Anisotropy =   119.0375

     18  F    Isotropic =   248.4508   Anisotropy =   121.2888

     19  H    Isotropic =    24.2063   Anisotropy =    11.4837

     20  H    Isotropic =    24.0541   Anisotropy =    10.9706

     21  H    Isotropic =    24.0513   Anisotropy =    10.9768

  Exact polarizability: 129.843   0.089 119.544   2.720  -0.818  60.633
 Approx polarizability: 194.655   0.080 200.703   5.427  -2.560 100.109

                      1                      2                      3
                      A                      A                      A
 Frequencies --     14.4010                16.1407                27.4464
 Red. masses --     18.7995                18.8898                17.1455
 Frc consts  --      0.0023                 0.0029                 0.0076
 IR Inten    --      0.0434                 0.0194                 0.0917

                      4                      5                      6
                      A                      A                      A
 Frequencies --     72.4315               102.6773               108.9269
 Red. masses --     13.7446                15.6400                16.9599
 Frc consts  --      0.0425                 0.0971                 0.1186
 IR Inten    --      2.9884                 1.9866                 0.7603

                      7                      8                      9
                      A                      A                      A
 Frequencies --    134.7770               149.3684               233.6875
 Red. masses --      8.4995                 7.8312                12.6002
 Frc consts  --      0.0910                 0.1029                 0.4054
 IR Inten    --      0.0621                 0.0161                 0.1119

                     10                     11                     12
                      A                      A                      A
 Frequencies --    240.3874               276.2454               280.3692
 Red. masses --     13.5693                 7.4845                12.4956
 Frc consts  --      0.4620                 0.3365                 0.5787
 IR Inten    --      0.4362                 1.1897                 1.2969

                     13                     14                     15
                      A                      A                      A
 Frequencies --    292.7499               314.4114               348.4673
 Red. masses --     11.7424                 5.5419                10.7339
 Frc consts  --      0.5929                 0.3228                 0.7679
 IR Inten    --      0.8033                 0.0292                 1.5922

                     16                     17                     18
                      A                      A                      A
 Frequencies --    382.0259               411.1755               434.5371
 Red. masses --     10.6259                10.3997                10.4946
 Frc consts  --      0.9137                 1.0359                 1.1675
 IR Inten    --     10.7073                10.0055                 0.2227

                     19                     20                     21
                      A                      A                      A
 Frequencies --    453.6790               490.3856               496.4947
 Red. masses --     13.5410                10.3656                12.0070
 Frc consts  --      1.6421                 1.4687                 1.7439
 IR Inten    --      6.2084                 3.4533                 0.2329

                     22                     23                     24
                      A                      A                      A
 Frequencies --    520.4740               564.8883               579.7799
 Red. masses --     12.8907                16.7909                15.1074
 Frc consts  --      2.0574                 3.1568                 2.9920
 IR Inten    --      6.2628                16.7897               130.8979

                     25                     26                     27
                      A                      A                      A
 Frequencies --    603.6822               611.0498               675.0771
 Red. masses --      8.1970                 8.1484                 7.6917
 Frc consts  --      1.7600                 1.7926                 2.0653
 IR Inten    --     12.6071                 1.1285                 0.7376

                     28                     29                     30
                      A                      A                      A
 Frequencies --    679.9077               708.7813               714.0991
 Red. masses --     13.1391                 2.7104                15.4228
 Frc consts  --      3.5786                 0.8022                 4.6337
 IR Inten    --     41.6251                13.8486                 6.1818

                     31                     32                     33
                      A                      A                      A
 Frequencies --    781.6959               847.4507               858.3432
 Red. masses --     18.9831                12.9025                12.1414
 Frc consts  --      6.8343                 5.4595                 5.2704
 IR Inten    --    152.1439                61.2874                17.3022

                     34                     35                     36
                      A                      A                      A
 Frequencies --    920.4372               951.4723               957.0395
 Red. masses --      1.4948                 1.3753                 1.3616
 Frc consts  --      0.7461                 0.7336                 0.7348
 IR Inten    --     33.8142                 0.2858                 1.9448

                     37                     38                     39
                      A                      A                      A
 Frequencies --   1014.4754              1119.4814              1129.8564
 Red. masses --      6.3547                 9.5891                 2.0097
 Frc consts  --      3.8533                 7.0805                 1.5115
 IR Inten    --      1.0118                55.8433                44.6435

                     40                     41                     42
                      A                      A                      A
 Frequencies --   1133.8179              1184.2502              1202.7030
 Red. masses --      1.9305                 8.8897                12.9301
 Frc consts  --      1.4622                 7.3455                11.0197
 IR Inten    --     22.5058               296.3562                15.3969

                     43                     44                     45
                      A                      A                      A
 Frequencies --   1205.2044              1224.3218              1230.6176
 Red. masses --     12.7362                 8.2826                 6.5712
 Frc consts  --     10.8996                 7.3149                 5.8633
 IR Inten    --    508.8467                69.9388               212.9979

                     46                     47                     48
                      A                      A                      A
 Frequencies --   1293.3503              1309.2077              1372.5783
 Red. masses --      3.3002                 1.4445                 5.7842
 Frc consts  --      3.2526                 1.4588                 6.4205
 IR Inten    --    552.8249                43.3996                48.1735

                     49                     50                     51
                      A                      A                      A
 Frequencies --   1374.4681              1398.8126              1485.3827
 Red. masses --      6.5738                12.4690                 3.7402
 Frc consts  --      7.3171                14.3748                 4.8621
 IR Inten    --    132.6454               131.0504                 5.1179

                     52                     53                     54
                      A                      A                      A
 Frequencies --   1497.6112              1649.7308              1670.4656
 Red. masses --      4.1592                 6.1971                 5.9263
 Frc consts  --      5.4961                 9.9372                 9.7434
 IR Inten    --      1.8781                12.1652                12.5152

                     55                     56                     57
                      A                      A                      A
 Frequencies --   3239.4895              3244.3908              3244.7181
 Red. masses --      1.0915                 1.0917                 1.0920
 Frc consts  --      6.7487                 6.7704                 6.7736
 IR Inten    --      0.7646                 6.4509                 5.8191

 - Thermochemistry -
 -------------------
 Temperature   298.150 Kelvin.  Pressure   1.00000 Atm.
 Atom     1 has atomic number  6 and mass  12.00000

 Molecular mass:   295.97420 amu.
 Principal axes and moments of inertia in atomic units:
                           1         2         3
     Eigenvalues --  5113.014385817.370899905.41780
           X            0.99999   0.00141   0.00376
           Y           -0.00141   1.00000  -0.00039
           Z           -0.00376   0.00039   0.99999
 This molecule is an asymmetric top.
 Rotational symmetry number  1.
 Warning -- assumption of classical behavior for rotation
           may cause significant error
 Rotational temperatures (Kelvin)      0.01694     0.01489     0.00874
 Rotational constants (GHZ):           0.35297     0.31023     0.18220
 Zero-point vibrational energy     295955.5 (Joules/Mol)
                                   70.73506 (Kcal/Mol)
 Warning -- explicit consideration of  26 degrees of freedom as
           vibrations may cause significant error
 Vibrational temperatures:     20.72    23.22    39.49   104.21   147.73
          (Kelvin)            156.72   193.91   214.91   336.22   345.86
                              397.46   403.39   421.20   452.37   501.37
                              549.65   591.59   625.20   652.74   705.56
                              714.35   748.85   812.75   834.17   868.56
                              879.16   971.29   978.24  1019.78  1027.43
                             1124.69  1219.29  1234.96  1324.30  1368.96
                             1376.97  1459.60  1610.68  1625.61  1631.31
                             1703.87  1730.42  1734.02  1761.53  1770.58
                             1860.84  1883.66  1974.83  1977.55  2012.58
                             2137.13  2154.73  2373.59  2403.43  4660.90
                             4667.95  4668.43

 Zero-point correction=                           0.112723 (Hartree/Particle)
 Thermal correction to Energy=                    0.128460
 Thermal correction to Enthalpy=                  0.129404
 Thermal correction to Gibbs Free Energy=         0.065463
 Sum of electronic and zero-point Energies=          -1554.017213
 Sum of electronic and thermal Energies=             -1554.001477
 Sum of electronic and thermal Enthalpies=           -1554.000532
 Sum of electronic and thermal Free Energies=        -1554.064474

                     E (Thermal)             CV                S
                      KCal/Mol        Cal/Mol-Kelvin    Cal/Mol-Kelvin
 Total                   80.610             56.665            134.576
 Electronic               0.000              0.000              0.000
 Translational            0.889              2.981             42.952
 Rotational               0.889              2.981             34.043
 Vibrational             78.833             50.703             57.580
 Vibration     1          0.593              1.986              7.287
 Vibration     2          0.593              1.986              7.060
 Vibration     3          0.593              1.984              6.006
 Vibration     4          0.599              1.967              4.086
 Vibration     5          0.605              1.947              3.403
 Vibration     6          0.606              1.942              3.288
 Vibration     7          0.613              1.919              2.877
 Vibration     8          0.618              1.903              2.680
 Vibration     9          0.654              1.789              1.850
 Vibration    10          0.657              1.779              1.800
 Vibration    11          0.678              1.717              1.557
 Vibration    12          0.680              1.710              1.531
 Vibration    13          0.688              1.687              1.458
 Vibration    14          0.702              1.646              1.339
 Vibration    15          0.726              1.578              1.173
 Vibration    16          0.751              1.509              1.031
 Vibration    17          0.775              1.446              0.922
 Vibration    18          0.795              1.395              0.844
 Vibration    19          0.812              1.353              0.785
 Vibration    20          0.846              1.271              0.683
 Vibration    21          0.852              1.258              0.667
 Vibration    22          0.875              1.205              0.609
 Vibration    23          0.921              1.107              0.514
 Vibration    24          0.936              1.075              0.486
 Vibration    25          0.962              1.024              0.443
 Vibration    26          0.970              1.008              0.431

 Optimization completed.
    -- Stationary point found.
 Normal termination of Gaussian 16 at Mon Aug 24 19:03:20 2020.
 Gaussian 16:  ES64L-G16RevA.03 25-Dec-2016

 ----------------------------------------------------------------------
 # TD(NStates=10, Root=1) B3LYP/6-31G* scf=qc volume pop=NPA density=cu
 rrent Geom=AllCheck Guess=Read
 ----------------------------------------------------------------------

 Structure from the checkpoint file:  "sulfonylfluoride_7_conf23.chk"
 -------------------
 Title Card Required
 -------------------
 Charge =  0 Multiplicity = 1

                         Standard orientation:
 ---------------------------------------------------------------------
 Center     Atomic      Atomic             Coordinates (Angstroms)
 Number     Number       Type             X           Y           Z
 ---------------------------------------------------------------------
      1          6           0        0.906254   -1.205673    0.016259
      2          6           0        1.597639    0.006864    0.010885
      3          6           0        0.895570    1.212015   -0.043785
      4          6           0       -0.498265    1.215583   -0.092038
      5          6           0       -1.166189   -0.007564   -0.075427
      6          6           0       -0.487610   -1.223960   -0.026737
      7         16           0       -2.948467   -0.017005   -0.131602
      8          8           0       -3.427634    1.239553   -0.671982
      9          8           0       -3.417169   -1.308449   -0.593184
     10          9           0       -3.255360    0.030866    1.458135
     11          6           0        1.649562    2.520231    0.001105
     12          9           0        2.850731    2.414914   -0.602529
     13          9           0        0.962303    3.506597   -0.606779
     14          9           0        1.872946    2.907763    1.274348
     15          6           0        1.675742   -2.505473    0.004747
     16          9           0        2.833451   -2.394925    0.687453
     17          9           0        0.961146   -3.506324    0.555145
     18          9           0        1.986403   -2.875152   -1.255122
     19          1           0        2.681256    0.012448    0.044265
     20          1           0       -1.053235    2.144604   -0.154985
     21          1           0       -1.034920   -2.159608   -0.028210
 ---------------------------------------------------------------------

 SCF Done:  E(RB3LYP) =  -1554.12993670     a.u. after    1 cycles

 Excitation energies and oscillator strengths:

 Excited State   1:      Singlet-A      5.2170 eV  237.65 nm  f=0.0041  <S**2>=0.000
      72 -> 75        -0.44169
      73 -> 74         0.55031
 This state for optimization and/or second-order correction.
 Total Energy, E(TD-HF/TD-DFT) =  -1553.93821511
 Copying the excited state density for this state as the 1-particle RhoCI density.

 Excited State   2:      Singlet-A      5.8716 eV  211.16 nm  f=0.0432  <S**2>=0.000
      72 -> 74         0.59740
      73 -> 75         0.36055

 Excited State   3:      Singlet-A      6.0473 eV  205.02 nm  f=0.0016  <S**2>=0.000
      70 -> 74        -0.16879
      71 -> 74         0.67979

 Excited State   4:      Singlet-A      6.3835 eV  194.23 nm  f=0.0347  <S**2>=0.000
      69 -> 74         0.65402
      73 -> 75        -0.24786

 Excited State   5:      Singlet-A      6.4678 eV  191.69 nm  f=0.0095  <S**2>=0.000
      70 -> 74         0.64407
      71 -> 74         0.15487
      72 -> 75         0.16522
      73 -> 74         0.13895

 Excited State   6:      Singlet-A      6.4972 eV  190.83 nm  f=0.0025  <S**2>=0.000
      71 -> 75         0.70389

 Excited State   7:      Singlet-A      6.6617 eV  186.11 nm  f=0.2083  <S**2>=0.000
      69 -> 75         0.42700
      70 -> 74        -0.19797
      72 -> 75         0.40365
      73 -> 74         0.30302

 Excited State   8:      Singlet-A      6.7765 eV  182.96 nm  f=0.5748  <S**2>=0.000
      69 -> 74         0.22376
      70 -> 75         0.10308
      72 -> 74        -0.35033
      73 -> 75         0.52877

 Excited State   9:      Singlet-A      6.9154 eV  179.29 nm  f=0.2075  <S**2>=0.000
      69 -> 75         0.51435
      70 -> 75         0.23176
      72 -> 75        -0.29645
      73 -> 74        -0.26159

 Excited State  10:      Singlet-A      6.9396 eV  178.66 nm  f=0.0341  <S**2>=0.000
      69 -> 75        -0.18862
      70 -> 75         0.65607

 The electronic state is 1-A.
 Alpha  occ. eigenvalues --  -89.17485 -24.75263 -24.75262 -24.75215 -24.75212
 Alpha  occ. eigenvalues --  -24.75181 -24.74643 -24.74636 -19.19422 -19.19421
 Alpha  occ. eigenvalues --  -10.46364 -10.46359 -10.28124 -10.26574 -10.26569
 Alpha  occ. eigenvalues --  -10.26504 -10.26501 -10.26207  -8.19763  -6.16438
 Alpha  occ. eigenvalues --   -6.16105  -6.16010  -1.32919  -1.32914  -1.26581
 Alpha  occ. eigenvalues --   -1.24369  -1.24363  -1.23876  -1.23873  -1.13439
 Alpha  occ. eigenvalues --   -1.05537  -0.93520  -0.84416  -0.84212  -0.73744
 Alpha  occ. eigenvalues --   -0.73736  -0.72762  -0.66764  -0.65719  -0.62525
 Alpha  occ. eigenvalues --   -0.61210  -0.60680  -0.60631  -0.60341  -0.56325
 Alpha  occ. eigenvalues --   -0.56263  -0.55453  -0.53607  -0.53133  -0.50716
 Alpha  occ. eigenvalues --   -0.48431  -0.48176  -0.48080  -0.47932  -0.46433
 Alpha  occ. eigenvalues --   -0.45638  -0.45391  -0.45053  -0.44730  -0.44558
 Alpha  occ. eigenvalues --   -0.44011  -0.43834  -0.42613  -0.42324  -0.42317
 Alpha  occ. eigenvalues --   -0.41561  -0.39938  -0.39455  -0.36314  -0.36114
 Alpha  occ. eigenvalues --   -0.34420  -0.32151  -0.31908
 Alpha virt. eigenvalues --   -0.09057  -0.07830   0.00172   0.02748   0.06961
 Alpha virt. eigenvalues --    0.08524   0.09430   0.09719   0.11092   0.12565
 Alpha virt. eigenvalues --    0.13849   0.14510   0.18152   0.18491   0.18999

 Mulliken charges:
               1
     1  C   -0.020077
     2  C   -0.177276
     3  C   -0.019786
     4  C   -0.152107
     5  C   -0.176473
     6  C   -0.151461
     7  S    1.211219
     8  O   -0.468658
     9  O   -0.468670
    10  F   -0.293914
    11  C    0.804578
    12  F   -0.258386
    13  F   -0.257180
    14  F   -0.246462
    15  C    0.804508
    16  F   -0.258888
    17  F   -0.257993
    18  F   -0.245408
    19  H    0.192853
    20  H    0.219792
    21  H    0.219789
 Sum of Mulliken charges =  -0.00000

 Dipole moment (field-independent basis, Debye):
    X=              2.9079    Y=              0.0309    Z=              0.5879  Tot=              2.9669
 Quadrupole moment (field-independent basis, Debye-Ang):
   XX=           -118.1351   YY=           -108.7167   ZZ=           -104.4418
   XY=             -0.1005   XZ=             -2.7579   YZ=             -0.3409

 Summary of Natural Population Analysis:

                                       Natural Population
                Natural  -----------------------------------------------
    Atom  No    Charge         Core      Valence    Rydberg      Total
 -----------------------------------------------------------------------
      C    1   -0.10283      1.99890     4.08559    0.01834     6.10283
      C    2   -0.20507      1.99905     4.18727    0.01876     6.20507
      C    3   -0.10153      1.99890     4.08430    0.01833     6.10153
      C    4   -0.16590      1.99899     4.14656    0.02035     6.16590
      C    5   -0.33309      1.99873     4.30532    0.02903     6.33309
      C    6   -0.16418      1.99899     4.14489    0.02031     6.16418
      S    7    2.40863      9.99873     3.38951    0.20313    13.59137
      O    8   -0.89064      1.99988     6.86739    0.02337     8.89064
      O    9   -0.89060      1.99988     6.86735    0.02336     8.89060
      F   10   -0.50133      1.99997     7.49180    0.00955     9.50133
      C   11    1.11496      1.99912     2.81542    0.07049     4.88504
      F   12   -0.35433      1.99993     7.34798    0.00642     9.35433
      F   13   -0.35344      1.99993     7.34709    0.00642     9.35344
      F   14   -0.34932      1.99993     7.34300    0.00638     9.34932
      C   15    1.11502      1.99912     2.81536    0.07050     4.88498
      F   16   -0.35484      1.99993     7.34850    0.00641     9.35484
      F   17   -0.35397      1.99993     7.34763    0.00641     9.35397
      F   18   -0.34850      1.99993     7.34218    0.00639     9.34850
      H   19    0.26836      0.00000     0.72962    0.00201     0.73164
      H   20    0.28130      0.00000     0.71683    0.00188     0.71870
      H   21    0.28126      0.00000     0.71686    0.00188     0.71874
 =======================================================================
   * Total *    0.00000     43.98984   101.44043    0.56973   146.00000

 Normal termination of Gaussian 16 at Mon Aug 24 19:14:36 2020.
