 Gaussian 16, Revision A.03,

 ---------------------------------
 # opt=CalcAll B3LYP/6-31G* scf=qc
 ---------------------------------

 -------------------
 Title Card Required
 -------------------
 Symbolic Z-matrix:
 Charge =  0 Multiplicity = 1

 SCF Done:  E(RB3LYP) =  -1554.11735694     a.u. after    8 cycles
 SCF Done:  E(RB3LYP) =  -1554.12599321     a.u. after   16 cycles
 SCF Done:  E(RB3LYP) =  -1554.12715488     a.u. after   15 cycles
 SCF Done:  E(RB3LYP) =  -1554.12860312     a.u. after   17 cycles
 SCF Done:  E(RB3LYP) =  -1554.12971215     a.u. after   17 cycles
 SCF Done:  E(RB3LYP) =  -1554.12985217     a.u. after    9 cycles
 SCF Done:  E(RB3LYP) =  -1554.12984630     a.u. after   11 cycles
 SCF Done:  E(RB3LYP) =  -1554.12986426     a.u. after    7 cycles
 SCF Done:  E(RB3LYP) =  -1554.12986458     a.u. after    4 cycles
 SCF Done:  E(RB3LYP) =  -1554.12986458     a.u. after    2 cycles
 Optimization completed.
    -- Stationary point found.
 Normal termination of Gaussian 16 at Mon Aug 24 19:29:50 2020.

 ----------------------------------------------------------------------
 # freq B3LYP/6-31G* scf=qc volume NMR pop=NPA density=current Geom=All
 Check Guess=Read
 ----------------------------------------------------------------------

 Structure from the checkpoint file:  "sulfonylfluoride_7_conf62.chk"
 -------------------
 Title Card Required
 -------------------
 Charge =  0 Multiplicity = 1

 SCF Done:  E(RB3LYP) =  -1554.12986458     a.u. after    1 cycles

      1  C    Isotropic =    59.7027   Anisotropy =   151.4262

      2  C    Isotropic =    65.3702   Anisotropy =   177.5488

      3  C    Isotropic =    59.7029   Anisotropy =   151.4259

      4  C    Isotropic =    67.1369   Anisotropy =   173.2109

      5  C    Isotropic =    53.7536   Anisotropy =   112.5249

      6  C    Isotropic =    67.1364   Anisotropy =   173.2118

      7  S    Isotropic =   219.6119   Anisotropy =   341.4796

      8  O    Isotropic =   104.5380   Anisotropy =    71.3664

      9  O    Isotropic =   104.5402   Anisotropy =    71.3675

     10  F    Isotropic =    96.5402   Anisotropy =   360.7633

     11  C    Isotropic =    64.7986   Anisotropy =    14.7321

     12  F    Isotropic =   271.1721   Anisotropy =   121.5187

     13  F    Isotropic =   248.3838   Anisotropy =   121.4031

     14  F    Isotropic =   274.6927   Anisotropy =   119.2532

     15  C    Isotropic =    64.7986   Anisotropy =    14.7320

     16  F    Isotropic =   271.1788   Anisotropy =   121.5158

     17  F    Isotropic =   274.6872   Anisotropy =   119.2558

     18  F    Isotropic =   248.3831   Anisotropy =   121.4028

     19  H    Isotropic =    24.2070   Anisotropy =    11.4726

     20  H    Isotropic =    24.0539   Anisotropy =    10.9790

     21  H    Isotropic =    24.0539   Anisotropy =    10.9790

  Exact polarizability: 129.894  -0.000 119.534  -2.210  -0.000  60.568
 Approx polarizability: 194.772   0.000 200.728  -4.144  -0.001  99.937

                      1                      2                      3
                      A                      A                      A
 Frequencies --     11.9719                14.8207                27.0462
 Red. masses --     18.8768                18.8306                17.1488
 Frc consts  --      0.0016                 0.0024                 0.0074
 IR Inten    --      0.0178                 0.0546                 0.1001

                      4                      5                      6
                      A                      A                      A
 Frequencies --     72.4624               102.8749               109.1828
 Red. masses --     13.7389                15.6768                17.0489
 Frc consts  --      0.0425                 0.0978                 0.1197
 IR Inten    --      2.9829                 1.9942                 0.7417

                      7                      8                      9
                      A                      A                      A
 Frequencies --    134.7270               149.4979               233.7785
 Red. masses --      8.4398                 7.7894                12.6189
 Frc consts  --      0.0903                 0.1026                 0.4063
 IR Inten    --      0.0246                 0.0454                 0.1212

                     10                     11                     12
                      A                      A                      A
 Frequencies --    239.7984               276.0015               278.8240
 Red. masses --     14.7803                 6.4916                14.2482
 Frc consts  --      0.5008                 0.2914                 0.6526
 IR Inten    --      0.4268                 1.0680                 1.3579

                     13                     14                     15
                      A                      A                      A
 Frequencies --    294.6157               313.9666               349.9775
 Red. masses --     13.1083                 5.4287                10.8563
 Frc consts  --      0.6704                 0.3153                 0.7835
 IR Inten    --      0.6622                 0.0524                 0.5159

                     16                     17                     18
                      A                      A                      A
 Frequencies --    381.5731               410.5970               434.2155
 Red. masses --     10.5996                10.4184                10.4767
 Frc consts  --      0.9093                 1.0349                 1.1638
 IR Inten    --     11.3352                10.6574                 0.2581

                     19                     20                     21
                      A                      A                      A
 Frequencies --    453.7899               490.2529               496.4388
 Red. masses --     13.5222                10.4629                11.8802
 Frc consts  --      1.6406                 1.4816                 1.7251
 IR Inten    --      6.1855                 3.7177                 0.0005

                     22                     23                     24
                      A                      A                      A
 Frequencies --    520.3179               564.8329               579.8435
 Red. masses --     12.9045                16.7553                15.1964
 Frc consts  --      2.0584                 3.1495                 3.0103
 IR Inten    --      6.1532                16.0257               132.7013

                     25                     26                     27
                      A                      A                      A
 Frequencies --    603.2746               610.5465               673.4227
 Red. masses --      8.2013                 8.1597                 7.8101
 Frc consts  --      1.7586                 1.7921                 2.0868
 IR Inten    --     12.0494                 0.9890                 5.2525

                     28                     29                     30
                      A                      A                      A
 Frequencies --    680.0736               707.1991               714.2795
 Red. masses --     13.0200                 2.8025                13.6851
 Frc consts  --      3.5479                 0.8258                 4.1137
 IR Inten    --     38.6013                10.4583                 7.4744

                     31                     32                     33
                      A                      A                      A
 Frequencies --    781.6389               847.4466               858.2670
 Red. masses --     19.0188                12.9757                12.3214
 Frc consts  --      6.8461                 5.4904                 5.3476
 IR Inten    --    152.3161                59.3038                17.1393

                     34                     35                     36
                      A                      A                      A
 Frequencies --    920.4423               952.1605               957.8844
 Red. masses --      1.4823                 1.3734                 1.3594
 Frc consts  --      0.7399                 0.7336                 0.7349
 IR Inten    --     35.2696                 0.9310                 2.5861

                     37                     38                     39
                      A                      A                      A
 Frequencies --   1014.5799              1119.4604              1129.6334
 Red. masses --      6.3543                 9.4974                 2.0122
 Frc consts  --      3.8538                 7.0125                 1.5128
 IR Inten    --      0.8338                54.5944                42.5931

                     40                     41                     42
                      A                      A                      A
 Frequencies --   1133.4163              1184.4227              1201.4520
 Red. masses --      1.9286                 8.8433                12.8891
 Frc consts  --      1.4597                 7.3093                10.9619
 IR Inten    --     21.7970               319.9729                 8.3987

                     43                     44                     45
                      A                      A                      A
 Frequencies --   1205.4581              1224.4632              1230.8858
 Red. masses --     12.7694                 8.2584                 6.5963
 Frc consts  --     10.9326                 7.2952                 5.8883
 IR Inten    --    494.8299                66.4312               217.0041

                     46                     47                     48
                      A                      A                      A
 Frequencies --   1293.1834              1308.6397              1372.3842
 Red. masses --      3.2999                 1.4418                 5.8315
 Frc consts  --      3.2514                 1.4548                 6.4711
 IR Inten    --    551.7954                43.5855                48.1734

                     49                     50                     51
                      A                      A                      A
 Frequencies --   1374.3012              1398.8134              1485.1082
 Red. masses --      6.5718                12.5112                 3.7446
 Frc consts  --      7.3131                14.4235                 4.8660
 IR Inten    --    132.6530               131.1085                 5.1266

                     52                     53                     54
                      A                      A                      A
 Frequencies --   1497.5141              1649.7058              1670.3960
 Red. masses --      4.1643                 6.2055                 5.9348
 Frc consts  --      5.5022                 9.9504                 9.7566
 IR Inten    --      1.8825                12.0778                12.4975

                     55                     56                     57
                      A                      A                      A
 Frequencies --   3239.3374              3244.7265              3244.8128
 Red. masses --      1.0915                 1.0912                 1.0924
 Frc consts  --      6.7479                 6.7690                 6.7766
 IR Inten    --      0.7991                 7.4141                 5.0041

 - Thermochemistry -
 -------------------
 Temperature   298.150 Kelvin.  Pressure   1.00000 Atm.
 Atom     1 has atomic number  6 and mass  12.00000

 Molecular mass:   295.97420 amu.
 Principal axes and moments of inertia in atomic units:
                           1         2         3
     Eigenvalues --  5111.874565818.327789904.75331
           X            0.99999  -0.00000  -0.00352
           Y            0.00000   1.00000  -0.00000
           Z            0.00352   0.00000   0.99999
 This molecule is an asymmetric top.
 Rotational symmetry number  1.
 Warning -- assumption of classical behavior for rotation
           may cause significant error
 Rotational temperatures (Kelvin)      0.01694     0.01489     0.00874
 Rotational constants (GHZ):           0.35305     0.31018     0.18221
 Zero-point vibrational energy     295900.7 (Joules/Mol)
                                   70.72197 (Kcal/Mol)
 Warning -- explicit consideration of  26 degrees of freedom as
           vibrations may cause significant error
 Vibrational temperatures:     17.22    21.32    38.91   104.26   148.01
          (Kelvin)            157.09   193.84   215.09   336.36   345.02
                              397.10   401.17   423.89   451.73   503.54
                              549.00   590.76   624.74   652.90   705.36
                              714.26   748.62   812.67   834.27   867.98
                              878.44   968.91   978.47  1017.50  1027.69
                             1124.60  1219.29  1234.85  1324.31  1369.95
                             1378.18  1459.75  1610.65  1625.29  1630.73
                             1704.12  1728.62  1734.39  1761.73  1770.97
                             1860.60  1882.84  1974.55  1977.31  2012.58
                             2136.74  2154.59  2373.56  2403.33  4660.68
                             4668.44  4668.56

 Zero-point correction=                           0.112703 (Hartree/Particle)
 Thermal correction to Energy=                    0.128450
 Thermal correction to Enthalpy=                  0.129394
 Thermal correction to Gibbs Free Energy=         0.065185
 Sum of electronic and zero-point Energies=          -1554.017162
 Sum of electronic and thermal Energies=             -1554.001415
 Sum of electronic and thermal Enthalpies=           -1554.000470
 Sum of electronic and thermal Free Energies=        -1554.064680

                     E (Thermal)             CV                S
                      KCal/Mol        Cal/Mol-Kelvin    Cal/Mol-Kelvin
 Total                   80.604             56.674            135.141
 Electronic               0.000              0.000              0.000
 Translational            0.889              2.981             42.952
 Rotational               0.889              2.981             34.043
 Vibrational             78.826             50.712             58.145
 Vibration     1          0.593              1.987              7.653
 Vibration     2          0.593              1.986              7.229
 Vibration     3          0.593              1.984              6.035
 Vibration     4          0.599              1.967              4.085
 Vibration     5          0.605              1.947              3.399
 Vibration     6          0.606              1.942              3.283
 Vibration     7          0.613              1.919              2.877
 Vibration     8          0.618              1.903              2.679
 Vibration     9          0.654              1.789              1.850
 Vibration    10          0.657              1.780              1.804
 Vibration    11          0.678              1.718              1.558
 Vibration    12          0.679              1.713              1.541
 Vibration    13          0.689              1.684              1.447
 Vibration    14          0.702              1.647              1.341
 Vibration    15          0.727              1.575              1.166
 Vibration    16          0.751              1.509              1.033
 Vibration    17          0.775              1.447              0.925
 Vibration    18          0.795              1.396              0.845
 Vibration    19          0.812              1.353              0.784
 Vibration    20          0.846              1.272              0.683
 Vibration    21          0.852              1.258              0.667
 Vibration    22          0.875              1.205              0.609
 Vibration    23          0.921              1.107              0.514
 Vibration    24          0.936              1.075              0.486
 Vibration    25          0.962              1.025              0.444
 Vibration    26          0.970              1.010              0.432

 Optimization completed.
    -- Stationary point found.
 Normal termination of Gaussian 16 at Mon Aug 24 19:38:08 2020.
 Gaussian 16:  ES64L-G16RevA.03 25-Dec-2016

 ----------------------------------------------------------------------
 # TD(NStates=10, Root=1) B3LYP/6-31G* scf=qc volume pop=NPA density=cu
 rrent Geom=AllCheck Guess=Read
 ----------------------------------------------------------------------

 Structure from the checkpoint file:  "sulfonylfluoride_7_conf63.chk"
 -------------------
 Title Card Required
 -------------------
 Charge =  0 Multiplicity = 1

                         Standard orientation:
 ---------------------------------------------------------------------
 Center     Atomic      Atomic             Coordinates (Angstroms)
 Number     Number       Type             X           Y           Z
 ---------------------------------------------------------------------
      1          6           0        0.900771   -1.209320    0.052393
      2          6           0        1.597752   -0.000022    0.040191
      3          6           0        0.900809    1.209300    0.052384
      4          6           0       -0.493564    1.220241    0.078059
      5          6           0       -1.167005    0.000023    0.084854
      6          6           0       -0.493603   -1.220215    0.078069
      7         16           0       -2.949738    0.000054    0.129269
      8          8           0       -3.427355   -1.274537    0.627130
      9          8           0       -3.427312    1.274710    0.627005
     10          9           0       -3.245145   -0.000020   -1.463287
     11          6           0        1.662816    2.512542   -0.003201
     12          9           0        2.845933    2.416161    0.636525
     13          9           0        1.924242    2.866955   -1.278838
     14          9           0        0.964623    3.517329    0.560395
     15          6           0        1.662722   -2.512594   -0.003201
     16          9           0        2.845947   -2.416206    0.636321
     17          9           0        0.964579   -3.517302    0.560600
     18          9           0        1.923919   -2.867136   -1.278848
     19          1           0        2.681908   -0.000039    0.041239
     20          1           0       -1.044880    2.152905    0.112128
     21          1           0       -1.044950   -2.152861    0.112147
 ---------------------------------------------------------------------

 SCF Done:  E(RB3LYP) =  -1554.12986458     a.u. after    1 cycles

 Excitation energies and oscillator strengths:

 Excited State   1:      Singlet-A      5.2154 eV  237.73 nm  f=0.0041  <S**2>=0.000
      72 -> 75         0.44162
      73 -> 74         0.55036
 This state for optimization and/or second-order correction.
 Total Energy, E(TD-HF/TD-DFT) =  -1553.93820271
 Copying the excited state density for this state as the 1-particle RhoCI density.

 Excited State   2:      Singlet-A      5.8641 eV  211.43 nm  f=0.0444  <S**2>=0.000
      69 -> 74        -0.10243
      72 -> 74         0.59940
      73 -> 75        -0.35498

 Excited State   3:      Singlet-A      6.0468 eV  205.04 nm  f=0.0017  <S**2>=0.000
      70 -> 74         0.16891
      71 -> 74         0.68000

 Excited State   4:      Singlet-A      6.3881 eV  194.09 nm  f=0.0399  <S**2>=0.000
      69 -> 74         0.64503
      73 -> 75        -0.27160

 Excited State   5:      Singlet-A      6.4641 eV  191.80 nm  f=0.0125  <S**2>=0.000
      70 -> 74         0.63760
      71 -> 74        -0.15433
      72 -> 75        -0.18136
      73 -> 74         0.15085

 Excited State   6:      Singlet-A      6.4996 eV  190.76 nm  f=0.0018  <S**2>=0.000
      71 -> 75         0.70517

 Excited State   7:      Singlet-A      6.6581 eV  186.22 nm  f=0.2064  <S**2>=0.000
      69 -> 75         0.41678
      70 -> 74        -0.22177
      72 -> 75        -0.40826
      73 -> 74         0.30654

 Excited State   8:      Singlet-A      6.7783 eV  182.91 nm  f=0.5586  <S**2>=0.000
      69 -> 74         0.24374
      70 -> 75         0.13450
      72 -> 74         0.34869
      73 -> 75         0.52143

 Excited State   9:      Singlet-A      6.9301 eV  178.91 nm  f=0.2247  <S**2>=0.000
      69 -> 75         0.55226
      72 -> 75         0.30097
      73 -> 74        -0.26652

 Excited State  10:      Singlet-A      6.9436 eV  178.56 nm  f=0.0206  <S**2>=0.000
      70 -> 75         0.69061
      73 -> 75        -0.10785

 The electronic state is 1-A.
 Alpha  occ. eigenvalues --  -89.17483 -24.75266 -24.75266 -24.75208 -24.75208
 Alpha  occ. eigenvalues --  -24.75179 -24.74640 -24.74640 -19.19420 -19.19419
 Alpha  occ. eigenvalues --  -10.46363 -10.46363 -10.28121 -10.26573 -10.26570
 Alpha  occ. eigenvalues --  -10.26498 -10.26497 -10.26205  -8.19761  -6.16436
 Alpha  occ. eigenvalues --   -6.16103  -6.16008  -1.32918  -1.32916  -1.26581
 Alpha  occ. eigenvalues --   -1.24368  -1.24366  -1.23873  -1.23873  -1.13436
 Alpha  occ. eigenvalues --   -1.05535  -0.93516  -0.84411  -0.84208  -0.73742
 Alpha  occ. eigenvalues --   -0.73735  -0.72759  -0.66760  -0.65717  -0.62525
 Alpha  occ. eigenvalues --   -0.61205  -0.60686  -0.60624  -0.60343  -0.56329
 Alpha  occ. eigenvalues --   -0.56257  -0.55449  -0.53615  -0.53134  -0.50709
 Alpha  occ. eigenvalues --   -0.48316  -0.48226  -0.48131  -0.47914  -0.46451
 Alpha  occ. eigenvalues --   -0.45632  -0.45414  -0.45063  -0.44729  -0.44561
 Alpha  occ. eigenvalues --   -0.43988  -0.43828  -0.42567  -0.42321  -0.42313
 Alpha  occ. eigenvalues --   -0.41569  -0.39933  -0.39462  -0.36341  -0.36114
 Alpha  occ. eigenvalues --   -0.34418  -0.32134  -0.31904
 Alpha virt. eigenvalues --   -0.09058  -0.07820   0.00177   0.02760   0.06950
 Alpha virt. eigenvalues --    0.08535   0.09484   0.09674   0.11104   0.12566
 Alpha virt. eigenvalues --    0.13814   0.14541   0.17922   0.18717   0.18993

 Mulliken charges:
               1
     1  C   -0.019756
     2  C   -0.177519
     3  C   -0.019755
     4  C   -0.152241
     5  C   -0.176507
     6  C   -0.152239
     7  S    1.211408
     8  O   -0.468446
     9  O   -0.468447
    10  F   -0.293998
    11  C    0.804638
    12  F   -0.258158
    13  F   -0.246972
    14  F   -0.257098
    15  C    0.804639
    16  F   -0.258158
    17  F   -0.257098
    18  F   -0.246971
    19  H    0.192882
    20  H    0.219898
    21  H    0.219897
 Sum of Mulliken charges =  -0.00000

 Dipole moment (field-independent basis, Debye):
    X=              2.9033    Y=             -0.0001    Z=             -0.4260  Tot=              2.9344
 Quadrupole moment (field-independent basis, Debye-Ang):
   XX=           -118.1545   YY=           -108.6911   ZZ=           -104.4383
   XY=              0.0002   XZ=              2.9836   YZ=              0.0001

 Summary of Natural Population Analysis:

                                       Natural Population
                Natural  -----------------------------------------------
    Atom  No    Charge         Core      Valence    Rydberg      Total
 -----------------------------------------------------------------------
      C    1   -0.10215      1.99890     4.08491    0.01834     6.10215
      C    2   -0.20526      1.99905     4.18747    0.01874     6.20526
      C    3   -0.10215      1.99890     4.08491    0.01834     6.10215
      C    4   -0.16526      1.99899     4.14596    0.02032     6.16526
      C    5   -0.33326      1.99873     4.30550    0.02903     6.33326
      C    6   -0.16526      1.99899     4.14596    0.02032     6.16526
      S    7    2.40863      9.99873     3.38953    0.20312    13.59137
      O    8   -0.89034      1.99988     6.86710    0.02336     8.89034
      O    9   -0.89034      1.99988     6.86710    0.02336     8.89034
      F   10   -0.50133      1.99997     7.49180    0.00955     9.50133
      C   11    1.11495      1.99912     2.81543    0.07050     4.88505
      F   12   -0.35418      1.99993     7.34783    0.00642     9.35418
      F   13   -0.34966      1.99993     7.34335    0.00639     9.34966
      F   14   -0.35332      1.99993     7.34697    0.00642     9.35332
      C   15    1.11495      1.99912     2.81543    0.07050     4.88505
      F   16   -0.35418      1.99993     7.34783    0.00642     9.35418
      F   17   -0.35332      1.99993     7.34697    0.00642     9.35332
      F   18   -0.34966      1.99993     7.34335    0.00639     9.34966
      H   19    0.26838      0.00000     0.72960    0.00202     0.73162
      H   20    0.28139      0.00000     0.71674    0.00188     0.71861
      H   21    0.28138      0.00000     0.71674    0.00188     0.71862
 =======================================================================
   * Total *   -0.00000     43.98984   101.44047    0.56969   146.00000

 Normal termination of Gaussian 16 at Mon Aug 24 19:48:39 2020.
