 Gaussian 16, Revision A.03,

 ---------------------------------
 # opt=CalcAll B3LYP/6-31G* scf=qc
 ---------------------------------

 -------------------
 Title Card Required
 -------------------
 Symbolic Z-matrix:
 Charge =  0 Multiplicity = 1

 SCF Done:  E(RB3LYP) =  -1699.29175402     a.u. after    8 cycles
 SCF Done:  E(RB3LYP) =  -1699.30419436     a.u. after   15 cycles
 SCF Done:  E(RB3LYP) =  -1699.34153768     a.u. after   13 cycles
 SCF Done:  E(RB3LYP) =  -1699.34756076     a.u. after   15 cycles
 SCF Done:  E(RB3LYP) =  -1699.35139045     a.u. after   16 cycles
 SCF Done:  E(RB3LYP) =  -1699.35496676     a.u. after   13 cycles
 SCF Done:  E(RB3LYP) =  -1699.35602779     a.u. after   13 cycles
 SCF Done:  E(RB3LYP) =  -1699.35619312     a.u. after    9 cycles
 SCF Done:  E(RB3LYP) =  -1699.35619502     a.u. after    3 cycles
 SCF Done:  E(RB3LYP) =  -1699.35619510     a.u. after    2 cycles
 Optimization completed.
    -- Stationary point found.
 Normal termination of Gaussian 16 at Mon Aug 24 18:09:39 2020.

 ----------------------------------------------------------------------
 # freq B3LYP/6-31G* scf=qc volume NMR pop=NPA density=current Geom=All
 Check Guess=Read
 ----------------------------------------------------------------------

 Structure from the checkpoint file:  "sulfonylfluoride_4_conf122.chk"
 -------------------
 Title Card Required
 -------------------
 Charge =  0 Multiplicity = 1

 SCF Done:  E(RB3LYP) =  -1699.35619510     a.u. after    1 cycles

      1  C    Isotropic =    78.1998   Anisotropy =    14.2928

      2  C    Isotropic =    76.4931   Anisotropy =    13.1559

      3  C    Isotropic =    68.4483   Anisotropy =    11.9013

      4  F    Isotropic =   304.2975   Anisotropy =    78.4634

      5  F    Isotropic =   296.4429   Anisotropy =    66.0719

      6  S    Isotropic =   218.8606   Anisotropy =   366.2212

      7  O    Isotropic =    92.1191   Anisotropy =    54.3226

      8  O    Isotropic =    91.5774   Anisotropy =    57.0836

      9  F    Isotropic =   123.0912   Anisotropy =   370.3963

     10  F    Isotropic =   313.6745   Anisotropy =    80.0467

     11  F    Isotropic =   321.2274   Anisotropy =    74.5080

     12  F    Isotropic =   322.2499   Anisotropy =    77.0713

     13  F    Isotropic =   317.6896   Anisotropy =    70.0894

     14  C    Isotropic =    68.4875   Anisotropy =    12.3192

     15  F    Isotropic =   278.1794   Anisotropy =   106.6098

     16  F    Isotropic =   279.0364   Anisotropy =   115.6587

     17  F    Isotropic =   275.1232   Anisotropy =   106.5859

  Exact polarizability:  72.612  -1.893  65.089  -1.851  -0.021  63.937
 Approx polarizability:  91.035   0.369 103.310  -4.627  -1.544 115.797

                      1                      2                      3
                      A                      A                      A
 Frequencies --     27.5921                40.6360                55.0121
 Red. masses --     18.4877                17.5281                18.6084
 Frc consts  --      0.0083                 0.0171                 0.0332
 IR Inten    --      0.0260                 0.2128                 0.0126

                      4                      5                      6
                      A                      A                      A
 Frequencies --     74.0111               103.2208               134.4939
 Red. masses --     18.2506                18.3226                17.9320
 Frc consts  --      0.0589                 0.1150                 0.1911
 IR Inten    --      0.0116                 0.3100                 1.7635

                      7                      8                      9
                      A                      A                      A
 Frequencies --    179.8331               186.3245               206.1212
 Red. masses --     18.0653                17.3619                18.4779
 Frc consts  --      0.3442                 0.3551                 0.4625
 IR Inten    --      1.3909                 2.8703                 3.4528

                     10                     11                     12
                      A                      A                      A
 Frequencies --    229.9047               234.2373               260.3314
 Red. masses --     18.7175                18.8327                18.1903
 Frc consts  --      0.5829                 0.6088                 0.7263
 IR Inten    --      0.9513                 0.1020                 3.5100

                     13                     14                     15
                      A                      A                      A
 Frequencies --    282.7743               285.3069               308.7535
 Red. masses --     18.4880                18.2549                18.5939
 Frc consts  --      0.8710                 0.8755                 1.0443
 IR Inten    --      0.4602                 3.0161                 0.8700

                     16                     17                     18
                      A                      A                      A
 Frequencies --    327.0560               340.1690               356.8153
 Red. masses --     18.0923                18.4127                17.9211
 Frc consts  --      1.1402                 1.2553                 1.3443
 IR Inten    --      0.7086                 0.7078                 2.5004

                     19                     20                     21
                      A                      A                      A
 Frequencies --    378.9572               415.5286               454.2886
 Red. masses --     18.5049                18.2014                18.1024
 Frc consts  --      1.5657                 1.8516                 2.2011
 IR Inten    --      1.8682                 4.0351                19.5704

                     22                     23                     24
                      A                      A                      A
 Frequencies --    473.9924               513.8489               529.2657
 Red. masses --     18.1851                17.7338                17.8920
 Frc consts  --      2.4072                 2.7588                 2.9530
 IR Inten    --      5.1402                 9.9004                 5.7984

                     25                     26                     27
                      A                      A                      A
 Frequencies --    575.6632               579.2181               604.9015
 Red. masses --     17.3027                19.4427                18.4212
 Frc consts  --      3.3783                 3.8432                 3.9713
 IR Inten    --     44.9642                55.4211                23.5481

                     28                     29                     30
                      A                      A                      A
 Frequencies --    644.0401               682.1774               743.5196
 Red. masses --     17.7525                17.3499                17.0234
 Frc consts  --      4.3385                 4.7571                 5.5448
 IR Inten    --     23.7578                 4.2593                72.5245

                     31                     32                     33
                      A                      A                      A
 Frequencies --    785.5036               889.4547              1002.5550
 Red. masses --     21.1228                14.2855                13.4522
 Frc consts  --      7.6789                 6.6588                 7.9664
 IR Inten    --    206.0188                95.5961                77.0398

                     34                     35                     36
                      A                      A                      A
 Frequencies --   1147.9416              1158.4493              1196.2745
 Red. masses --     13.6693                14.0303                15.8657
 Frc consts  --     10.6129                11.0936                13.3774
 IR Inten    --     88.7301               114.8749                45.9838

                     37                     38                     39
                      A                      A                      A
 Frequencies --   1212.2035              1216.6214              1239.5722
 Red. masses --     13.0957                13.6321                13.3904
 Frc consts  --     11.3379                11.8885                12.1223
 IR Inten    --     15.1906                76.9701                29.8677

                     40                     41                     42
                      A                      A                      A
 Frequencies --   1252.4720              1272.5314              1284.3409
 Red. masses --     13.2375                13.1830                12.8192
 Frc consts  --     12.2347                12.5777                12.4586
 IR Inten    --    213.2502               379.0999               216.0279

                     43                     44                     45
                      A                      A                      A
 Frequencies --   1321.3045              1368.4614              1418.4678
 Red. masses --     12.3911                12.5024                20.7646
 Frc consts  --     12.7458                13.7946                24.6157
 IR Inten    --     40.4851                59.9773               224.7552

 - Thermochemistry -
 -------------------
 Temperature   298.150 Kelvin.  Pressure   1.00000 Atm.
 Atom     1 has atomic number  6 and mass  12.00000

 Molecular mass:   301.94593 amu.
 Principal axes and moments of inertia in atomic units:
                           1         2         3
     Eigenvalues --  2170.606795723.290326123.44002
           X            0.99998  -0.00638  -0.00207
           Y            0.00638   0.99998   0.00139
           Z            0.00206  -0.00140   1.00000
 This molecule is an asymmetric top.
 Rotational symmetry number  1.
 Warning -- assumption of classical behavior for rotation
           may cause significant error
 Rotational temperatures (Kelvin)      0.03990     0.01513     0.01414
 Rotational constants (GHZ):           0.83145     0.31533     0.29473
 Zero-point vibrational energy     167442.2 (Joules/Mol)
                                   40.01964 (Kcal/Mol)
 Warning -- explicit consideration of  27 degrees of freedom as
           vibrations may cause significant error
 Vibrational temperatures:     39.70    58.47    79.15   106.49   148.51
          (Kelvin)            193.51   258.74   268.08   296.56   330.78
                              337.02   374.56   406.85   410.49   444.23
                              470.56   489.43   513.38   545.23   597.85
                              653.62   681.97   739.31   761.50   828.25
                              833.37   870.32   926.63   981.50  1069.76
                             1130.16  1279.73  1442.45  1651.63  1666.75
                             1721.17  1744.09  1750.45  1783.47  1802.03
                             1830.89  1847.88  1901.06  1968.91  2040.86

 Zero-point correction=                           0.063775 (Hartree/Particle)
 Thermal correction to Energy=                    0.079727
 Thermal correction to Enthalpy=                  0.080671
 Thermal correction to Gibbs Free Energy=         0.018964
 Sum of electronic and zero-point Energies=          -1699.292420
 Sum of electronic and thermal Energies=             -1699.276468
 Sum of electronic and thermal Enthalpies=           -1699.275524
 Sum of electronic and thermal Free Energies=        -1699.337231

                     E (Thermal)             CV                S
                      KCal/Mol        Cal/Mol-Kelvin    Cal/Mol-Kelvin
 Total                   50.029             55.874            129.874
 Electronic               0.000              0.000              0.000
 Translational            0.889              2.981             43.012
 Rotational               0.889              2.981             32.698
 Vibrational             48.252             49.913             54.165
 Vibration     1          0.593              1.984              5.995
 Vibration     2          0.594              1.981              5.228
 Vibration     3          0.596              1.976              4.629
 Vibration     4          0.599              1.966              4.044
 Vibration     5          0.605              1.947              3.393
 Vibration     6          0.613              1.919              2.881
 Vibration     7          0.629              1.867              2.330
 Vibration     8          0.632              1.859              2.264
 Vibration     9          0.641              1.831              2.078
 Vibration    10          0.652              1.795              1.880
 Vibration    11          0.654              1.788              1.846
 Vibration    12          0.668              1.745              1.660
 Vibration    13          0.682              1.706              1.517
 Vibration    14          0.683              1.701              1.502
 Vibration    15          0.698              1.657              1.369
 Vibration    16          0.711              1.621              1.275
 Vibration    17          0.720              1.595              1.211
 Vibration    18          0.732              1.561              1.136
 Vibration    19          0.749              1.515              1.043
 Vibration    20          0.779              1.437              0.907
 Vibration    21          0.813              1.351              0.783
 Vibration    22          0.831              1.308              0.726
 Vibration    23          0.869              1.219              0.624
 Vibration    24          0.884              1.185              0.589
 Vibration    25          0.932              1.084              0.493
 Vibration    26          0.936              1.076              0.487
 Vibration    27          0.963              1.021              0.441

 Optimization completed.
    -- Stationary point found.
 Normal termination of Gaussian 16 at Mon Aug 24 18:16:05 2020.
 Gaussian 16:  ES64L-G16RevA.03 25-Dec-2016

 ----------------------------------------------------------------------
 # TD(NStates=10, Root=1) B3LYP/6-31G* scf=qc volume pop=NPA density=cu
 rrent Geom=AllCheck Guess=Read
 ----------------------------------------------------------------------

 Structure from the checkpoint file:  "sulfonylfluoride_4_conf123.chk"
 -------------------
 Title Card Required
 -------------------
 Charge =  0 Multiplicity = 1

                         Standard orientation:
 ---------------------------------------------------------------------
 Center     Atomic      Atomic             Coordinates (Angstroms)
 Number     Number       Type             X           Y           Z
 ---------------------------------------------------------------------
      1          6           0       -1.162001   -0.401318    0.209055
      2          6           0       -0.295937    0.796170   -0.258996
      3          6           0        1.176771    0.826163    0.252604
      4          9           0        1.782606    1.866385   -0.340522
      5          9           0        1.198171    0.984078    1.581994
      6         16           0        2.209060   -0.696024   -0.148355
      7          8           0        1.905429   -1.747456    0.794933
      8          8           0        2.266114   -0.875013   -1.581129
      9          9           0        3.601955   -0.027421    0.312917
     10          9           0       -0.267059    0.812681   -1.606164
     11          9           0       -0.859216    1.943775    0.191152
     12          9           0       -0.977917   -0.592451    1.533725
     13          9           0       -0.745420   -1.499929   -0.464890
     14          6           0       -2.684570   -0.233196   -0.044622
     15          9           0       -2.907440    0.124848   -1.315484
     16          9           0       -3.292341   -1.399163    0.194137
     17          9           0       -3.191435    0.697111    0.770358
 ---------------------------------------------------------------------

 SCF Done:  E(RB3LYP) =  -1699.35619510     a.u. after    1 cycles

 Excitation energies and oscillator strengths:

 Excited State   1:      Singlet-A      7.3488 eV  168.71 nm  f=0.0012  <S**2>=0.000
      71 -> 74        -0.11820
      72 -> 74         0.63259
      72 -> 77         0.12898
      73 -> 74        -0.22580
 This state for optimization and/or second-order correction.
 Total Energy, E(TD-HF/TD-DFT) =  -1699.08613077
 Copying the excited state density for this state as the 1-particle RhoCI density.

 Excited State   2:      Singlet-A      7.5542 eV  164.13 nm  f=0.0441  <S**2>=0.000
      72 -> 74         0.22199
      73 -> 74         0.63295
      73 -> 75        -0.11849

 Excited State   3:      Singlet-A      7.8770 eV  157.40 nm  f=0.0012  <S**2>=0.000
      70 -> 74        -0.31654
      71 -> 74         0.53831
      72 -> 74         0.10322
      72 -> 75         0.26605
      72 -> 76        -0.10041

 Excited State   4:      Singlet-A      8.2743 eV  149.84 nm  f=0.0061  <S**2>=0.000
      70 -> 74         0.48225
      71 -> 74         0.39755
      72 -> 75        -0.21629
      73 -> 74         0.10964

 Excited State   5:      Singlet-A      8.3028 eV  149.33 nm  f=0.0050  <S**2>=0.000
      70 -> 74         0.33052
      70 -> 75         0.10467
      71 -> 75        -0.17538
      72 -> 75         0.49220
      72 -> 76        -0.10633
      72 -> 77        -0.13359
      73 -> 76         0.22403

 Excited State   6:      Singlet-A      8.5475 eV  145.05 nm  f=0.0631  <S**2>=0.000
      70 -> 75        -0.12456
      71 -> 75         0.21925
      72 -> 75         0.10531
      73 -> 75         0.56173
      73 -> 76         0.25917

 Excited State   7:      Singlet-A      8.7109 eV  142.33 nm  f=0.0144  <S**2>=0.000
      70 -> 75        -0.31443
      71 -> 75         0.46121
      71 -> 76        -0.16316
      71 -> 77         0.13136
      71 -> 78         0.10269
      72 -> 75         0.13022
      72 -> 77        -0.18920
      73 -> 75        -0.19630

 Excited State   8:      Singlet-A      8.7805 eV  141.20 nm  f=0.0321  <S**2>=0.000
      72 -> 76         0.22967
      72 -> 77         0.21343
      73 -> 75        -0.23747
      73 -> 76         0.43263
      73 -> 77        -0.32542

 Excited State   9:      Singlet-A      8.8790 eV  139.64 nm  f=0.0079  <S**2>=0.000
      69 -> 74        -0.11606
      72 -> 75         0.24733
      72 -> 76         0.38554
      72 -> 77         0.34458
      73 -> 76        -0.30801

 Excited State  10:      Singlet-A      8.9205 eV  138.99 nm  f=0.0025  <S**2>=0.000
      69 -> 74        -0.11211
      71 -> 77        -0.15318
      72 -> 76         0.47150
      72 -> 77        -0.41808
      72 -> 78        -0.11731

 The electronic state is 1-A.
 Alpha  occ. eigenvalues --  -89.18708 -24.78487 -24.78368 -24.77447 -24.77282
 Alpha  occ. eigenvalues --  -24.77223 -24.77170 -24.76997 -24.76897 -24.76764
 Alpha  occ. eigenvalues --  -24.76725 -19.21420 -19.21375 -10.48106 -10.44805
 Alpha  occ. eigenvalues --  -10.43390 -10.42651  -8.21145  -6.17802  -6.17458
 Alpha  occ. eigenvalues --   -6.17388  -1.35432  -1.34279  -1.32065  -1.31038
 Alpha  occ. eigenvalues --   -1.28473  -1.27571  -1.26858  -1.26114  -1.25996
 Alpha  occ. eigenvalues --   -1.25427  -1.15251  -1.07448  -0.85697  -0.81511
 Alpha  occ. eigenvalues --   -0.75809  -0.71649  -0.68422  -0.65462  -0.64804
 Alpha  occ. eigenvalues --   -0.63907  -0.63119  -0.62391  -0.62132  -0.60744
 Alpha  occ. eigenvalues --   -0.60491  -0.58680  -0.56351  -0.53348  -0.52256
 Alpha  occ. eigenvalues --   -0.51128  -0.50951  -0.50018  -0.49952  -0.49321
 Alpha  occ. eigenvalues --   -0.48952  -0.48530  -0.47868  -0.47187  -0.46967
 Alpha  occ. eigenvalues --   -0.46693  -0.46154  -0.45851  -0.45248  -0.45062
 Alpha  occ. eigenvalues --   -0.44745  -0.43823  -0.43082  -0.41644  -0.38171
 Alpha  occ. eigenvalues --   -0.37891  -0.36105  -0.35921
 Alpha virt. eigenvalues --   -0.03991  -0.00413   0.00399   0.01504   0.05051
 Alpha virt. eigenvalues --    0.05977   0.11914   0.12851   0.14797   0.17158
 Alpha virt. eigenvalues --    0.18312   0.18645   0.21083   0.22741   0.24706

 Mulliken charges:
               1
     1  C    0.471166
     2  C    0.490572
     3  C    0.358307
     4  F   -0.243136
     5  F   -0.237793
     6  S    1.038002
     7  O   -0.309272
     8  O   -0.287879
     9  F   -0.275406
    10  F   -0.263049
    11  F   -0.272319
    12  F   -0.265029
    13  F   -0.267783
    14  C    0.790150
    15  F   -0.243102
    16  F   -0.244742
    17  F   -0.238689
 Sum of Mulliken charges =  -0.00000

 Dipole moment (field-independent basis, Debye):
    X=             -0.3610    Y=             -0.4030    Z=             -0.1587  Tot=              0.5638
 Quadrupole moment (field-independent basis, Debye-Ang):
   XX=            -97.9581   YY=            -95.8179   ZZ=            -95.7830
   XY=             -0.3688   XZ=             -0.6832   YZ=              0.3469

 Summary of Natural Population Analysis:

                                       Natural Population
                Natural  -----------------------------------------------
    Atom  No    Charge         Core      Valence    Rydberg      Total
 -----------------------------------------------------------------------
      C    1    0.63914      1.99882     3.30799    0.05405     5.36086
      C    2    0.63182      1.99881     3.31063    0.05874     5.36818
      C    3    0.48331      1.99910     3.44683    0.07076     5.51669
      F    4   -0.33157      1.99993     7.32196    0.00968     9.33157
      F    5   -0.32958      1.99993     7.32017    0.00948     9.32958
      S    6    2.01946      9.99905     3.77454    0.20694    13.98054
      O    7   -0.63588      1.99988     6.61204    0.02396     8.63588
      O    8   -0.61207      1.99989     6.58849    0.02370     8.61207
      F    9   -0.51774      1.99997     7.50731    0.01045     9.51774
      F   10   -0.34463      1.99993     7.33604    0.00866     9.34463
      F   11   -0.35542      1.99993     7.34622    0.00927     9.35542
      F   12   -0.34095      1.99993     7.33270    0.00831     9.34095
      F   13   -0.35151      1.99993     7.34303    0.00855     9.35151
      C   14    1.07698      1.99927     2.84865    0.07510     4.92302
      F   15   -0.34633      1.99993     7.33909    0.00731     9.34633
      F   16   -0.34265      1.99993     7.33552    0.00720     9.34265
      F   17   -0.34237      1.99993     7.33509    0.00735     9.34237
 =======================================================================
   * Total *   -0.00000     41.99417   103.40633    0.59950   146.00000

 Normal termination of Gaussian 16 at Mon Aug 24 18:24:58 2020.
