 Gaussian 16, Revision A.03,

 ---------------------------------
 # opt=CalcAll B3LYP/6-31G* scf=qc
 ---------------------------------

 -------------------
 Title Card Required
 -------------------
 Symbolic Z-matrix:
 Charge =  0 Multiplicity = 1

 SCF Done:  E(RB3LYP) =  -1699.25590523     a.u. after    8 cycles
 SCF Done:  E(RB3LYP) =  -1699.30351547     a.u. after   15 cycles
 SCF Done:  E(RB3LYP) =  -1699.31594932     a.u. after   13 cycles
 SCF Done:  E(RB3LYP) =  -1699.34635320     a.u. after   16 cycles
 SCF Done:  E(RB3LYP) =  -1699.35231502     a.u. after   15 cycles
 SCF Done:  E(RB3LYP) =  -1699.35567041     a.u. after   15 cycles
 SCF Done:  E(RB3LYP) =  -1699.35639480     a.u. after   15 cycles
 SCF Done:  E(RB3LYP) =  -1699.35629769     a.u. after   13 cycles
 SCF Done:  E(RB3LYP) =  -1699.35655017     a.u. after   13 cycles
 SCF Done:  E(RB3LYP) =  -1699.35655410     a.u. after    7 cycles
 SCF Done:  E(RB3LYP) =  -1699.35655178     a.u. after    9 cycles
 SCF Done:  E(RB3LYP) =  -1699.35656034     a.u. after    6 cycles
 SCF Done:  E(RB3LYP) =  -1699.35656035     a.u. after    2 cycles
 Optimization completed.
    -- Stationary point found.
 Normal termination of Gaussian 16 at Mon Aug 24 18:45:09 2020.

 ----------------------------------------------------------------------
 # freq B3LYP/6-31G* scf=qc volume NMR pop=NPA density=current Geom=All
 Check Guess=Read
 ----------------------------------------------------------------------

 Structure from the checkpoint file:  "sulfonylfluoride_4_conf172.chk"
 -------------------
 Title Card Required
 -------------------
 Charge =  0 Multiplicity = 1

 SCF Done:  E(RB3LYP) =  -1699.35656035     a.u. after    1 cycles

      1  C    Isotropic =    76.9104   Anisotropy =    15.5745

      2  C    Isotropic =    77.0392   Anisotropy =    13.9822

      3  C    Isotropic =    69.3395   Anisotropy =    19.1255

      4  F    Isotropic =   300.8184   Anisotropy =    64.3076

      5  F    Isotropic =   291.4342   Anisotropy =    59.1287

      6  S    Isotropic =   218.0871   Anisotropy =   377.9570

      7  O    Isotropic =    91.6885   Anisotropy =    83.3179

      8  O    Isotropic =    94.7940   Anisotropy =    74.2335

      9  F    Isotropic =   115.1264   Anisotropy =   365.3106

     10  F    Isotropic =   313.4772   Anisotropy =    75.8734

     11  F    Isotropic =   324.3590   Anisotropy =    74.2593

     12  F    Isotropic =   325.0041   Anisotropy =    86.0057

     13  F    Isotropic =   320.3135   Anisotropy =    86.8007

     14  C    Isotropic =    68.7570   Anisotropy =    13.8893

     15  F    Isotropic =   277.2919   Anisotropy =   102.7335

     16  F    Isotropic =   276.0624   Anisotropy =   104.0588

     17  F    Isotropic =   282.2436   Anisotropy =   112.4602

  Exact polarizability:  80.348  -1.735  63.491   0.878   1.888  61.066
 Approx polarizability: 100.897  -3.864 106.117   2.409   6.869 105.650

                      1                      2                      3
                      A                      A                      A
 Frequencies --     31.0462                36.4445                56.0630
 Red. masses --     17.5857                18.5029                18.1075
 Frc consts  --      0.0100                 0.0145                 0.0335
 IR Inten    --      0.0179                 0.0860                 0.1905

                      4                      5                      6
                      A                      A                      A
 Frequencies --     82.0811               110.0465               135.9849
 Red. masses --     18.3285                18.0403                18.4757
 Frc consts  --      0.0728                 0.1287                 0.2013
 IR Inten    --      0.1303                 0.9483                 0.8723

                      7                      8                      9
                      A                      A                      A
 Frequencies --    179.7570               192.6715               215.8977
 Red. masses --     17.9651                18.0503                18.4481
 Frc consts  --      0.3420                 0.3948                 0.5066
 IR Inten    --      2.3932                 1.6899                 3.4026

                     10                     11                     12
                      A                      A                      A
 Frequencies --    228.4028               233.6339               255.2481
 Red. masses --     18.3880                17.8030                18.4339
 Frc consts  --      0.5652                 0.5726                 0.7076
 IR Inten    --      1.2270                 2.4155                 3.3291

                     13                     14                     15
                      A                      A                      A
 Frequencies --    283.9539               292.5277               302.7531
 Red. masses --     18.2834                18.6689                18.5551
 Frc consts  --      0.8686                 0.9412                 1.0021
 IR Inten    --      1.0989                 0.7509                 0.2006

                     16                     17                     18
                      A                      A                      A
 Frequencies --    319.4529               345.7813               364.4988
 Red. masses --     18.1718                18.2034                18.6424
 Frc consts  --      1.0926                 1.2823                 1.4593
 IR Inten    --      1.2289                 0.7624                 0.1392

                     19                     20                     21
                      A                      A                      A
 Frequencies --    377.8772               417.0045               451.4529
 Red. masses --     18.3680                18.3058                18.0775
 Frc consts  --      1.5453                 1.8755                 2.1708
 IR Inten    --      2.0868                14.1535                 3.1848

                     22                     23                     24
                      A                      A                      A
 Frequencies --    466.4025               519.8109               538.0721
 Red. masses --     18.1470                17.8093                17.6260
 Frc consts  --      2.3258                 2.8352                 3.0067
 IR Inten    --      8.9076                33.8180                 6.8837

                     25                     26                     27
                      A                      A                      A
 Frequencies --    563.9886               578.3926               614.4835
 Red. masses --     18.8092                18.0098                18.6649
 Frc consts  --      3.5250                 3.5498                 4.1524
 IR Inten    --     79.5676                20.4191                37.8175

                     28                     29                     30
                      A                      A                      A
 Frequencies --    647.7682               681.8455               745.3553
 Red. masses --     17.4798                17.1921                17.0883
 Frc consts  --      4.3214                 4.7093                 5.5934
 IR Inten    --      5.6768                11.4487                41.5366

                     31                     32                     33
                      A                      A                      A
 Frequencies --    795.5878               855.6646              1019.7875
 Red. masses --     20.7724                14.4796                13.4656
 Frc consts  --      7.7466                 6.2462                 8.2508
 IR Inten    --    152.4962                85.9993                90.4425

                     34                     35                     36
                      A                      A                      A
 Frequencies --   1133.1299              1168.1314              1201.9337
 Red. masses --     13.9254                13.5424                16.6051
 Frc consts  --     10.5346                10.8875                14.1336
 IR Inten    --    170.9818                69.2482                57.7069

                     37                     38                     39
                      A                      A                      A
 Frequencies --   1209.1229              1220.2914              1246.1248
 Red. masses --     13.4680                13.4387                13.0059
 Frc consts  --     11.6010                11.7906                11.8991
 IR Inten    --     15.5362                75.3680                77.4172

                     40                     41                     42
                      A                      A                      A
 Frequencies --   1256.6278              1269.2881              1290.3283
 Red. masses --     13.1533                13.0847                12.5246
 Frc consts  --     12.2376                12.4204                12.2861
 IR Inten    --    337.3699               355.2033               120.2507

                     43                     44                     45
                      A                      A                      A
 Frequencies --   1307.4918              1366.2114              1416.9422
 Red. masses --     12.7540                12.5119                20.7288
 Frc consts  --     12.8462                13.7597                24.5205
 IR Inten    --      9.9768                57.9976               218.4819

 - Thermochemistry -
 -------------------
 Temperature   298.150 Kelvin.  Pressure   1.00000 Atm.
 Atom     1 has atomic number  6 and mass  12.00000

 Molecular mass:   301.94593 amu.
 Principal axes and moments of inertia in atomic units:
                           1         2         3
     Eigenvalues --  2103.264155804.969306130.06888
           X            0.99999  -0.00253   0.00269
           Y            0.00250   0.99995   0.00961
           Z           -0.00272  -0.00960   0.99995
 This molecule is an asymmetric top.
 Rotational symmetry number  1.
 Warning -- assumption of classical behavior for rotation
           may cause significant error
 Rotational temperatures (Kelvin)      0.04118     0.01492     0.01413
 Rotational constants (GHZ):           0.85807     0.31090     0.29441
 Zero-point vibrational energy     167628.9 (Joules/Mol)
                                   40.06427 (Kcal/Mol)
 Warning -- explicit consideration of  27 degrees of freedom as
           vibrations may cause significant error
 Vibrational temperatures:     44.67    52.44    80.66   118.10   158.33
          (Kelvin)            195.65   258.63   277.21   310.63   328.62
                              336.15   367.25   408.55   420.88   435.59
                              459.62   497.50   524.43   543.68   599.98
                              649.54   671.05   747.89   774.17   811.45
                              832.18   884.10   931.99   981.02  1072.40
                             1144.67  1231.11  1467.25  1630.32  1680.68
                             1729.31  1739.66  1755.73  1792.90  1808.01
                             1826.22  1856.49  1881.19  1965.67  2038.66

 Zero-point correction=                           0.063846 (Hartree/Particle)
 Thermal correction to Energy=                    0.079742
 Thermal correction to Enthalpy=                  0.080686
 Thermal correction to Gibbs Free Energy=         0.019240
 Sum of electronic and zero-point Energies=          -1699.292714
 Sum of electronic and thermal Energies=             -1699.276818
 Sum of electronic and thermal Enthalpies=           -1699.275874
 Sum of electronic and thermal Free Energies=        -1699.337320

                     E (Thermal)             CV                S
                      KCal/Mol        Cal/Mol-Kelvin    Cal/Mol-Kelvin
 Total                   50.039             55.836            129.324
 Electronic               0.000              0.000              0.000
 Translational            0.889              2.981             43.012
 Rotational               0.889              2.981             32.681
 Vibrational             48.262             49.874             53.631
 Vibration     1          0.594              1.983              5.761
 Vibration     2          0.594              1.982              5.444
 Vibration     3          0.596              1.975              4.591
 Vibration     4          0.600              1.961              3.840
 Vibration     5          0.606              1.941              3.268
 Vibration     6          0.614              1.917              2.860
 Vibration     7          0.629              1.867              2.331
 Vibration     8          0.635              1.850              2.202
 Vibration     9          0.645              1.817              1.993
 Vibration    10          0.651              1.798              1.891
 Vibration    11          0.654              1.789              1.851
 Vibration    12          0.666              1.754              1.694
 Vibration    13          0.682              1.703              1.510
 Vibration    14          0.688              1.688              1.459
 Vibration    15          0.694              1.668              1.402
 Vibration    16          0.705              1.636              1.313
 Vibration    17          0.724              1.584              1.185
 Vibration    18          0.738              1.545              1.103
 Vibration    19          0.748              1.517              1.048
 Vibration    20          0.780              1.433              0.902
 Vibration    21          0.810              1.358              0.791
 Vibration    22          0.824              1.325              0.748
 Vibration    23          0.875              1.206              0.610
 Vibration    24          0.893              1.166              0.569
 Vibration    25          0.920              1.109              0.516
 Vibration    26          0.935              1.078              0.488
 Vibration    27          0.974              1.001              0.425

 Optimization completed.
    -- Stationary point found.
 Normal termination of Gaussian 16 at Mon Aug 24 18:52:03 2020.
 Gaussian 16:  ES64L-G16RevA.03 25-Dec-2016

 ----------------------------------------------------------------------
 # TD(NStates=10, Root=1) B3LYP/6-31G* scf=qc volume pop=NPA density=cu
 rrent Geom=AllCheck Guess=Read
 ----------------------------------------------------------------------

 Structure from the checkpoint file:  "sulfonylfluoride_4_conf173.chk"
 -------------------
 Title Card Required
 -------------------
 Charge =  0 Multiplicity = 1

                         Standard orientation:
 ---------------------------------------------------------------------
 Center     Atomic      Atomic             Coordinates (Angstroms)
 Number     Number       Type             X           Y           Z
 ---------------------------------------------------------------------
      1          6           0       -1.622662    0.663948    0.247596
      2          6           0       -0.135816    0.719405   -0.226076
      3          6           0        0.765379   -0.461981    0.220322
      4          9           0        0.566375   -0.744225    1.517877
      5          9           0        0.502298   -1.537614   -0.532562
      6         16           0        2.624663   -0.139542    0.080638
      7          8           0        3.025075    0.840096    1.063838
      8          8           0        3.275667   -1.417298   -0.097660
      9          9           0        2.598429    0.590263   -1.356346
     10          9           0       -0.121355    0.772568   -1.573898
     11          9           0        0.380849    1.864067    0.274636
     12          9           0       -2.236839    1.724717   -0.322265
     13          9           0       -1.651463    0.802530    1.590514
     14          6           0       -2.432269   -0.602518   -0.123424
     15          9           0       -2.335004   -0.855250   -1.433866
     16          9           0       -1.971275   -1.659266    0.562406
     17          9           0       -3.715162   -0.409216    0.192378
 ---------------------------------------------------------------------

 SCF Done:  E(RB3LYP) =  -1699.35656035     a.u. after    1 cycles

 Excitation energies and oscillator strengths:

 Excited State   1:      Singlet-A      7.3994 eV  167.56 nm  f=0.0059  <S**2>=0.000
      72 -> 74         0.53419
      72 -> 75        -0.17518
      73 -> 74        -0.40715
 This state for optimization and/or second-order correction.
 Total Energy, E(TD-HF/TD-DFT) =  -1699.08463833
 Copying the excited state density for this state as the 1-particle RhoCI density.

 Excited State   2:      Singlet-A      7.5320 eV  164.61 nm  f=0.0043  <S**2>=0.000
      71 -> 74         0.14760
      71 -> 75         0.17722
      72 -> 75        -0.43350
      73 -> 74         0.14299
      73 -> 75         0.46694

 Excited State   3:      Singlet-A      7.6890 eV  161.25 nm  f=0.0714  <S**2>=0.000
      72 -> 74         0.31408
      72 -> 75         0.39754
      73 -> 74         0.30416
      73 -> 75         0.33465

 Excited State   4:      Singlet-A      7.8542 eV  157.86 nm  f=0.0574  <S**2>=0.000
      71 -> 74         0.50742
      71 -> 75        -0.13782
      72 -> 74         0.19722
      72 -> 75        -0.12450
      73 -> 74         0.26243
      73 -> 75        -0.28439

 Excited State   5:      Singlet-A      7.9191 eV  156.56 nm  f=0.1429  <S**2>=0.000
      71 -> 74         0.40888
      71 -> 75        -0.19753
      72 -> 74        -0.21798
      72 -> 75         0.20379
      73 -> 74        -0.34692
      73 -> 75         0.22882

 Excited State   6:      Singlet-A      8.3780 eV  147.99 nm  f=0.0134  <S**2>=0.000
      71 -> 74         0.17586
      71 -> 75         0.56574
      72 -> 75         0.16272
      72 -> 76        -0.15180
      72 -> 77        -0.10264
      73 -> 76        -0.14700

 Excited State   7:      Singlet-A      8.6663 eV  143.06 nm  f=0.0099  <S**2>=0.000
      70 -> 74         0.66064
      73 -> 76        -0.13065

 Excited State   8:      Singlet-A      8.6943 eV  142.60 nm  f=0.0208  <S**2>=0.000
      70 -> 74         0.14559
      70 -> 75        -0.14370
      71 -> 75         0.11339
      73 -> 76         0.62601
      73 -> 78         0.10558

 Excited State   9:      Singlet-A      8.9617 eV  138.35 nm  f=0.0083  <S**2>=0.000
      68 -> 75         0.11245
      69 -> 74         0.44735
      69 -> 75         0.11465
      70 -> 75         0.24865
      72 -> 76        -0.38383
      73 -> 76         0.10267

 Excited State  10:      Singlet-A      9.0398 eV  137.15 nm  f=0.0015  <S**2>=0.000
      68 -> 75         0.12461
      69 -> 74        -0.28081
      70 -> 75         0.57571
      72 -> 76         0.10514
      73 -> 75        -0.10984
      73 -> 76         0.14276

 The electronic state is 1-A.
 Alpha  occ. eigenvalues --  -89.18709 -24.78883 -24.78880 -24.77554 -24.77375
 Alpha  occ. eigenvalues --  -24.77302 -24.77301 -24.77203 -24.77039 -24.76837
 Alpha  occ. eigenvalues --  -24.76741 -19.21401 -19.21389 -10.48336 -10.45019
 Alpha  occ. eigenvalues --  -10.43433 -10.42639  -8.21154  -6.17813  -6.17464
 Alpha  occ. eigenvalues --   -6.17394  -1.35731  -1.34350  -1.32561  -1.30691
 Alpha  occ. eigenvalues --   -1.28815  -1.28064  -1.26862  -1.26465  -1.26142
 Alpha  occ. eigenvalues --   -1.25388  -1.15234  -1.07380  -0.85862  -0.81323
 Alpha  occ. eigenvalues --   -0.76069  -0.71097  -0.69034  -0.66156  -0.64739
 Alpha  occ. eigenvalues --   -0.64244  -0.63275  -0.63056  -0.62304  -0.60702
 Alpha  occ. eigenvalues --   -0.60150  -0.58937  -0.56052  -0.53411  -0.52284
 Alpha  occ. eigenvalues --   -0.51798  -0.51316  -0.50302  -0.50108  -0.49550
 Alpha  occ. eigenvalues --   -0.49066  -0.48742  -0.48072  -0.47509  -0.47212
 Alpha  occ. eigenvalues --   -0.46343  -0.46207  -0.45906  -0.45387  -0.45303
 Alpha  occ. eigenvalues --   -0.44686  -0.44177  -0.42473  -0.41653  -0.39042
 Alpha  occ. eigenvalues --   -0.37883  -0.36153  -0.35615
 Alpha virt. eigenvalues --   -0.03917  -0.02649   0.00814   0.04025   0.04627
 Alpha virt. eigenvalues --    0.05950   0.10113   0.12735   0.15787   0.16960
 Alpha virt. eigenvalues --    0.17906   0.19245   0.20041   0.22681   0.25136

 Mulliken charges:
               1
     1  C    0.466810
     2  C    0.510650
     3  C    0.304728
     4  F   -0.256335
     5  F   -0.252114
     6  S    1.082842
     7  O   -0.265314
     8  O   -0.270691
     9  F   -0.258527
    10  F   -0.274192
    11  F   -0.277869
    12  F   -0.275621
    13  F   -0.272616
    14  C    0.776513
    15  F   -0.244373
    16  F   -0.248004
    17  F   -0.245887
 Sum of Mulliken charges =  -0.00000

 Dipole moment (field-independent basis, Debye):
    X=              2.2292    Y=             -0.2690    Z=             -0.0056  Tot=              2.2454
 Quadrupole moment (field-independent basis, Debye-Ang):
   XX=            -91.0679   YY=            -96.8946   ZZ=            -95.7313
   XY=              1.1842   XZ=             -0.1075   YZ=             -0.1906

 Summary of Natural Population Analysis:

                                       Natural Population
                Natural  -----------------------------------------------
    Atom  No    Charge         Core      Valence    Rydberg      Total
 -----------------------------------------------------------------------
      C    1    0.63096      1.99886     3.31429    0.05590     5.36904
      C    2    0.63520      1.99884     3.30770    0.05826     5.36480
      C    3    0.44042      1.99911     3.49423    0.06625     5.55958
      F    4   -0.35066      1.99993     7.34127    0.00945     9.35066
      F    5   -0.34090      1.99993     7.33157    0.00940     9.34090
      S    6    2.06642      9.99913     3.69128    0.24317    13.93358
      O    7   -0.60449      1.99989     6.58083    0.02377     8.60449
      O    8   -0.63742      1.99989     6.61309    0.02444     8.63742
      F    9   -0.45619      1.99997     7.44595    0.01026     9.45619
      F   10   -0.35045      1.99993     7.34217    0.00835     9.35045
      F   11   -0.35923      1.99993     7.35054    0.00875     9.35923
      F   12   -0.35252      1.99994     7.34382    0.00876     9.35252
      F   13   -0.34788      1.99993     7.33963    0.00832     9.34788
      C   14    1.07022      1.99923     2.85640    0.07415     4.92978
      F   15   -0.34790      1.99993     7.34071    0.00727     9.34790
      F   16   -0.35141      1.99993     7.34398    0.00750     9.35141
      F   17   -0.34416      1.99993     7.33698    0.00725     9.34416
 =======================================================================
   * Total *    0.00000     41.99429   103.37444    0.63127   146.00000

 Normal termination of Gaussian 16 at Mon Aug 24 19:01:31 2020.
