 Gaussian 16, Revision A.03,

 ---------------------------------
 # opt=CalcAll B3LYP/6-31G* scf=qc
 ---------------------------------

 -------------------
 Title Card Required
 -------------------
 Symbolic Z-matrix:
 Charge =  0 Multiplicity = 1

 SCF Done:  E(RB3LYP) =  -919.379662348     a.u. after    8 cycles
 SCF Done:  E(RB3LYP) =  -919.383159853     a.u. after   13 cycles
 SCF Done:  E(RB3LYP) =  -919.383276697     a.u. after    9 cycles
 SCF Done:  E(RB3LYP) =  -919.383278421     a.u. after    7 cycles
 SCF Done:  E(RB3LYP) =  -919.383278686     a.u. after    3 cycles
 Optimization completed.
    -- Stationary point found.
 Normal termination of Gaussian 16 at Mon Aug 24 18:10:02 2020.

 ----------------------------------------------------------------------
 # freq B3LYP/6-31G* scf=qc volume NMR pop=NPA density=current Geom=All
 Check Guess=Read
 ----------------------------------------------------------------------

 Structure from the checkpoint file:  "sulfonylfluoride_9_conf22.chk"
 -------------------
 Title Card Required
 -------------------
 Charge =  0 Multiplicity = 1

 SCF Done:  E(RB3LYP) =  -919.383278686     a.u. after    1 cycles

      1  C    Isotropic =    58.1509   Anisotropy =   108.3239

      2  C    Isotropic =    67.7775   Anisotropy =   167.7758

      3  C    Isotropic =    66.7707   Anisotropy =   151.9758

      4  C    Isotropic =    50.3551   Anisotropy =   192.6780

      5  C    Isotropic =    66.7727   Anisotropy =   151.9977

      6  C    Isotropic =    67.7779   Anisotropy =   167.7755

      7  C    Isotropic =   167.4719   Anisotropy =    34.7667

      8  S    Isotropic =   211.5872   Anisotropy =   315.6752

      9  O    Isotropic =   106.3207   Anisotropy =    74.8878

     10  O    Isotropic =   106.3311   Anisotropy =    74.8900

     11  F    Isotropic =    97.6236   Anisotropy =   365.4411

     12  H    Isotropic =    24.4867   Anisotropy =     7.7437

     13  H    Isotropic =    24.9642   Anisotropy =     6.6591

     14  H    Isotropic =    24.9640   Anisotropy =     6.6603

     15  H    Isotropic =    24.4865   Anisotropy =     7.7439

     16  H    Isotropic =    29.9905   Anisotropy =     7.3587

     17  H    Isotropic =    29.9891   Anisotropy =     7.3601

     18  H    Isotropic =    29.6607   Anisotropy =     8.1448

  Exact polarizability: 131.349  -0.001  95.454  -3.498   0.001  49.045
 Approx polarizability: 184.676  -0.003 176.233  -6.186   0.003  78.206

                      1                      2                      3
                      A                      A                      A
 Frequencies --     24.9336                41.1195                84.0545
 Red. masses --      1.0238                 5.7491                 5.3732
 Frc consts  --      0.0004                 0.0057                 0.0224
 IR Inten    --      0.2510                 0.0734                 0.3109

                      4                      5                      6
                      A                      A                      A
 Frequencies --    164.3451               196.2183               282.6490
 Red. masses --      6.3816                 5.7232                 8.0842
 Frc consts  --      0.1016                 0.1298                 0.3805
 IR Inten    --      1.2772                 0.7459                 3.3463

                      7                      8                      9
                      A                      A                      A
 Frequencies --    308.6877               343.8055               370.9620
 Red. masses --      5.4360                 5.9244                 3.8567
 Frc consts  --      0.3052                 0.4126                 0.3127
 IR Inten    --      0.0671                 3.3454                 2.6745

                     10                     11                     12
                      A                      A                      A
 Frequencies --    415.7028               456.3290               473.0024
 Red. masses --      3.0140                 6.4251                 9.2838
 Frc consts  --      0.3069                 0.7883                 1.2238
 IR Inten    --      0.0467                 1.4399                 6.4045

                     13                     14                     15
                      A                      A                      A
 Frequencies --    522.5757               546.4533               647.2262
 Red. masses --      3.9969                 9.0760                 6.9529
 Frc consts  --      0.6431                 1.5968                 1.7160
 IR Inten    --     19.7929                78.5158                 0.0358

                     16                     17                     18
                      A                      A                      A
 Frequencies --    657.2556               705.5100               779.3840
 Red. masses --      7.1399                 3.8728                12.5109
 Frc consts  --      1.8172                 1.1358                 4.4776
 IR Inten    --     71.8486                 3.4796               212.2907

                     19                     20                     21
                      A                      A                      A
 Frequencies --    820.8271               831.5376               856.3099
 Red. masses --      2.7438                 1.7875                 1.2446
 Frc consts  --      1.0892                 0.7282                 0.5377
 IR Inten    --     61.1607                10.1429                 0.1646

                     22                     23                     24
                      A                      A                      A
 Frequencies --    975.4386               979.5172              1022.7896
 Red. masses --      1.2433                 1.3467                 1.3987
 Frc consts  --      0.6970                 0.7613                 0.8621
 IR Inten    --      0.5812                 0.0408                 0.0004

                     25                     26                     27
                      A                      A                      A
 Frequencies --   1034.1718              1075.4707              1104.1931
 Red. masses --      3.7702                 1.5616                 3.4743
 Frc consts  --      2.3758                 1.0642                 2.4958
 IR Inten    --      1.6938                15.4067                19.7756

                     28                     29                     30
                      A                      A                      A
 Frequencies --   1151.5332              1181.7947              1220.8328
 Red. masses --      1.3065                10.1568                 1.1986
 Frc consts  --      1.0207                 8.3578                 1.0526
 IR Inten    --      5.3319               242.7527                 0.6859

                     31                     32                     33
                      A                      A                      A
 Frequencies --   1239.1266              1343.2494              1354.3912
 Red. masses --      3.0624                 1.2975                 8.8243
 Frc consts  --      2.7704                 1.3794                 9.5372
 IR Inten    --      0.4109                 3.5503                21.1206

                     34                     35                     36
                      A                      A                      A
 Frequencies --   1388.1283              1443.2315              1448.8443
 Red. masses --     16.0385                 1.2385                 2.5761
 Frc consts  --     18.2085                 1.5199                 3.1861
 IR Inten    --    146.7804                 0.5948                14.4552

                     37                     38                     39
                      A                      A                      A
 Frequencies --   1517.7854              1518.2394              1542.1823
 Red. masses --      1.0525                 1.1031                 2.2690
 Frc consts  --      1.4286                 1.4982                 3.1795
 IR Inten    --      6.7437                15.6645                 5.2256

                     40                     41                     42
                      A                      A                      A
 Frequencies --   1630.8429              1655.9862              3047.5715
 Red. masses --      5.9794                 5.5462                 1.0409
 Frc consts  --      9.3698                 8.9611                 5.6960
 IR Inten    --      1.3319                28.8271                16.3305

                     43                     44                     45
                      A                      A                      A
 Frequencies --   3107.4711              3135.0808              3194.9368
 Red. masses --      1.0952                 1.1033                 1.0896
 Frc consts  --      6.2309                 6.3891                 6.5532
 IR Inten    --     15.4409                12.0299                12.8190

                     46                     47                     48
                      A                      A                      A
 Frequencies --   3195.6329              3231.7493              3232.1651
 Red. masses --      1.0900                 1.0926                 1.0936
 Frc consts  --      6.5580                 6.7231                 6.7314
 IR Inten    --      6.7523                 0.2513                 1.6617

 - Thermochemistry -
 -------------------
 Temperature   298.150 Kelvin.  Pressure   1.00000 Atm.
 Atom     1 has atomic number  6 and mass  12.00000

 Molecular mass:   174.01508 amu.
 Principal axes and moments of inertia in atomic units:
                           1         2         3
     Eigenvalues --   707.969153259.147393569.63216
           X            0.99999   0.00000  -0.00520
           Y           -0.00000   1.00000   0.00000
           Z            0.00520  -0.00000   0.99999
 This molecule is an asymmetric top.
 Rotational symmetry number  1.
 Warning -- assumption of classical behavior for rotation
           may cause significant error
 Rotational temperatures (Kelvin)      0.12234     0.02658     0.02426
 Rotational constants (GHZ):           2.54918     0.55375     0.50558
 Zero-point vibrational energy     343933.8 (Joules/Mol)
                                   82.20216 (Kcal/Mol)
 Warning -- explicit consideration of  14 degrees of freedom as
           vibrations may cause significant error
 Vibrational temperatures:     35.87    59.16   120.94   236.46   282.31
          (Kelvin)            406.67   444.13   494.66   533.73   598.10
                              656.56   680.54   751.87   786.22   931.21
                              945.64  1015.07  1121.36  1180.99  1196.40
                             1232.04  1403.44  1409.31  1471.57  1487.94
                             1547.36  1588.69  1656.80  1700.34  1756.51
                             1782.83  1932.64  1948.67  1997.21  2076.49
                             2084.56  2183.75  2184.41  2218.86  2346.42
                             2382.59  4384.78  4470.96  4510.68  4596.80
                             4597.80  4649.77  4650.36

 Zero-point correction=                           0.130997 (Hartree/Particle)
 Thermal correction to Energy=                    0.141271
 Thermal correction to Enthalpy=                  0.142215
 Thermal correction to Gibbs Free Energy=         0.093251
 Sum of electronic and zero-point Energies=           -919.252281
 Sum of electronic and thermal Energies=              -919.242008
 Sum of electronic and thermal Enthalpies=            -919.241064
 Sum of electronic and thermal Free Energies=         -919.290028

                     E (Thermal)             CV                S
                      KCal/Mol        Cal/Mol-Kelvin    Cal/Mol-Kelvin
 Total                   88.649             37.416            103.054
 Electronic               0.000              0.000              0.000
 Translational            0.889              2.981             41.369
 Rotational               0.889              2.981             30.489
 Vibrational             86.871             31.455             31.196
 Vibration     1          0.593              1.985              6.196
 Vibration     2          0.594              1.981              5.204
 Vibration     3          0.601              1.960              3.794
 Vibration     4          0.623              1.886              2.499
 Vibration     5          0.636              1.845              2.168
 Vibration     6          0.682              1.706              1.518
 Vibration     7          0.698              1.657              1.369
 Vibration     8          0.723              1.588              1.194
 Vibration     9          0.743              1.532              1.076
 Vibration    10          0.779              1.436              0.907
 Vibration    11          0.815              1.347              0.777
 Vibration    12          0.830              1.310              0.729
 Vibration    13          0.878              1.200              0.604
 Vibration    14          0.902              1.147              0.552

 Optimization completed.
    -- Stationary point found.
 Normal termination of Gaussian 16 at Mon Aug 24 18:13:00 2020.
 Gaussian 16:  ES64L-G16RevA.03 25-Dec-2016

 ----------------------------------------------------------------------
 # TD(NStates=10, Root=1) B3LYP/6-31G* scf=qc volume pop=NPA density=cu
 rrent Geom=AllCheck Guess=Read
 ----------------------------------------------------------------------

 Structure from the checkpoint file:  "sulfonylfluoride_9_conf23.chk"
 -------------------
 Title Card Required
 -------------------
 Charge =  0 Multiplicity = 1

                         Standard orientation:
 ---------------------------------------------------------------------
 Center     Atomic      Atomic             Coordinates (Angstroms)
 Number     Number       Type             X           Y           Z
 ---------------------------------------------------------------------
      1          6           0        0.130656    0.000010   -0.079464
      2          6           0       -0.551061   -1.218392   -0.065569
      3          6           0       -1.942624   -1.206126   -0.028602
      4          6           0       -2.658710   -0.000011   -0.003933
      5          6           0       -1.942640    1.206117   -0.028601
      6          6           0       -0.551081    1.218405   -0.065566
      7          6           0       -4.166392   -0.000006    0.066263
      8         16           0        1.903022    0.000028   -0.126656
      9          8           0        2.392778   -1.272710   -0.623741
     10          8           0        2.392773    1.272950   -0.623276
     11          9           0        2.223421   -0.000266    1.466831
     12          1           0        0.000504   -2.151739   -0.098156
     13          1           0       -2.482480   -2.149402   -0.024789
     14          1           0       -2.482510    2.149386   -0.024785
     15          1           0        0.000478    2.151755   -0.098151
     16          1           0       -4.590424   -0.887307   -0.414316
     17          1           0       -4.590469    0.886502   -0.415749
     18          1           0       -4.507524    0.000844    1.109924
 ---------------------------------------------------------------------

 SCF Done:  E(RB3LYP) =  -919.383278686     a.u. after    1 cycles

 Excitation energies and oscillator strengths:

 Excited State   1:      Singlet-A      5.2275 eV  237.18 nm  f=0.0069  <S**2>=0.000
      44 -> 46         0.56956
      45 -> 47         0.41647
 This state for optimization and/or second-order correction.
 Total Energy, E(TD-HF/TD-DFT) =  -919.191172434
 Copying the excited state density for this state as the 1-particle RhoCI density.

 Excited State   2:      Singlet-A      5.6790 eV  218.32 nm  f=0.2163  <S**2>=0.000
      44 -> 47        -0.24963
      45 -> 46         0.65679

 Excited State   3:      Singlet-A      6.3109 eV  196.46 nm  f=0.0018  <S**2>=0.000
      42 -> 46         0.20821
      43 -> 46         0.66691

 Excited State   4:      Singlet-A      6.6230 eV  187.20 nm  f=0.0126  <S**2>=0.000
      41 -> 46         0.68063
      44 -> 47        -0.15861

 Excited State   5:      Singlet-A      6.6646 eV  186.03 nm  f=0.1329  <S**2>=0.000
      42 -> 46        -0.33962
      44 -> 46        -0.35013
      44 -> 48        -0.13113
      45 -> 47         0.47213

 Excited State   6:      Singlet-A      6.7981 eV  182.38 nm  f=0.1035  <S**2>=0.000
      42 -> 46         0.57417
      43 -> 46        -0.18474
      44 -> 46        -0.19691
      45 -> 47         0.27104

 Excited State   7:      Singlet-A      6.9372 eV  178.72 nm  f=0.5628  <S**2>=0.000
      41 -> 46         0.13912
      44 -> 47         0.61370
      45 -> 46         0.22863
      45 -> 48         0.19025

 Excited State   8:      Singlet-A      7.1344 eV  173.78 nm  f=0.0002  <S**2>=0.000
      43 -> 47         0.70434

 Excited State   9:      Singlet-A      7.3057 eV  169.71 nm  f=0.0020  <S**2>=0.000
      40 -> 46         0.65247
      41 -> 47        -0.24549

 Excited State  10:      Singlet-A      7.3823 eV  167.95 nm  f=0.0012  <S**2>=0.000
      40 -> 46         0.25597
      41 -> 47         0.64002

 The electronic state is 1-A.
 Alpha  occ. eigenvalues --  -89.15086 -24.72800 -19.17110 -19.17109 -10.24728
 Alpha  occ. eigenvalues --  -10.23312 -10.22915 -10.22914 -10.21909 -10.21908
 Alpha  occ. eigenvalues --  -10.20734  -8.17379  -6.14058  -6.13729  -6.13606
 Alpha  occ. eigenvalues --   -1.24103  -1.11083  -1.03150  -0.89374  -0.81517
 Alpha  occ. eigenvalues --   -0.77906  -0.73662  -0.67159  -0.64179  -0.60920
 Alpha  occ. eigenvalues --   -0.57119  -0.52573  -0.50475  -0.49386  -0.48227
 Alpha  occ. eigenvalues --   -0.47168  -0.45417  -0.44445  -0.43335  -0.43309
 Alpha  occ. eigenvalues --   -0.41141  -0.39500  -0.38511  -0.37348  -0.37244
 Alpha  occ. eigenvalues --   -0.33900  -0.33796  -0.32170  -0.28266  -0.27820
 Alpha virt. eigenvalues --   -0.05660  -0.03225   0.02853   0.05479   0.08965
 Alpha virt. eigenvalues --    0.10631   0.10663   0.11712   0.12255   0.12955
 Alpha virt. eigenvalues --    0.15313   0.16252   0.17922   0.18534   0.20524

 Mulliken charges:
               1
     1  C   -0.157834
     2  C   -0.132476
     3  C   -0.166649
     4  C    0.168287
     5  C   -0.166644
     6  C   -0.132475
     7  C   -0.529253
     8  S    1.180850
     9  O   -0.485517
    10  O   -0.485518
    11  F   -0.305955
    12  H    0.196444
    13  H    0.156118
    14  H    0.156116
    15  H    0.196453
    16  H    0.165900
    17  H    0.165913
    18  H    0.176240
 Sum of Mulliken charges =   0.00000

 Dipole moment (field-independent basis, Debye):
    X=             -6.4812    Y=             -0.0000    Z=              0.6847  Tot=              6.5172
 Quadrupole moment (field-independent basis, Debye-Ang):
   XX=            -71.4225   YY=            -66.3744   ZZ=            -72.6094
   XY=             -0.0006   XZ=              1.9033   YZ=             -0.0006

 Summary of Natural Population Analysis:

                                       Natural Population
                Natural  -----------------------------------------------
    Atom  No    Charge         Core      Valence    Rydberg      Total
 -----------------------------------------------------------------------
      C    1   -0.36269      1.99873     4.33586    0.02811     6.36269
      C    2   -0.17679      1.99904     4.15742    0.02033     6.17679
      C    3   -0.17718      1.99907     4.16176    0.01636     6.17718
      C    4   -0.05025      1.99910     4.03529    0.01586     6.05025
      C    5   -0.17722      1.99907     4.16179    0.01636     6.17722
      C    6   -0.17676      1.99904     4.15739    0.02033     6.17676
      C    7   -0.69444      1.99940     4.68712    0.00792     6.69444
      S    8    2.39272      9.99870     3.40489    0.20369    13.60728
      O    9   -0.90633      1.99988     6.88352    0.02292     8.90633
      O   10   -0.90634      1.99988     6.88353    0.02292     8.90634
      F   11   -0.51343      1.99997     7.50407    0.00939     9.51343
      H   12    0.26497      0.00000     0.73373    0.00130     0.73503
      H   13    0.24070      0.00000     0.75833    0.00098     0.75930
      H   14    0.24070      0.00000     0.75833    0.00098     0.75930
      H   15    0.26497      0.00000     0.73373    0.00130     0.73503
      H   16    0.24386      0.00000     0.75495    0.00119     0.75614
      H   17    0.24387      0.00000     0.75494    0.00119     0.75613
      H   18    0.24964      0.00000     0.74860    0.00176     0.75036
 =======================================================================
   * Total *    0.00000     29.99187    59.61524    0.39289    90.00000

 Normal termination of Gaussian 16 at Mon Aug 24 18:17:01 2020.
