 Gaussian 16, Revision A.03,

 ---------------------------------
 # opt=CalcAll B3LYP/6-31G* scf=qc
 ---------------------------------

 -------------------
 Title Card Required
 -------------------
 Symbolic Z-matrix:
 Charge =  0 Multiplicity = 1

 SCF Done:  E(RB3LYP) =  -896.086714036     a.u. after    8 cycles
 SCF Done:  E(RB3LYP) =  -896.092881489     a.u. after   15 cycles
 SCF Done:  E(RB3LYP) =  -896.095126855     a.u. after   17 cycles
 SCF Done:  E(RB3LYP) =  -896.095114641     a.u. after   17 cycles
 SCF Done:  E(RB3LYP) =  -896.095670359     a.u. after    7 cycles
 SCF Done:  E(RB3LYP) =  -896.095676161     a.u. after    4 cycles
 Optimization completed.
    -- Stationary point found.
 Normal termination of Gaussian 16 at Mon Aug 24 17:28:23 2020.

 ----------------------------------------------------------------------
 # freq B3LYP/6-31G* scf=qc volume NMR pop=NPA density=current Geom=All
 Check Guess=Read
 ----------------------------------------------------------------------

 Structure from the checkpoint file:  "sulfonylfluoride_3_conf122.chk"
 -------------------
 Title Card Required
 -------------------
 Charge =  0 Multiplicity = 1

 SCF Done:  E(RB3LYP) =  -896.095676161     a.u. after    1 cycles

      1  C    Isotropic =    59.4461   Anisotropy =   186.4638

      2  C    Isotropic =    68.7967   Anisotropy =   169.5514

      3  C    Isotropic =    46.3338   Anisotropy =   158.2630

      4  N    Isotropic =   -54.4636   Anisotropy =   516.7507

      5  C    Isotropic =    36.9810   Anisotropy =   102.9653

      6  C    Isotropic =    72.2033   Anisotropy =   166.2723

      7  S    Isotropic =   218.1842   Anisotropy =   333.1268

      8  O    Isotropic =   111.1423   Anisotropy =    72.1967

      9  O    Isotropic =    98.0511   Anisotropy =    68.9875

     10  F    Isotropic =   110.9707   Anisotropy =   355.5072

     11  H    Isotropic =    24.5090   Anisotropy =     4.9474

     12  H    Isotropic =    24.9260   Anisotropy =     4.8203

     13  H    Isotropic =    23.4903   Anisotropy =     5.2436

     14  H    Isotropic =    24.4342   Anisotropy =     8.2971

  Exact polarizability: 103.116   1.628  81.434  -2.572   1.442  39.811
 Approx polarizability: 152.786   1.384 154.164  -4.852   5.073  66.590

                      1                      2                      3
                      A                      A                      A
 Frequencies --     40.0234               114.3617               176.0318
 Red. masses --      6.7435                 7.1525                 8.2369
 Frc consts  --      0.0064                 0.0551                 0.1504
 IR Inten    --      0.8698                 0.0735                 0.3549

                      4                      5                      6
                      A                      A                      A
 Frequencies --    264.9310               298.2248               333.3442
 Red. masses --      7.2508                 9.3251                10.8037
 Frc consts  --      0.2998                 0.4886                 0.7073
 IR Inten    --      1.2684                 4.0715                 0.4091

                      7                      8                      9
                      A                      A                      A
 Frequencies --    411.0194               435.8818               468.2285
 Red. masses --      3.6163                 8.1190                13.5168
 Frc consts  --      0.3599                 0.9088                 1.7460
 IR Inten    --      0.5384                 9.9115                10.2106

                     10                     11                     12
                      A                      A                      A
 Frequencies --    523.5141               581.6712               625.1980
 Red. masses --      4.3522                15.9963                 7.4237
 Frc consts  --      0.7028                 3.1888                 1.7096
 IR Inten    --     10.3718               131.7070                 4.6394

                     13                     14                     15
                      A                      A                      A
 Frequencies --    735.5274               747.3245               786.7906
 Red. masses --      8.1405                 3.9148                 1.6016
 Frc consts  --      2.5948                 1.2882                 0.5842
 IR Inten    --     25.0673                 3.6198               116.1557

                     16                     17                     18
                      A                      A                      A
 Frequencies --    805.7642               925.2791               987.0492
 Red. masses --      5.5460                 1.2615                 1.4023
 Frc consts  --      2.1215                 0.6363                 0.8049
 IR Inten    --    117.8044                 0.2757                 0.1403

                     19                     20                     21
                      A                      A                      A
 Frequencies --   1009.1233              1020.8049              1067.8842
 Red. masses --      7.3336                 1.3112                 2.7602
 Frc consts  --      4.4000                 0.8050                 1.8546
 IR Inten    --      9.0675                 0.0387                 3.3930

                     22                     23                     24
                      A                      A                      A
 Frequencies --   1108.2335              1138.9695              1185.7804
 Red. masses --      2.1185                 2.3400                 1.1756
 Frc consts  --      1.5330                 1.7885                 0.9739
 IR Inten    --     18.9104                30.3655                 6.3392

                     25                     26                     27
                      A                      A                      A
 Frequencies --   1195.3423              1320.5411              1339.8398
 Red. masses --      7.0740                 2.3679                 2.4359
 Frc consts  --      5.9552                 2.4329                 2.5764
 IR Inten    --    126.9383                 3.6979                 2.3297

                     28                     29                     30
                      A                      A                      A
 Frequencies --   1390.6535              1471.6208              1501.9694
 Red. masses --     18.3098                 2.1321                 2.0986
 Frc consts  --     20.8627                 2.7205                 2.7893
 IR Inten    --    179.2608                32.4353                10.5998

                     31                     32                     33
                      A                      A                      A
 Frequencies --   1624.2765              1638.2335              3196.1047
 Red. masses --      5.1287                 6.0480                 1.0893
 Frc consts  --      7.9722                 9.5635                 6.5560
 IR Inten    --     11.5889                14.9488                 8.4434

                     34                     35                     36
                      A                      A                      A
 Frequencies --   3209.7940              3225.1726              3249.4497
 Red. masses --      1.0902                 1.0966                 1.0941
 Frc consts  --      6.6177                 6.7206                 6.8065
 IR Inten    --      8.1003                 9.6124                 1.8309

 - Thermochemistry -
 -------------------
 Temperature   298.150 Kelvin.  Pressure   1.00000 Atm.
 Atom     1 has atomic number  6 and mass  12.00000

 Molecular mass:   160.99468 amu.
 Principal axes and moments of inertia in atomic units:
                           1         2         3
     Eigenvalues --   687.136152143.570882446.93424
           X            0.99999   0.00069  -0.00507
           Y           -0.00065   0.99997   0.00814
           Z            0.00508  -0.00813   0.99995
 This molecule is an asymmetric top.
 Rotational symmetry number  1.
 Warning -- assumption of classical behavior for rotation
           may cause significant error
 Rotational temperatures (Kelvin)      0.12605     0.04041     0.03540
 Rotational constants (GHZ):           2.62647     0.84193     0.73755
 Zero-point vibrational energy     240174.0 (Joules/Mol)
                                   57.40297 (Kcal/Mol)
 Warning -- explicit consideration of  11 degrees of freedom as
           vibrations may cause significant error
 Vibrational temperatures:     57.58   164.54   253.27   381.18   429.08
          (Kelvin)            479.61   591.37   627.14   673.68   753.22
                              836.90   899.52  1058.26  1075.23  1132.02
                             1159.31  1331.27  1420.14  1451.90  1468.71
                             1536.45  1594.50  1638.72  1706.07  1719.83
                             1899.96  1927.73  2000.84  2117.33  2161.00
                             2336.97  2357.05  4598.48  4618.18  4640.30
                             4675.23

 Zero-point correction=                           0.091477 (Hartree/Particle)
 Thermal correction to Energy=                    0.099752
 Thermal correction to Enthalpy=                  0.100696
 Thermal correction to Gibbs Free Energy=         0.057153
 Sum of electronic and zero-point Energies=           -896.004199
 Sum of electronic and thermal Energies=              -895.995925
 Sum of electronic and thermal Enthalpies=            -895.994980
 Sum of electronic and thermal Free Energies=         -896.038523

                     E (Thermal)             CV                S
                      KCal/Mol        Cal/Mol-Kelvin    Cal/Mol-Kelvin
 Total                   62.595             30.461             91.643
 Electronic               0.000              0.000              0.000
 Translational            0.889              2.981             41.137
 Rotational               0.889              2.981             29.667
 Vibrational             60.818             24.500             20.838
 Vibration     1          0.594              1.981              5.258
 Vibration     2          0.607              1.938              3.193
 Vibration     3          0.628              1.872              2.370
 Vibration     4          0.671              1.737              1.629
 Vibration     5          0.691              1.677              1.427
 Vibration     6          0.715              1.609              1.244
 Vibration     7          0.775              1.446              0.923
 Vibration     8          0.796              1.392              0.840
 Vibration     9          0.825              1.321              0.743
 Vibration    10          0.878              1.198              0.602
 Vibration    11          0.938              1.071              0.482

 Optimization completed.
    -- Stationary point found.
 Normal termination of Gaussian 16 at Mon Aug 24 17:31:34 2020.
 Gaussian 16:  ES64L-G16RevA.03 25-Dec-2016

 ----------------------------------------------------------------------
 # TD(NStates=10, Root=1) B3LYP/6-31G* scf=qc volume pop=NPA density=cu
 rrent Geom=AllCheck Guess=Read
 ----------------------------------------------------------------------

 Structure from the checkpoint file:  "sulfonylfluoride_3_conf123.chk"
 -------------------
 Title Card Required
 -------------------
 Charge =  0 Multiplicity = 1

                         Standard orientation:
 ---------------------------------------------------------------------
 Center     Atomic      Atomic             Coordinates (Angstroms)
 Number     Number       Type             X           Y           Z
 ---------------------------------------------------------------------
      1          6           0        2.415428   -1.163736   -0.002458
      2          6           0        3.026187    0.088681   -0.015258
      3          6           0        2.221511    1.232460    0.003103
      4          7           0        0.886628    1.182615    0.037521
      5          6           0        0.336611   -0.023301    0.046862
      6          6           0        1.021158   -1.235547    0.027062
      7         16           0       -1.468122   -0.050034    0.124046
      8          8           0       -1.919142   -1.430294    0.077218
      9          8           0       -1.963987    0.896745    1.100392
     10          9           0       -1.782376    0.581904   -1.332779
     11          1           0        3.009925   -2.072413   -0.015908
     12          1           0        4.107079    0.185237   -0.038782
     13          1           0        2.662497    2.226324   -0.008385
     14          1           0        0.485085   -2.176994    0.033947
 ---------------------------------------------------------------------

 SCF Done:  E(RB3LYP) =  -896.095676161     a.u. after    1 cycles

 Excitation energies and oscillator strengths:

 Excited State   1:      Singlet-A      4.7731 eV  259.75 nm  f=0.0032  <S**2>=0.000
      41 -> 42         0.70293
 This state for optimization and/or second-order correction.
 Total Energy, E(TD-HF/TD-DFT) =  -895.920266159
 Copying the excited state density for this state as the 1-particle RhoCI density.

 Excited State   2:      Singlet-A      5.2421 eV  236.52 nm  f=0.0010  <S**2>=0.000
      41 -> 43         0.70231

 Excited State   3:      Singlet-A      5.4906 eV  225.81 nm  f=0.0552  <S**2>=0.000
      38 -> 42        -0.11037
      38 -> 43         0.16402
      39 -> 42        -0.17662
      39 -> 43         0.23148
      40 -> 42         0.55836
      40 -> 43         0.23860

 Excited State   4:      Singlet-A      5.9342 eV  208.93 nm  f=0.0177  <S**2>=0.000
      37 -> 42        -0.14225
      38 -> 42        -0.34540
      39 -> 42         0.50696
      40 -> 42         0.19784
      40 -> 43        -0.22506

 Excited State   5:      Singlet-A      6.1732 eV  200.84 nm  f=0.0581  <S**2>=0.000
      38 -> 42         0.53015
      40 -> 42         0.24960
      40 -> 43        -0.35388

 Excited State   6:      Singlet-A      6.4560 eV  192.04 nm  f=0.0031  <S**2>=0.000
      36 -> 42         0.33534
      37 -> 42         0.54699
      38 -> 43         0.11070
      40 -> 43        -0.23006

 Excited State   7:      Singlet-A      6.4791 eV  191.36 nm  f=0.0004  <S**2>=0.000
      36 -> 42         0.59736
      37 -> 42        -0.34943

 Excited State   8:      Singlet-A      6.5801 eV  188.42 nm  f=0.0022  <S**2>=0.000
      38 -> 43         0.55352
      39 -> 42        -0.14868
      39 -> 43        -0.37980

 Excited State   9:      Singlet-A      6.9543 eV  178.28 nm  f=0.0472  <S**2>=0.000
      36 -> 43         0.33255
      37 -> 43         0.50017
      38 -> 43        -0.22026
      39 -> 42        -0.17758
      39 -> 43        -0.12101
      40 -> 43        -0.15298

 Excited State  10:      Singlet-A      7.0978 eV  174.68 nm  f=0.0037  <S**2>=0.000
      36 -> 43         0.60198
      37 -> 43        -0.34272

 The electronic state is 1-A.
 Alpha  occ. eigenvalues --  -89.15274 -24.73414 -19.17584 -19.17446 -14.37616
 Alpha  occ. eigenvalues --  -10.28666 -10.26252 -10.24749 -10.24415 -10.23930
 Alpha  occ. eigenvalues --   -8.17618  -6.14297  -6.13957  -6.13841  -1.24735
 Alpha  occ. eigenvalues --   -1.11495  -1.03479  -0.99027  -0.84440  -0.81506
 Alpha  occ. eigenvalues --   -0.71438  -0.67320  -0.64081  -0.58189  -0.54217
 Alpha  occ. eigenvalues --   -0.52317  -0.51745  -0.49344  -0.48701  -0.45208
 Alpha  occ. eigenvalues --   -0.44458  -0.43554  -0.43192  -0.41312  -0.38224
 Alpha  occ. eigenvalues --   -0.35070  -0.34324  -0.32587  -0.32385  -0.30268
 Alpha  occ. eigenvalues --   -0.29660
 Alpha virt. eigenvalues --   -0.07328  -0.05508   0.01944   0.05334   0.07665
 Alpha virt. eigenvalues --    0.09893   0.10179   0.12154   0.13827   0.14957
 Alpha virt. eigenvalues --    0.15858   0.22507   0.25782   0.27119   0.29760

 Mulliken charges:
               1
     1  C   -0.130360
     2  C   -0.184017
     3  C    0.077465
     4  N   -0.330125
     5  C   -0.032050
     6  C   -0.103612
     7  S    1.198271
     8  O   -0.474624
     9  O   -0.455203
    10  F   -0.297361
    11  H    0.161368
    12  H    0.162448
    13  H    0.198505
    14  H    0.209295
 Sum of Mulliken charges =  -0.00000

 Dipole moment (field-independent basis, Debye):
    X=              5.5305    Y=              0.3548    Z=             -0.6555  Tot=              5.5805
 Quadrupole moment (field-independent basis, Debye-Ang):
   XX=            -59.3876   YY=            -58.5882   ZZ=            -66.5061
   XY=              0.9269   XZ=              1.6483   YZ=             -1.1228

 Summary of Natural Population Analysis:

                                       Natural Population
                Natural  -----------------------------------------------
    Atom  No    Charge         Core      Valence    Rydberg      Total
 -----------------------------------------------------------------------
      C    1   -0.24796      1.99910     4.23184    0.01703     6.24796
      C    2   -0.35568      1.99908     4.34004    0.01656     6.35568
      C    3    0.01917      1.99913     3.96190    0.01981     5.98083
      N    4   -0.14222      1.99884     5.12578    0.01761     7.14222
      C    5   -0.24608      1.99877     4.21030    0.03701     6.24608
      C    6   -0.21067      1.99895     4.19615    0.01557     6.21067
      S    7    2.38600      9.99882     3.41121    0.20397    13.61400
      O    8   -0.89253      1.99988     6.86982    0.02283     8.89253
      O    9   -0.88221      1.99988     6.85848    0.02384     8.88221
      F   10   -0.50324      1.99997     7.49351    0.00976     9.50324
      H   11    0.25795      0.00000     0.74143    0.00062     0.74205
      H   12    0.26345      0.00000     0.73605    0.00049     0.73655
      H   13    0.26527      0.00000     0.73418    0.00055     0.73473
      H   14    0.28874      0.00000     0.71028    0.00098     0.71126
 =======================================================================
   * Total *    0.00000     27.99241    53.62097    0.38661    82.00000

 Normal termination of Gaussian 16 at Mon Aug 24 17:35:49 2020.
