 Gaussian 16, Revision A.03,

 ---------------------------------
 # opt=CalcAll B3LYP/6-31G* scf=qc
 ---------------------------------

 -------------------
 Title Card Required
 -------------------
 Symbolic Z-matrix:
 Charge =  0 Multiplicity = 1

 SCF Done:  E(RB3LYP) =  -1699.33037401     a.u. after    8 cycles
 SCF Done:  E(RB3LYP) =  -1699.35150851     a.u. after   15 cycles
 SCF Done:  E(RB3LYP) =  -1699.35568903     a.u. after   13 cycles
 SCF Done:  E(RB3LYP) =  -1699.35820296     a.u. after   15 cycles
 SCF Done:  E(RB3LYP) =  -1699.35842615     a.u. after    9 cycles
 SCF Done:  E(RB3LYP) =  -1699.35843115     a.u. after    3 cycles
 SCF Done:  E(RB3LYP) =  -1699.35843120     a.u. after    2 cycles
 Optimization completed.
    -- Stationary point found.
 Normal termination of Gaussian 16 at Mon Aug 24 17:49:51 2020.

 ----------------------------------------------------------------------
 # freq B3LYP/6-31G* scf=qc volume NMR pop=NPA density=current Geom=All
 Check Guess=Read
 ----------------------------------------------------------------------

 Structure from the checkpoint file:  "sulfonylfluoride_4_conf202.chk"
 -------------------
 Title Card Required
 -------------------
 Charge =  0 Multiplicity = 1

 SCF Done:  E(RB3LYP) =  -1699.35843120     a.u. after    1 cycles

      1  C    Isotropic =    77.0611   Anisotropy =    13.5760

      2  C    Isotropic =    77.5478   Anisotropy =    16.3349

      3  C    Isotropic =    68.4315   Anisotropy =    16.6230

      4  F    Isotropic =   301.2696   Anisotropy =    65.4502

      5  F    Isotropic =   293.2230   Anisotropy =    67.1226

      6  S    Isotropic =   219.1792   Anisotropy =   372.7913

      7  O    Isotropic =    92.5911   Anisotropy =    61.0955

      8  O    Isotropic =    88.6795   Anisotropy =    57.0871

      9  F    Isotropic =   120.1115   Anisotropy =   370.3244

     10  F    Isotropic =   317.1539   Anisotropy =    77.7934

     11  F    Isotropic =   315.4155   Anisotropy =    68.1555

     12  F    Isotropic =   318.8786   Anisotropy =    70.2703

     13  F    Isotropic =   325.5135   Anisotropy =    69.1402

     14  C    Isotropic =    68.6041   Anisotropy =    12.6546

     15  F    Isotropic =   278.7298   Anisotropy =   107.2022

     16  F    Isotropic =   275.0212   Anisotropy =   105.6544

     17  F    Isotropic =   279.1970   Anisotropy =   116.0330

  Exact polarizability:  78.143   3.182  61.865  -1.393   0.774  64.356
 Approx polarizability:  93.514   3.551 100.453  -2.749   3.570 116.907

                      1                      2                      3
                      A                      A                      A
 Frequencies --     32.1926                43.7663                49.6265
 Red. masses --     17.9852                18.0241                17.9901
 Frc consts  --      0.0110                 0.0203                 0.0261
 IR Inten    --      0.1322                 0.0383                 0.1608

                      4                      5                      6
                      A                      A                      A
 Frequencies --     59.4377                90.7180               157.8885
 Red. masses --     18.5771                18.0684                17.9521
 Frc consts  --      0.0387                 0.0876                 0.2637
 IR Inten    --      0.1636                 0.6125                 0.2597

                      7                      8                      9
                      A                      A                      A
 Frequencies --    169.1164               185.0669               207.7760
 Red. masses --     18.3552                17.2375                18.1355
 Frc consts  --      0.3093                 0.3478                 0.4613
 IR Inten    --      0.0893                 3.5818                 1.8765

                     10                     11                     12
                      A                      A                      A
 Frequencies --    223.6254               236.0310               240.5394
 Red. masses --     19.2158                18.5687                18.8038
 Frc consts  --      0.5662                 0.6095                 0.6410
 IR Inten    --      1.7389                 0.0236                 0.7424

                     13                     14                     15
                      A                      A                      A
 Frequencies --    286.4302               290.2236               296.4912
 Red. masses --     18.2662                18.2293                18.3539
 Frc consts  --      0.8829                 0.9047                 0.9506
 IR Inten    --      6.8481                 0.4875                 0.2179

                     16                     17                     18
                      A                      A                      A
 Frequencies --    332.1464               354.5988               362.9274
 Red. masses --     18.4049                18.1201                18.4305
 Frc consts  --      1.1963                 1.3424                 1.4303
 IR Inten    --      0.6605                 1.6641                 0.8843

                     19                     20                     21
                      A                      A                      A
 Frequencies --    373.9967               424.8468               448.5618
 Red. masses --     18.7430                18.4453                17.9245
 Frc consts  --      1.5446                 1.9616                 2.1249
 IR Inten    --      0.1438                 4.4149                22.2842

                     22                     23                     24
                      A                      A                      A
 Frequencies --    476.6113               522.4093               546.5853
 Red. masses --     18.0665                17.7936                17.7754
 Frc consts  --      2.4180                 2.8611                 3.1289
 IR Inten    --      6.3900                32.8906                21.9135

                     25                     26                     27
                      A                      A                      A
 Frequencies --    562.4797               578.1634               606.9555
 Red. masses --     18.0594                18.2083                18.2207
 Frc consts  --      3.3664                 3.5861                 3.9548
 IR Inten    --     29.9976                90.1091                10.9593

                     28                     29                     30
                      A                      A                      A
 Frequencies --    647.1585               693.6475               730.9701
 Red. masses --     17.9070                16.4048                16.8300
 Frc consts  --      4.4187                 4.6505                 5.2983
 IR Inten    --     10.5584               102.1247                84.0704

                     31                     32                     33
                      A                      A                      A
 Frequencies --    767.9865               835.2064              1039.8637
 Red. masses --     18.2379                17.5147                13.0409
 Frc consts  --      6.3377                 7.1985                 8.3083
 IR Inten    --     80.9281                20.6545                57.1460

                     34                     35                     36
                      A                      A                      A
 Frequencies --   1140.7371              1171.7830              1192.7068
 Red. masses --     13.7955                13.8315                16.9859
 Frc consts  --     10.5769                11.1896                14.2366
 IR Inten    --     33.7565               172.0183               159.3022

                     37                     38                     39
                      A                      A                      A
 Frequencies --   1217.2396              1218.6040              1247.7556
 Red. masses --     13.1636                13.2428                13.2236
 Frc consts  --     11.4915                11.5866                12.1300
 IR Inten    --      5.1359                59.4462               185.4422

                     40                     41                     42
                      A                      A                      A
 Frequencies --   1253.3786              1272.9808              1284.8348
 Red. masses --     13.1548                13.1428                12.6859
 Frc consts  --     12.1759                12.5482                12.3386
 IR Inten    --    116.1407               355.2523               135.5997

                     43                     44                     45
                      A                      A                      A
 Frequencies --   1313.0904              1372.4854              1417.6558
 Red. masses --     12.5468                12.5249                20.7709
 Frc consts  --     12.7460                13.9008                24.5950
 IR Inten    --     49.7808                69.3167               226.1259

 - Thermochemistry -
 -------------------
 Temperature   298.150 Kelvin.  Pressure   1.00000 Atm.
 Atom     1 has atomic number  6 and mass  12.00000

 Molecular mass:   301.94593 amu.
 Principal axes and moments of inertia in atomic units:
                           1         2         3
     Eigenvalues --  1911.256356516.115486715.18220
           X            0.99999   0.00486  -0.00191
           Y           -0.00485   0.99997   0.00570
           Z            0.00194  -0.00569   0.99998
 This molecule is an asymmetric top.
 Rotational symmetry number  1.
 Warning -- assumption of classical behavior for rotation
           may cause significant error
 Rotational temperatures (Kelvin)      0.04532     0.01329     0.01290
 Rotational constants (GHZ):           0.94427     0.27697     0.26876
 Zero-point vibrational energy     167341.4 (Joules/Mol)
                                   39.99555 (Kcal/Mol)
 Warning -- explicit consideration of  27 degrees of freedom as
           vibrations may cause significant error
 Vibrational temperatures:     46.32    62.97    71.40    85.52   130.52
          (Kelvin)            227.17   243.32   266.27   298.94   321.75
                              339.60   346.08   412.11   417.57   426.58
                              477.88   510.19   522.17   538.10   611.26
                              645.38   685.74   751.63   786.41   809.28
                              831.85   873.27   931.12   998.00  1051.70
                             1104.96  1201.68  1496.13  1641.27  1685.93
                             1716.04  1751.34  1753.30  1795.24  1803.33
                             1831.54  1848.59  1889.24  1974.70  2039.69

 Zero-point correction=                           0.063737 (Hartree/Particle)
 Thermal correction to Energy=                    0.079723
 Thermal correction to Enthalpy=                  0.080667
 Thermal correction to Gibbs Free Energy=         0.018767
 Sum of electronic and zero-point Energies=          -1699.294694
 Sum of electronic and thermal Energies=             -1699.278708
 Sum of electronic and thermal Enthalpies=           -1699.277764
 Sum of electronic and thermal Free Energies=        -1699.339664

                     E (Thermal)             CV                S
                      KCal/Mol        Cal/Mol-Kelvin    Cal/Mol-Kelvin
 Total                   50.027             55.896            130.280
 Electronic               0.000              0.000              0.000
 Translational            0.889              2.981             43.012
 Rotational               0.889              2.981             32.792
 Vibrational             48.249             49.934             54.476
 Vibration     1          0.594              1.983              5.690
 Vibration     2          0.595              1.980              5.081
 Vibration     3          0.595              1.978              4.832
 Vibration     4          0.597              1.974              4.476
 Vibration     5          0.602              1.956              3.645
 Vibration     6          0.621              1.894              2.575
 Vibration     7          0.625              1.880              2.445
 Vibration     8          0.631              1.860              2.277
 Vibration     9          0.641              1.829              2.063
 Vibration    10          0.649              1.805              1.930
 Vibration    11          0.655              1.786              1.833
 Vibration    12          0.658              1.778              1.799
 Vibration    13          0.684              1.699              1.495
 Vibration    14          0.686              1.692              1.473
 Vibration    15          0.690              1.680              1.437
 Vibration    16          0.714              1.611              1.250
 Vibration    17          0.730              1.566              1.146
 Vibration    18          0.737              1.549              1.110
 Vibration    19          0.745              1.525              1.063
 Vibration    20          0.787              1.416              0.876
 Vibration    21          0.808              1.364              0.800
 Vibration    22          0.833              1.302              0.719
 Vibration    23          0.877              1.200              0.604
 Vibration    24          0.902              1.147              0.551
 Vibration    25          0.918              1.112              0.519
 Vibration    26          0.935              1.079              0.489
 Vibration    27          0.966              1.017              0.438

 Optimization completed.
    -- Stationary point found.
 Normal termination of Gaussian 16 at Mon Aug 24 17:56:12 2020.
 Gaussian 16:  ES64L-G16RevA.03 25-Dec-2016

 ----------------------------------------------------------------------
 # TD(NStates=10, Root=1) B3LYP/6-31G* scf=qc volume pop=NPA density=cu
 rrent Geom=AllCheck Guess=Read
 ----------------------------------------------------------------------

 Structure from the checkpoint file:  "sulfonylfluoride_4_conf203.chk"
 -------------------
 Title Card Required
 -------------------
 Charge =  0 Multiplicity = 1

                         Standard orientation:
 ---------------------------------------------------------------------
 Center     Atomic      Atomic             Coordinates (Angstroms)
 Number     Number       Type             X           Y           Z
 ---------------------------------------------------------------------
      1          6           0        1.522828    0.511293    0.170555
      2          6           0        0.209834   -0.298097   -0.025549
      3          6           0       -1.049289    0.603015   -0.153563
      4          9           0       -1.033679    1.573286    0.770763
      5          9           0       -1.112322    1.132789   -1.379812
      6         16           0       -2.628802   -0.399594    0.120663
      7          8           0       -2.627476   -1.535787   -0.773080
      8          8           0       -2.922001   -0.474867    1.533278
      9          9           0       -3.608772    0.714506   -0.512322
     10          9           0        0.308024   -1.040934   -1.147101
     11          9           0        0.039042   -1.113688    1.040840
     12          9           0        1.544867    0.991512    1.431226
     13          9           0        1.525842    1.545711   -0.704283
     14          6           0        2.819700   -0.312194   -0.055209
     15          9           0        2.770641   -1.449679    0.650501
     16          9           0        2.969755   -0.602426   -1.350734
     17          9           0        3.867514    0.410549    0.353188
 ---------------------------------------------------------------------

 SCF Done:  E(RB3LYP) =  -1699.35843120     a.u. after    1 cycles

 Excitation energies and oscillator strengths:

 Excited State   1:      Singlet-A      7.2611 eV  170.75 nm  f=0.0129  <S**2>=0.000
      72 -> 74         0.60951
      72 -> 77         0.12615
      73 -> 74        -0.30228
 This state for optimization and/or second-order correction.
 Total Energy, E(TD-HF/TD-DFT) =  -1699.09158921
 Copying the excited state density for this state as the 1-particle RhoCI density.

 Excited State   2:      Singlet-A      7.3619 eV  168.41 nm  f=0.1238  <S**2>=0.000
      72 -> 74         0.29680
      73 -> 74         0.61027
      73 -> 75        -0.12782

 Excited State   3:      Singlet-A      7.7652 eV  159.67 nm  f=0.0015  <S**2>=0.000
      71 -> 74         0.65107
      72 -> 75         0.21245

 Excited State   4:      Singlet-A      8.1908 eV  151.37 nm  f=0.0040  <S**2>=0.000
      71 -> 74        -0.19343
      71 -> 75        -0.23851
      72 -> 75         0.58235
      72 -> 77        -0.13013
      73 -> 76        -0.14386

 Excited State   5:      Singlet-A      8.2852 eV  149.65 nm  f=0.1158  <S**2>=0.000
      69 -> 74        -0.11888
      70 -> 74         0.41394
      73 -> 74         0.14092
      73 -> 75         0.49484
      73 -> 76        -0.12577

 Excited State   6:      Singlet-A      8.4766 eV  146.27 nm  f=0.0023  <S**2>=0.000
      70 -> 74         0.45432
      71 -> 75        -0.12909
      73 -> 75        -0.29830
      73 -> 76         0.34328
      73 -> 77        -0.19847

 Excited State   7:      Singlet-A      8.6684 eV  143.03 nm  f=0.0016  <S**2>=0.000
      71 -> 75         0.52106
      71 -> 76         0.18088
      71 -> 77         0.12057
      72 -> 75         0.16523
      72 -> 76        -0.16827
      72 -> 77        -0.29804

 Excited State   8:      Singlet-A      8.7140 eV  142.28 nm  f=0.0398  <S**2>=0.000
      69 -> 74        -0.12343
      70 -> 74        -0.16564
      71 -> 75        -0.12077
      71 -> 76        -0.10207
      72 -> 77        -0.11106
      73 -> 75         0.26135
      73 -> 76         0.50975
      73 -> 77         0.23387

 Excited State   9:      Singlet-A      8.8445 eV  140.18 nm  f=0.0068  <S**2>=0.000
      70 -> 74        -0.13362
      71 -> 75         0.15884
      71 -> 76         0.12249
      71 -> 77         0.25653
      72 -> 74        -0.10327
      72 -> 75         0.10355
      72 -> 76         0.32035
      72 -> 77         0.30945
      73 -> 76         0.18357
      73 -> 77        -0.26634

 Excited State  10:      Singlet-A      8.8812 eV  139.60 nm  f=0.0058  <S**2>=0.000
      69 -> 74         0.28668
      70 -> 74         0.21675
      71 -> 77         0.11743
      72 -> 76         0.18414
      72 -> 77         0.22460
      73 -> 77         0.48528

 The electronic state is 1-A.
 Alpha  occ. eigenvalues --  -89.18576 -24.78788 -24.78635 -24.77722 -24.77518
 Alpha  occ. eigenvalues --  -24.77172 -24.77145 -24.76964 -24.76936 -24.76828
 Alpha  occ. eigenvalues --  -24.76816 -19.21312 -19.21293 -10.48153 -10.44923
 Alpha  occ. eigenvalues --  -10.43498 -10.42741  -8.21015  -6.17671  -6.17327
 Alpha  occ. eigenvalues --   -6.17255  -1.35501  -1.34356  -1.32316  -1.31205
 Alpha  occ. eigenvalues --   -1.28390  -1.28007  -1.26900  -1.26198  -1.26126
 Alpha  occ. eigenvalues --   -1.25479  -1.15118  -1.07313  -0.85658  -0.81752
 Alpha  occ. eigenvalues --   -0.76183  -0.70829  -0.68739  -0.65511  -0.65107
 Alpha  occ. eigenvalues --   -0.64112  -0.63135  -0.62620  -0.62182  -0.60759
 Alpha  occ. eigenvalues --   -0.60523  -0.58811  -0.56274  -0.53258  -0.51972
 Alpha  occ. eigenvalues --   -0.51817  -0.50950  -0.50256  -0.49947  -0.49690
 Alpha  occ. eigenvalues --   -0.49303  -0.48792  -0.47773  -0.47548  -0.47063
 Alpha  occ. eigenvalues --   -0.46574  -0.46109  -0.45929  -0.45315  -0.44879
 Alpha  occ. eigenvalues --   -0.44816  -0.43913  -0.43048  -0.41545  -0.39053
 Alpha  occ. eigenvalues --   -0.37852  -0.36021  -0.35260
 Alpha virt. eigenvalues --   -0.04426  -0.00571   0.00776   0.01643   0.05138
 Alpha virt. eigenvalues --    0.07337   0.11037   0.13220   0.14867   0.16932
 Alpha virt. eigenvalues --    0.17384   0.19301   0.20592   0.22403   0.24146

 Mulliken charges:
               1
     1  C    0.470335
     2  C    0.489897
     3  C    0.334293
     4  F   -0.233266
     5  F   -0.232628
     6  S    1.066859
     7  O   -0.276391
     8  O   -0.320284
     9  F   -0.272399
    10  F   -0.264911
    11  F   -0.266302
    12  F   -0.267816
    13  F   -0.272482
    14  C    0.782625
    15  F   -0.248145
    16  F   -0.242448
    17  F   -0.246937
 Sum of Mulliken charges =  -0.00000

 Dipole moment (field-independent basis, Debye):
    X=             -0.5652    Y=             -0.4614    Z=             -0.0531  Tot=              0.7316
 Quadrupole moment (field-independent basis, Debye-Ang):
   XX=            -96.7299   YY=            -95.5299   ZZ=            -96.2633
   XY=              1.5776   XZ=             -0.1355   YZ=              0.2388

 Summary of Natural Population Analysis:

                                       Natural Population
                Natural  -----------------------------------------------
    Atom  No    Charge         Core      Valence    Rydberg      Total
 -----------------------------------------------------------------------
      C    1    0.63201      1.99884     3.31215    0.05699     5.36799
      C    2    0.62971      1.99882     3.31364    0.05784     5.37029
      C    3    0.48167      1.99909     3.44769    0.07155     5.51833
      F    4   -0.32488      1.99993     7.31564    0.00931     9.32488
      F    5   -0.32794      1.99993     7.31817    0.00984     9.32794
      S    6    2.04517      9.99908     3.74680    0.20895    13.95483
      O    7   -0.59132      1.99989     6.56769    0.02374     8.59132
      O    8   -0.67445      1.99988     6.65066    0.02391     8.67445
      F    9   -0.50826      1.99997     7.49798    0.01031     9.50826
      F   10   -0.34355      1.99993     7.33520    0.00842     9.34355
      F   11   -0.35623      1.99993     7.34742    0.00888     9.35623
      F   12   -0.34231      1.99993     7.33393    0.00845     9.34231
      F   13   -0.34885      1.99993     7.34067    0.00825     9.34885
      C   14    1.07096      1.99926     2.85488    0.07490     4.92904
      F   15   -0.35002      1.99993     7.34285    0.00724     9.35002
      F   16   -0.34586      1.99993     7.33865    0.00729     9.34586
      F   17   -0.34584      1.99993     7.33874    0.00717     9.34584
 =======================================================================
   * Total *    0.00000     41.99420   103.40275    0.60305   146.00000

 Normal termination of Gaussian 16 at Mon Aug 24 18:04:47 2020.
