 Gaussian 16, Revision A.03,

 ---------------------------------
 # opt=CalcAll B3LYP/6-31G* scf=qc
 ---------------------------------

 -------------------
 Title Card Required
 -------------------
 Symbolic Z-matrix:
 Charge =  0 Multiplicity = 1

 SCF Done:  E(RB3LYP) =  -919.374422036     a.u. after    8 cycles
 SCF Done:  E(RB3LYP) =  -919.380964575     a.u. after   15 cycles
 SCF Done:  E(RB3LYP) =  -919.382309174     a.u. after   15 cycles
 SCF Done:  E(RB3LYP) =  -919.380006272     a.u. after   19 cycles
 SCF Done:  E(RB3LYP) =  -919.382237168     a.u. after   12 cycles
 SCF Done:  E(RB3LYP) =  -919.382908088     a.u. after    7 cycles
 SCF Done:  E(RB3LYP) =  -919.383274973     a.u. after    9 cycles
 SCF Done:  E(RB3LYP) =  -919.383274887     a.u. after    9 cycles
 SCF Done:  E(RB3LYP) =  -919.383278601     a.u. after    6 cycles
 SCF Done:  E(RB3LYP) =  -919.383278682     a.u. after    3 cycles
 SCF Done:  E(RB3LYP) =  -919.383278687     a.u. after    2 cycles
 Optimization completed.
    -- Stationary point found.
 Normal termination of Gaussian 16 at Mon Aug 24 18:47:30 2020.

 ----------------------------------------------------------------------
 # freq B3LYP/6-31G* scf=qc volume NMR pop=NPA density=current Geom=All
 Check Guess=Read
 ----------------------------------------------------------------------

 Structure from the checkpoint file:  "sulfonylfluoride_9_conf42.chk"
 -------------------
 Title Card Required
 -------------------
 Charge =  0 Multiplicity = 1

 SCF Done:  E(RB3LYP) =  -919.383278687     a.u. after    1 cycles

      1  C    Isotropic =    58.1513   Anisotropy =   108.3245

      2  C    Isotropic =    67.7767   Anisotropy =   167.7763

      3  C    Isotropic =    66.7722   Anisotropy =   151.9750

      4  C    Isotropic =    50.3544   Anisotropy =   192.6794

      5  C    Isotropic =    66.7737   Anisotropy =   151.9971

      6  C    Isotropic =    67.7774   Anisotropy =   167.7764

      7  C    Isotropic =   167.4712   Anisotropy =    34.7674

      8  S    Isotropic =   211.5870   Anisotropy =   315.6732

      9  O    Isotropic =   106.3270   Anisotropy =    74.8927

     10  O    Isotropic =   106.3259   Anisotropy =    74.8920

     11  F    Isotropic =    97.6235   Anisotropy =   365.4447

     12  H    Isotropic =    24.4867   Anisotropy =     7.7438

     13  H    Isotropic =    24.9642   Anisotropy =     6.6591

     14  H    Isotropic =    24.9640   Anisotropy =     6.6603

     15  H    Isotropic =    24.4865   Anisotropy =     7.7439

     16  H    Isotropic =    29.9906   Anisotropy =     7.3586

     17  H    Isotropic =    29.9892   Anisotropy =     7.3600

     18  H    Isotropic =    29.6606   Anisotropy =     8.1450

  Exact polarizability: 131.349   0.002  95.454   3.498  -0.000  49.045
 Approx polarizability: 184.677   0.003 176.233   6.184  -0.000  78.206

                      1                      2                      3
                      A                      A                      A
 Frequencies --     25.3506                41.1250                84.0552
 Red. masses --      1.0237                 5.7510                 5.3733
 Frc consts  --      0.0004                 0.0057                 0.0224
 IR Inten    --      0.2506                 0.0738                 0.3109

                      4                      5                      6
                      A                      A                      A
 Frequencies --    164.3462               196.2203               282.6474
 Red. masses --      6.3815                 5.7232                 8.0840
 Frc consts  --      0.1016                 0.1298                 0.3805
 IR Inten    --      1.2771                 0.7458                 3.3468

                      7                      8                      9
                      A                      A                      A
 Frequencies --    308.6868               343.8077               370.9593
 Red. masses --      5.4353                 5.9246                 3.8569
 Frc consts  --      0.3051                 0.4126                 0.3127
 IR Inten    --      0.0670                 3.3453                 2.6744

                     10                     11                     12
                      A                      A                      A
 Frequencies --    415.7054               456.3293               473.0034
 Red. masses --      3.0141                 6.4249                 9.2838
 Frc consts  --      0.3069                 0.7883                 1.2238
 IR Inten    --      0.0468                 1.4395                 6.4045

                     13                     14                     15
                      A                      A                      A
 Frequencies --    522.5753               546.4546               647.2256
 Red. masses --      3.9969                 9.0760                 6.9528
 Frc consts  --      0.6431                 1.5968                 1.7160
 IR Inten    --     19.7976                78.5081                 0.0358

                     16                     17                     18
                      A                      A                      A
 Frequencies --    657.2579               705.5107               779.3864
 Red. masses --      7.1398                 3.8728                12.5093
 Frc consts  --      1.8172                 1.1357                 4.4770
 IR Inten    --     71.8545                 3.4844               212.2896

                     19                     20                     21
                      A                      A                      A
 Frequencies --    820.8299               831.5359               856.3078
 Red. masses --      2.7440                 1.7875                 1.2446
 Frc consts  --      1.0893                 0.7282                 0.5377
 IR Inten    --     61.1565                10.1421                 0.1656

                     22                     23                     24
                      A                      A                      A
 Frequencies --    975.4391               979.5173              1022.7869
 Red. masses --      1.2433                 1.3467                 1.3987
 Frc consts  --      0.6970                 0.7613                 0.8621
 IR Inten    --      0.5817                 0.0409                 0.0004

                     25                     26                     27
                      A                      A                      A
 Frequencies --   1034.1713              1075.4638              1104.1938
 Red. masses --      3.7702                 1.5616                 3.4743
 Frc consts  --      2.3757                 1.0642                 2.4958
 IR Inten    --      1.6938                15.4198                19.7769

                     28                     29                     30
                      A                      A                      A
 Frequencies --   1151.5330              1181.7939              1220.8314
 Red. masses --      1.3065                10.1565                 1.1986
 Frc consts  --      1.0207                 8.3576                 1.0526
 IR Inten    --      5.3316               242.7549                 0.6861

                     31                     32                     33
                      A                      A                      A
 Frequencies --   1239.1270              1343.2481              1354.3904
 Red. masses --      3.0624                 1.2975                 8.8246
 Frc consts  --      2.7704                 1.3794                 9.5375
 IR Inten    --      0.4105                 3.5505                21.1171

                     34                     35                     36
                      A                      A                      A
 Frequencies --   1388.1291              1443.2317              1448.8474
 Red. masses --     16.0384                 1.2385                 2.5763
 Frc consts  --     18.2084                 1.5199                 3.1864
 IR Inten    --    146.7838                 0.5947                14.4590

                     37                     38                     39
                      A                      A                      A
 Frequencies --   1517.7637              1518.2553              1542.1808
 Red. masses --      1.0525                 1.1031                 2.2690
 Frc consts  --      1.4285                 1.4982                 3.1795
 IR Inten    --      6.7425                15.6607                 5.2255

                     40                     41                     42
                      A                      A                      A
 Frequencies --   1630.8404              1655.9850              3047.5134
 Red. masses --      5.9794                 5.5463                 1.0410
 Frc consts  --      9.3699                 8.9611                 5.6961
 IR Inten    --      1.3320                28.8308                16.3160

                     43                     44                     45
                      A                      A                      A
 Frequencies --   3107.4459              3135.1591              3194.9404
 Red. masses --      1.0951                 1.1033                 1.0896
 Frc consts  --      6.2305                 6.3895                 6.5532
 IR Inten    --     15.4582                12.0286                12.8204

                     46                     47                     48
                      A                      A                      A
 Frequencies --   3195.6363              3231.7528              3232.1685
 Red. masses --      1.0900                 1.0926                 1.0936
 Frc consts  --      6.5580                 6.7231                 6.7315
 IR Inten    --      6.7529                 0.2511                 1.6621

 - Thermochemistry -
 -------------------
 Temperature   298.150 Kelvin.  Pressure   1.00000 Atm.
 Atom     1 has atomic number  6 and mass  12.00000

 Molecular mass:   174.01508 amu.
 Principal axes and moments of inertia in atomic units:
                           1         2         3
     Eigenvalues --   707.973543259.137353569.61939
           X            0.99999   0.00000   0.00521
           Y           -0.00000   1.00000  -0.00000
           Z           -0.00521   0.00000   0.99999
 This molecule is an asymmetric top.
 Rotational symmetry number  1.
 Warning -- assumption of classical behavior for rotation
           may cause significant error
 Rotational temperatures (Kelvin)      0.12234     0.02658     0.02426
 Rotational constants (GHZ):           2.54916     0.55375     0.50558
 Zero-point vibrational energy     343936.3 (Joules/Mol)
                                   82.20276 (Kcal/Mol)
 Warning -- explicit consideration of  14 degrees of freedom as
           vibrations may cause significant error
 Vibrational temperatures:     36.47    59.17   120.94   236.46   282.32
          (Kelvin)            406.67   444.13   494.66   533.73   598.11
                              656.56   680.55   751.87   786.23   931.21
                              945.65  1015.07  1121.36  1180.99  1196.39
                             1232.04  1403.44  1409.31  1471.56  1487.94
                             1547.35  1588.69  1656.80  1700.34  1756.50
                             1782.83  1932.63  1948.67  1997.21  2076.49
                             2084.57  2183.72  2184.43  2218.85  2346.42
                             2382.59  4384.69  4470.92  4510.79  4596.81
                             4597.81  4649.77  4650.37

 Zero-point correction=                           0.130998 (Hartree/Particle)
 Thermal correction to Energy=                    0.141271
 Thermal correction to Enthalpy=                  0.142215
 Thermal correction to Gibbs Free Energy=         0.093267
 Sum of electronic and zero-point Energies=           -919.252280
 Sum of electronic and thermal Energies=              -919.242008
 Sum of electronic and thermal Enthalpies=            -919.241064
 Sum of electronic and thermal Free Energies=         -919.290012

                     E (Thermal)             CV                S
                      KCal/Mol        Cal/Mol-Kelvin    Cal/Mol-Kelvin
 Total                   88.649             37.416            103.021
 Electronic               0.000              0.000              0.000
 Translational            0.889              2.981             41.369
 Rotational               0.889              2.981             30.489
 Vibrational             86.871             31.455             31.163
 Vibration     1          0.593              1.985              6.164
 Vibration     2          0.594              1.981              5.204
 Vibration     3          0.601              1.960              3.794
 Vibration     4          0.623              1.886              2.499
 Vibration     5          0.636              1.845              2.168
 Vibration     6          0.682              1.706              1.518
 Vibration     7          0.698              1.657              1.369
 Vibration     8          0.723              1.588              1.194
 Vibration     9          0.743              1.532              1.076
 Vibration    10          0.779              1.436              0.907
 Vibration    11          0.815              1.347              0.777
 Vibration    12          0.830              1.310              0.729
 Vibration    13          0.878              1.200              0.604
 Vibration    14          0.902              1.147              0.552

 Optimization completed.
    -- Stationary point found.
 Normal termination of Gaussian 16 at Mon Aug 24 18:51:15 2020.
 Gaussian 16:  ES64L-G16RevA.03 25-Dec-2016

 ----------------------------------------------------------------------
 # TD(NStates=10, Root=1) B3LYP/6-31G* scf=qc volume pop=NPA density=cu
 rrent Geom=AllCheck Guess=Read
 ----------------------------------------------------------------------

 Structure from the checkpoint file:  "sulfonylfluoride_9_conf43.chk"
 -------------------
 Title Card Required
 -------------------
 Charge =  0 Multiplicity = 1

                         Standard orientation:
 ---------------------------------------------------------------------
 Center     Atomic      Atomic             Coordinates (Angstroms)
 Number     Number       Type             X           Y           Z
 ---------------------------------------------------------------------
      1          6           0        0.130657    0.000004    0.079519
      2          6           0       -0.551068    1.218403    0.065652
      3          6           0       -1.942632    1.206128    0.028732
      4          6           0       -2.658711    0.000009    0.004045
      5          6           0       -1.942634   -1.206116    0.028732
      6          6           0       -0.551074   -1.218395    0.065654
      7          6           0       -4.166374   -0.000004   -0.066477
      8         16           0        1.903022    0.000001    0.126619
      9          8           0        2.392795    1.272842    0.623425
     10          8           0        2.392788   -1.272822    0.623477
     11          9           0        2.223373   -0.000033   -1.466877
     12          1           0        0.000498    2.151746    0.098284
     13          1           0       -2.482496    2.149399    0.024993
     14          1           0       -2.482500   -2.149387    0.024993
     15          1           0        0.000490   -2.151740    0.098287
     16          1           0       -4.590542    0.887301    0.413959
     17          1           0       -4.590579   -0.886539    0.415357
     18          1           0       -4.507213   -0.000834   -1.110249
 ---------------------------------------------------------------------

 SCF Done:  E(RB3LYP) =  -919.383278687     a.u. after    1 cycles

 Excitation energies and oscillator strengths:

 Excited State   1:      Singlet-A      5.2275 eV  237.18 nm  f=0.0069  <S**2>=0.000
      44 -> 46         0.56956
      45 -> 47         0.41647
 This state for optimization and/or second-order correction.
 Total Energy, E(TD-HF/TD-DFT) =  -919.191173315
 Copying the excited state density for this state as the 1-particle RhoCI density.

 Excited State   2:      Singlet-A      5.6790 eV  218.32 nm  f=0.2163  <S**2>=0.000
      44 -> 47        -0.24962
      45 -> 46         0.65680

 Excited State   3:      Singlet-A      6.3108 eV  196.46 nm  f=0.0018  <S**2>=0.000
      42 -> 46        -0.20821
      43 -> 46         0.66691

 Excited State   4:      Singlet-A      6.6229 eV  187.20 nm  f=0.0126  <S**2>=0.000
      41 -> 46         0.68065
      44 -> 47         0.15853

 Excited State   5:      Singlet-A      6.6646 eV  186.04 nm  f=0.1329  <S**2>=0.000
      42 -> 46        -0.33962
      44 -> 46        -0.35013
      44 -> 48         0.13114
      45 -> 47         0.47213

 Excited State   6:      Singlet-A      6.7980 eV  182.38 nm  f=0.1035  <S**2>=0.000
      42 -> 46         0.57417
      43 -> 46         0.18476
      44 -> 46        -0.19690
      45 -> 47         0.27104

 Excited State   7:      Singlet-A      6.9372 eV  178.72 nm  f=0.5628  <S**2>=0.000
      41 -> 46        -0.13904
      44 -> 47         0.61372
      45 -> 46         0.22863
      45 -> 48        -0.19024

 Excited State   8:      Singlet-A      7.1344 eV  173.78 nm  f=0.0002  <S**2>=0.000
      43 -> 47         0.70434

 Excited State   9:      Singlet-A      7.3056 eV  169.71 nm  f=0.0020  <S**2>=0.000
      40 -> 46         0.65241
      41 -> 47         0.24565

 Excited State  10:      Singlet-A      7.3822 eV  167.95 nm  f=0.0012  <S**2>=0.000
      40 -> 46        -0.25613
      41 -> 47         0.63998

 The electronic state is 1-A.
 Alpha  occ. eigenvalues --  -89.15086 -24.72800 -19.17110 -19.17109 -10.24728
 Alpha  occ. eigenvalues --  -10.23312 -10.22915 -10.22914 -10.21909 -10.21908
 Alpha  occ. eigenvalues --  -10.20734  -8.17379  -6.14058  -6.13729  -6.13606
 Alpha  occ. eigenvalues --   -1.24103  -1.11083  -1.03150  -0.89374  -0.81517
 Alpha  occ. eigenvalues --   -0.77906  -0.73662  -0.67159  -0.64179  -0.60920
 Alpha  occ. eigenvalues --   -0.57119  -0.52573  -0.50475  -0.49386  -0.48227
 Alpha  occ. eigenvalues --   -0.47168  -0.45417  -0.44445  -0.43335  -0.43309
 Alpha  occ. eigenvalues --   -0.41142  -0.39499  -0.38511  -0.37348  -0.37244
 Alpha  occ. eigenvalues --   -0.33900  -0.33796  -0.32170  -0.28266  -0.27820
 Alpha virt. eigenvalues --   -0.05660  -0.03225   0.02853   0.05479   0.08965
 Alpha virt. eigenvalues --    0.10632   0.10663   0.11712   0.12255   0.12955
 Alpha virt. eigenvalues --    0.15313   0.16253   0.17921   0.18535   0.20524

 Mulliken charges:
               1
     1  C   -0.157833
     2  C   -0.132479
     3  C   -0.166647
     4  C    0.168285
     5  C   -0.166642
     6  C   -0.132473
     7  C   -0.529250
     8  S    1.180848
     9  O   -0.485519
    10  O   -0.485520
    11  F   -0.305953
    12  H    0.196448
    13  H    0.156116
    14  H    0.156115
    15  H    0.196451
    16  H    0.165902
    17  H    0.165914
    18  H    0.176238
 Sum of Mulliken charges =  -0.00000

 Dipole moment (field-independent basis, Debye):
    X=             -6.4812    Y=             -0.0001    Z=             -0.6846  Tot=              6.5173
 Quadrupole moment (field-independent basis, Debye-Ang):
   XX=            -71.4226   YY=            -66.3744   ZZ=            -72.6094
   XY=              0.0001   XZ=             -1.9027   YZ=              0.0001

 Summary of Natural Population Analysis:

                                       Natural Population
                Natural  -----------------------------------------------
    Atom  No    Charge         Core      Valence    Rydberg      Total
 -----------------------------------------------------------------------
      C    1   -0.36270      1.99873     4.33586    0.02811     6.36270
      C    2   -0.17679      1.99904     4.15742    0.02033     6.17679
      C    3   -0.17719      1.99907     4.16176    0.01636     6.17719
      C    4   -0.05025      1.99910     4.03529    0.01586     6.05025
      C    5   -0.17722      1.99907     4.16179    0.01636     6.17722
      C    6   -0.17676      1.99904     4.15739    0.02033     6.17676
      C    7   -0.69444      1.99940     4.68712    0.00792     6.69444
      S    8    2.39272      9.99870     3.40489    0.20369    13.60728
      O    9   -0.90634      1.99988     6.88353    0.02292     8.90634
      O   10   -0.90634      1.99988     6.88353    0.02292     8.90634
      F   11   -0.51343      1.99997     7.50407    0.00939     9.51343
      H   12    0.26497      0.00000     0.73373    0.00130     0.73503
      H   13    0.24069      0.00000     0.75833    0.00098     0.75931
      H   14    0.24070      0.00000     0.75833    0.00098     0.75930
      H   15    0.26497      0.00000     0.73373    0.00130     0.73503
      H   16    0.24386      0.00000     0.75495    0.00119     0.75614
      H   17    0.24387      0.00000     0.75494    0.00119     0.75613
      H   18    0.24965      0.00000     0.74860    0.00176     0.75035
 =======================================================================
   * Total *    0.00000     29.99187    59.61524    0.39289    90.00000

 Normal termination of Gaussian 16 at Mon Aug 24 18:56:40 2020.
