 Gaussian 16, Revision A.03,

 ---------------------------------
 # opt=CalcAll B3LYP/6-31G* scf=qc
 ---------------------------------

 -------------------
 Title Card Required
 -------------------
 Symbolic Z-matrix:
 Charge =  0 Multiplicity = 1

 SCF Done:  E(RB3LYP) =  -1699.19845965     a.u. after    9 cycles
 SCF Done:  E(RB3LYP) =  -1699.25519693     a.u. after   17 cycles
 SCF Done:  E(RB3LYP) =  -1699.30400437     a.u. after   13 cycles
 SCF Done:  E(RB3LYP) =  -1699.33760589     a.u. after   19 cycles
 SCF Done:  E(RB3LYP) =  -1699.34850616     a.u. after   18 cycles
 SCF Done:  E(RB3LYP) =  -1699.35053475     a.u. after   13 cycles
 SCF Done:  E(RB3LYP) =  -1699.35023346     a.u. after   13 cycles
 SCF Done:  E(RB3LYP) =  -1699.35234552     a.u. after   12 cycles
 SCF Done:  E(RB3LYP) =  -1699.35203361     a.u. after   15 cycles
 SCF Done:  E(RB3LYP) =  -1699.35333573     a.u. after   10 cycles
 SCF Done:  E(RB3LYP) =  -1699.35348601     a.u. after    9 cycles
 SCF Done:  E(RB3LYP) =  -1699.35349716     a.u. after   11 cycles
 SCF Done:  E(RB3LYP) =  -1699.35350362     a.u. after    9 cycles
 SCF Done:  E(RB3LYP) =  -1699.35350423     a.u. after    4 cycles
 Optimization completed on the basis of negligible forces.
    -- Stationary point found.
 Normal termination of Gaussian 16 at Mon Aug 24 19:07:40 2020.

 ----------------------------------------------------------------------
 # freq B3LYP/6-31G* scf=qc volume NMR pop=NPA density=current Geom=All
 Check Guess=Read
 ----------------------------------------------------------------------

 Structure from the checkpoint file:  "sulfonylfluoride_4_conf162.chk"
 -------------------
 Title Card Required
 -------------------
 Charge =  0 Multiplicity = 1

 SCF Done:  E(RB3LYP) =  -1699.35350423     a.u. after    1 cycles

      1  C    Isotropic =    77.1901   Anisotropy =    16.3616

      2  C    Isotropic =    75.2771   Anisotropy =    15.4888

      3  C    Isotropic =    68.0549   Anisotropy =    14.6434

      4  F    Isotropic =   300.5022   Anisotropy =    75.1248

      5  F    Isotropic =   298.1072   Anisotropy =    69.6599

      6  S    Isotropic =   218.8916   Anisotropy =   375.8591

      7  O    Isotropic =    98.6686   Anisotropy =    74.7459

      8  O    Isotropic =    95.1812   Anisotropy =    75.1931

      9  F    Isotropic =   115.4572   Anisotropy =   363.0294

     10  F    Isotropic =   321.7248   Anisotropy =    96.2746

     11  F    Isotropic =   314.3251   Anisotropy =    85.1230

     12  F    Isotropic =   320.5697   Anisotropy =    90.5614

     13  F    Isotropic =   326.9606   Anisotropy =    86.8433

     14  C    Isotropic =    68.8504   Anisotropy =    13.7380

     15  F    Isotropic =   277.7724   Anisotropy =   105.3641

     16  F    Isotropic =   281.4111   Anisotropy =   114.3374

     17  F    Isotropic =   273.7108   Anisotropy =   101.3924

  Exact polarizability:  76.143  -1.943  66.003   0.734   1.619  60.199
 Approx polarizability: 109.184   1.695 105.333   2.680   3.529  97.516

                      1                      2                      3
                      A                      A                      A
 Frequencies --     19.3683                42.4845                61.3140
 Red. masses --     17.9333                18.2156                18.5364
 Frc consts  --      0.0040                 0.0194                 0.0411
 IR Inten    --      0.0474                 0.0511                 0.0383

                      4                      5                      6
                      A                      A                      A
 Frequencies --    108.1159               118.5895               147.7460
 Red. masses --     18.5563                18.4992                17.7459
 Frc consts  --      0.1278                 0.1533                 0.2282
 IR Inten    --      0.0597                 0.2737                 2.0346

                      7                      8                      9
                      A                      A                      A
 Frequencies --    168.1272               183.2468               213.0657
 Red. masses --     17.9884                17.7234                18.5321
 Frc consts  --      0.2996                 0.3506                 0.4957
 IR Inten    --      1.0679                 4.3243                 4.3477

                     10                     11                     12
                      A                      A                      A
 Frequencies --    226.2341               247.1727               259.7416
 Red. masses --     18.1370                18.0228                18.3619
 Frc consts  --      0.5469                 0.6487                 0.7299
 IR Inten    --      1.9021                 1.8817                 1.8561

                     13                     14                     15
                      A                      A                      A
 Frequencies --    284.7624               296.8905               312.9404
 Red. masses --     18.4177                18.5096                18.6395
 Frc consts  --      0.8799                 0.9613                 1.0755
 IR Inten    --      0.7014                 0.8790                 0.5309

                     16                     17                     18
                      A                      A                      A
 Frequencies --    321.4891               329.2829               358.0050
 Red. masses --     18.5296                17.9401                18.3239
 Frc consts  --      1.1284                 1.1461                 1.3837
 IR Inten    --      0.5485                 0.6608                 1.5310

                     19                     20                     21
                      A                      A                      A
 Frequencies --    375.5075               432.3583               447.6361
 Red. masses --     18.2798                18.6095                17.8469
 Frc consts  --      1.5187                 2.0496                 2.1070
 IR Inten    --      3.0487                10.1733                12.8310

                     22                     23                     24
                      A                      A                      A
 Frequencies --    472.6947               491.3159               530.0526
 Red. masses --     17.9683                17.9165                17.9456
 Frc consts  --      2.3655                 2.5481                 2.9706
 IR Inten    --      0.6495                 5.6150                 8.4375

                     25                     26                     27
                      A                      A                      A
 Frequencies --    576.9531               582.7026               636.6699
 Red. masses --     18.3135                19.4768                17.3048
 Frc consts  --      3.5917                 3.8964                 4.1328
 IR Inten    --     37.8763                75.8161                 8.0523

                     28                     29                     30
                      A                      A                      A
 Frequencies --    639.2542               656.7542               747.5450
 Red. masses --     17.7921                17.4890                17.1385
 Frc consts  --      4.2838                 4.4445                 5.6428
 IR Inten    --     18.6317                 3.0144                37.3917

                     31                     32                     33
                      A                      A                      A
 Frequencies --    798.9872               928.6639              1016.8277
 Red. masses --     21.6364                13.7743                13.5965
 Frc consts  --      8.1379                 6.9990                 8.2827
 IR Inten    --    139.5202               134.2449               131.0686

                     34                     35                     36
                      A                      A                      A
 Frequencies --   1102.6770              1165.3453              1199.7928
 Red. masses --     13.7439                13.9027                13.2351
 Frc consts  --      9.8460                11.1239                11.2251
 IR Inten    --     88.5214                31.5514                32.3907

                     37                     38                     39
                      A                      A                      A
 Frequencies --   1203.3806              1219.6489              1235.6306
 Red. masses --     16.2903                13.7043                13.0822
 Frc consts  --     13.8991                12.0110                11.7682
 IR Inten    --    133.9822               150.4814               132.8396

                     40                     41                     42
                      A                      A                      A
 Frequencies --   1262.8907              1267.7915              1284.1746
 Red. masses --     13.1851                13.0748                12.8104
 Frc consts  --     12.3898                12.3817                12.4469
 IR Inten    --    250.0331               325.7392               121.0456

                     43                     44                     45
                      A                      A                      A
 Frequencies --   1304.9317              1361.8777              1417.4247
 Red. masses --     12.4384                12.5115                20.7546
 Frc consts  --     12.4793                13.6722                24.5678
 IR Inten    --     25.6801                49.2650               203.9513

 - Thermochemistry -
 -------------------
 Temperature   298.150 Kelvin.  Pressure   1.00000 Atm.
 Atom     1 has atomic number  6 and mass  12.00000

 Molecular mass:   301.94593 amu.
 Principal axes and moments of inertia in atomic units:
                           1         2         3
     Eigenvalues --  2571.053344908.633315259.93068
           X            0.99996  -0.00933   0.00172
           Y            0.00932   0.99995   0.00312
           Z           -0.00175  -0.00310   0.99999
 This molecule is an asymmetric top.
 Rotational symmetry number  1.
 Warning -- assumption of classical behavior for rotation
           may cause significant error
 Rotational temperatures (Kelvin)      0.03369     0.01765     0.01647
 Rotational constants (GHZ):           0.70195     0.36767     0.34311
 Zero-point vibrational energy     167824.5 (Joules/Mol)
                                   40.11102 (Kcal/Mol)
 Warning -- explicit consideration of  26 degrees of freedom as
           vibrations may cause significant error
 Vibrational temperatures:     27.87    61.13    88.22   155.55   170.62
          (Kelvin)            212.57   241.90   263.65   306.55   325.50
                              355.63   373.71   409.71   427.16   450.25
                              462.55   473.76   515.09   540.27   622.07
                              644.05   680.10   706.89   762.63   830.11
                              838.38   916.03   919.74   944.92  1075.55
                             1149.56  1336.14  1462.99  1586.51  1676.67
                             1726.23  1731.40  1754.80  1777.80  1817.02
                             1824.07  1847.64  1877.51  1959.44  2039.36

 Zero-point correction=                           0.063921 (Hartree/Particle)
 Thermal correction to Energy=                    0.079746
 Thermal correction to Enthalpy=                  0.080691
 Thermal correction to Gibbs Free Energy=         0.019425
 Sum of electronic and zero-point Energies=          -1699.289583
 Sum of electronic and thermal Energies=             -1699.273758
 Sum of electronic and thermal Enthalpies=           -1699.272814
 Sum of electronic and thermal Free Energies=        -1699.334079

                     E (Thermal)             CV                S
                      KCal/Mol        Cal/Mol-Kelvin    Cal/Mol-Kelvin
 Total                   50.042             55.779            128.943
 Electronic               0.000              0.000              0.000
 Translational            0.889              2.981             43.012
 Rotational               0.889              2.981             32.562
 Vibrational             48.264             49.817             53.369
 Vibration     1          0.593              1.986              6.698
 Vibration     2          0.595              1.980              5.140
 Vibration     3          0.597              1.973              4.414
 Vibration     4          0.606              1.943              3.302
 Vibration     5          0.609              1.934              3.123
 Vibration     6          0.617              1.905              2.701
 Vibration     7          0.625              1.882              2.456
 Vibration     8          0.631              1.863              2.295
 Vibration     9          0.644              1.821              2.017
 Vibration    10          0.650              1.801              1.909
 Vibration    11          0.661              1.767              1.751
 Vibration    12          0.668              1.746              1.664
 Vibration    13          0.683              1.702              1.505
 Vibration    14          0.691              1.680              1.434
 Vibration    15          0.701              1.649              1.347
 Vibration    16          0.707              1.632              1.303
 Vibration    17          0.712              1.617              1.264
 Vibration    18          0.733              1.559              1.131
 Vibration    19          0.746              1.522              1.057
 Vibration    20          0.793              1.400              0.851
 Vibration    21          0.807              1.366              0.803
 Vibration    22          0.830              1.311              0.730
 Vibration    23          0.847              1.269              0.680
 Vibration    24          0.885              1.184              0.587
 Vibration    25          0.933              1.081              0.491
 Vibration    26          0.940              1.069              0.480

 Optimization completed on the basis of negligible forces.
    -- Stationary point found.
 Normal termination of Gaussian 16 at Mon Aug 24 19:14:37 2020.
 Gaussian 16:  ES64L-G16RevA.03 25-Dec-2016

 ----------------------------------------------------------------------
 # TD(NStates=10, Root=1) B3LYP/6-31G* scf=qc volume pop=NPA density=cu
 rrent Geom=AllCheck Guess=Read
 ----------------------------------------------------------------------

 Structure from the checkpoint file:  "sulfonylfluoride_4_conf163.chk"
 -------------------
 Title Card Required
 -------------------
 Charge =  0 Multiplicity = 1

                         Standard orientation:
 ---------------------------------------------------------------------
 Center     Atomic      Atomic             Coordinates (Angstroms)
 Number     Number       Type             X           Y           Z
 ---------------------------------------------------------------------
      1          6           0       -1.344498    0.180884   -0.661360
      2          6           0       -0.243077    1.132839   -0.112077
      3          6           0        0.973914    0.566607    0.679123
      4          9           0        1.770411    1.606774    0.961611
      5          9           0        0.545842    0.002146    1.821830
      6         16           0        2.086648   -0.728947   -0.122747
      7          8           0        3.375310   -0.647756    0.524813
      8          8           0        1.354901   -1.960977   -0.306088
      9          9           0        2.223019   -0.020074   -1.562018
     10          9           0        0.244135    1.811297   -1.173414
     11          9           0       -0.836214    2.007227    0.735115
     12          9           0       -0.790989   -0.613039   -1.605424
     13          9           0       -2.261271    0.985946   -1.246022
     14          6           0       -2.102752   -0.715858    0.350498
     15          9           0       -2.585021    0.023770    1.357304
     16          9           0       -3.119702   -1.308014   -0.282714
     17          9           0       -1.293497   -1.657568    0.846737
 ---------------------------------------------------------------------

 SCF Done:  E(RB3LYP) =  -1699.35350423     a.u. after    1 cycles

 Excitation energies and oscillator strengths:

 Excited State   1:      Singlet-A      7.4965 eV  165.39 nm  f=0.0003  <S**2>=0.000
      72 -> 74         0.19426
      72 -> 75        -0.19085
      73 -> 74         0.47344
      73 -> 75        -0.42846
 This state for optimization and/or second-order correction.
 Total Energy, E(TD-HF/TD-DFT) =  -1699.07801465
 Copying the excited state density for this state as the 1-particle RhoCI density.

 Excited State   2:      Singlet-A      7.5986 eV  163.17 nm  f=0.0018  <S**2>=0.000
      71 -> 75         0.23989
      72 -> 74         0.16801
      73 -> 74         0.41998
      73 -> 75         0.45628

 Excited State   3:      Singlet-A      7.8023 eV  158.91 nm  f=0.0094  <S**2>=0.000
      70 -> 75        -0.13423
      72 -> 74         0.16475
      72 -> 75         0.62150
      73 -> 75        -0.20966

 Excited State   4:      Singlet-A      7.9972 eV  155.03 nm  f=0.0000  <S**2>=0.000
      71 -> 74         0.66766
      71 -> 75        -0.17780

 Excited State   5:      Singlet-A      8.1223 eV  152.65 nm  f=0.1500  <S**2>=0.000
      72 -> 74         0.60378
      72 -> 75        -0.12239
      73 -> 74        -0.24228

 Excited State   6:      Singlet-A      8.4079 eV  147.46 nm  f=0.0126  <S**2>=0.000
      71 -> 74         0.16615
      71 -> 75         0.57010
      71 -> 78         0.10897
      72 -> 76         0.18717
      73 -> 74        -0.13708
      73 -> 75        -0.14003
      73 -> 78         0.14446

 Excited State   7:      Singlet-A      8.5993 eV  144.18 nm  f=0.0492  <S**2>=0.000
      70 -> 74         0.66324
      72 -> 76        -0.11662

 Excited State   8:      Singlet-A      8.7698 eV  141.38 nm  f=0.0065  <S**2>=0.000
      68 -> 75        -0.10339
      70 -> 75         0.54473
      72 -> 75         0.12423
      72 -> 76         0.24379
      73 -> 76        -0.30190

 Excited State   9:      Singlet-A      8.8533 eV  140.04 nm  f=0.0041  <S**2>=0.000
      69 -> 75         0.10434
      70 -> 75         0.34882
      72 -> 76        -0.11380
      73 -> 76         0.55408
      73 -> 78         0.11231

 Excited State  10:      Singlet-A      8.9981 eV  137.79 nm  f=0.0030  <S**2>=0.000
      69 -> 74         0.11693
      69 -> 75         0.13351
      70 -> 75        -0.17774
      71 -> 75        -0.14210
      71 -> 76        -0.15734
      71 -> 78        -0.11092
      72 -> 76         0.56258
      73 -> 76         0.17487

 The electronic state is 1-A.
 Alpha  occ. eigenvalues --  -89.18882 -24.78877 -24.78471 -24.77690 -24.77172
 Alpha  occ. eigenvalues --  -24.77166 -24.76912 -24.76827 -24.76819 -24.76617
 Alpha  occ. eigenvalues --  -24.76542 -19.21522 -19.21490 -10.48020 -10.44995
 Alpha  occ. eigenvalues --  -10.43373 -10.42518  -8.21327  -6.17984  -6.17638
 Alpha  occ. eigenvalues --   -6.17567  -1.35387  -1.34368  -1.32300  -1.30428
 Alpha  occ. eigenvalues --   -1.29036  -1.27688  -1.26582  -1.26054  -1.25916
 Alpha  occ. eigenvalues --   -1.25247  -1.15408  -1.07546  -0.85721  -0.80910
 Alpha  occ. eigenvalues --   -0.75745  -0.72050  -0.68639  -0.66057  -0.64365
 Alpha  occ. eigenvalues --   -0.63798  -0.63262  -0.62596  -0.62320  -0.60445
 Alpha  occ. eigenvalues --   -0.59857  -0.58850  -0.56153  -0.53508  -0.52456
 Alpha  occ. eigenvalues --   -0.51649  -0.50970  -0.50057  -0.49917  -0.49283
 Alpha  occ. eigenvalues --   -0.48729  -0.48455  -0.47487  -0.47435  -0.47049
 Alpha  occ. eigenvalues --   -0.46636  -0.46275  -0.45734  -0.45114  -0.44908
 Alpha  occ. eigenvalues --   -0.44612  -0.43750  -0.42338  -0.41733  -0.38514
 Alpha  occ. eigenvalues --   -0.37991  -0.36359  -0.36071
 Alpha virt. eigenvalues --   -0.03375  -0.02815   0.00679   0.03545   0.04563
 Alpha virt. eigenvalues --    0.05560   0.09875   0.11963   0.16339   0.17241
 Alpha virt. eigenvalues --    0.18085   0.18843   0.21907   0.23091   0.24612

 Mulliken charges:
               1
     1  C    0.473129
     2  C    0.536306
     3  C    0.322749
     4  F   -0.248426
     5  F   -0.259749
     6  S    1.037246
     7  O   -0.286024
     8  O   -0.293809
     9  F   -0.275923
    10  F   -0.265347
    11  F   -0.270268
    12  F   -0.261397
    13  F   -0.266498
    14  C    0.781502
    15  F   -0.239792
    16  F   -0.242277
    17  F   -0.241420
 Sum of Mulliken charges =  -0.00000

 Dipole moment (field-independent basis, Debye):
    X=             -0.0167    Y=             -0.6130    Z=              0.4499  Tot=              0.7606
 Quadrupole moment (field-independent basis, Debye-Ang):
   XX=            -96.0702   YY=            -95.8963   ZZ=            -96.4611
   XY=             -0.3793   XZ=              0.7273   YZ=             -0.0801

 Summary of Natural Population Analysis:

                                       Natural Population
                Natural  -----------------------------------------------
    Atom  No    Charge         Core      Valence    Rydberg      Total
 -----------------------------------------------------------------------
      C    1    0.64455      1.99884     3.30284    0.05377     5.35545
      C    2    0.65220      1.99886     3.29087    0.05808     5.34780
      C    3    0.47263      1.99915     3.46292    0.06530     5.52737
      F    4   -0.33476      1.99993     7.32537    0.00947     9.33476
      F    5   -0.35686      1.99993     7.34771    0.00922     9.35686
      S    6    2.02134      9.99909     3.75762    0.22195    13.97866
      O    7   -0.64084      1.99989     6.61683    0.02413     8.64084
      O    8   -0.62738      1.99989     6.60334    0.02415     8.62738
      F    9   -0.50311      1.99997     7.49325    0.00988     9.50311
      F   10   -0.33960      1.99993     7.33108    0.00859     9.33960
      F   11   -0.34593      1.99994     7.33736    0.00864     9.34593
      F   12   -0.34527      1.99993     7.33679    0.00855     9.34527
      F   13   -0.33858      1.99994     7.33012    0.00852     9.33858
      C   14    1.07409      1.99925     2.85286    0.07380     4.92591
      F   15   -0.34407      1.99993     7.33680    0.00734     9.34407
      F   16   -0.34170      1.99993     7.33443    0.00734     9.34170
      F   17   -0.34669      1.99992     7.33922    0.00754     9.34669
 =======================================================================
   * Total *   -0.00000     41.99432   103.39940    0.60628   146.00000

 Normal termination of Gaussian 16 at Mon Aug 24 19:24:08 2020.
