 Gaussian 16, Revision A.03,

 ---------------------------------
 # opt=CalcAll B3LYP/6-31G* scf=qc
 ---------------------------------

 -------------------
 Title Card Required
 -------------------
 Symbolic Z-matrix:
 Charge =  0 Multiplicity = 1

 SCF Done:  E(RB3LYP) =  -1376.16777335     a.u. after    8 cycles
 SCF Done:  E(RB3LYP) =  -1376.17573286     a.u. after   15 cycles
 SCF Done:  E(RB3LYP) =  -1376.17596308     a.u. after   11 cycles
 SCF Done:  E(RB3LYP) =  -1376.17596729     a.u. after    4 cycles
 SCF Done:  E(RB3LYP) =  -1376.17596733     a.u. after    3 cycles
 Optimization completed.
    -- Stationary point found.
 Normal termination of Gaussian 16 at Mon Aug 24 18:12:27 2020.

 ----------------------------------------------------------------------
 # freq B3LYP/6-31G* scf=qc volume NMR pop=NPA density=current Geom=All
 Check Guess=Read
 ----------------------------------------------------------------------

 Structure from the checkpoint file:  "sulfonylfluoride_5_conf52.chk"
 -------------------
 Title Card Required
 -------------------
 Charge =  0 Multiplicity = 1

 SCF Done:  E(RB3LYP) =  -1376.17596733     a.u. after    1 cycles

      1  C    Isotropic =    46.0427   Anisotropy =    94.2270

      2  C    Isotropic =    54.5996   Anisotropy =    82.4696

      3  C    Isotropic =    48.0774   Anisotropy =    91.7792

      4  C    Isotropic =    76.5115   Anisotropy =    90.2708

      5  C    Isotropic =    48.1406   Anisotropy =    91.3346

      6  F    Isotropic =   321.6166   Anisotropy =   213.9204

      7  C    Isotropic =    54.3226   Anisotropy =    82.7751

      8  F    Isotropic =   347.6709   Anisotropy =   166.3643

      9  S    Isotropic =   240.7089   Anisotropy =   377.0893

     10  O    Isotropic =    63.9185   Anisotropy =    82.9512

     11  O    Isotropic =    77.9871   Anisotropy =    70.4229

     12  F    Isotropic =    90.3529   Anisotropy =   389.0364

     13  F    Isotropic =   315.5414   Anisotropy =   188.5091

     14  F    Isotropic =   347.7776   Anisotropy =   167.3977

     15  F    Isotropic =   329.7669   Anisotropy =   203.9828

  Exact polarizability: 112.665  -0.992  93.422   1.979   1.866  45.692
 Approx polarizability: 174.356  -1.453 180.060   3.809   6.799  77.625

                      1                      2                      3
                      A                      A                      A
 Frequencies --     31.8173                69.5933               130.1038
 Red. masses --     17.1014                16.9762                18.4124
 Frc consts  --      0.0102                 0.0484                 0.1836
 IR Inten    --      0.2025                 0.9759                 0.0564

                      4                      5                      6
                      A                      A                      A
 Frequencies --    149.0332               156.2122               192.2024
 Red. masses --     17.1004                18.0025                17.2443
 Frc consts  --      0.2238                 0.2588                 0.3753
 IR Inten    --      0.7943                 0.7311                 1.9337

                      7                      8                      9
                      A                      A                      A
 Frequencies --    236.1286               259.0726               262.7764
 Red. masses --     18.2770                14.9379                17.7993
 Frc consts  --      0.6004                 0.5907                 0.7241
 IR Inten    --      0.1572                 1.5856                 0.9985

                     10                     11                     12
                      A                      A                      A
 Frequencies --    268.3777               274.8790               316.4124
 Red. masses --     18.4796                18.5478                17.7520
 Frc consts  --      0.7842                 0.8257                 1.0471
 IR Inten    --      0.1135                 0.0955                 1.3553

                     13                     14                     15
                      A                      A                      A
 Frequencies --    350.1956               378.0700               389.9982
 Red. masses --     17.2040                13.1275                13.7335
 Frc consts  --      1.2431                 1.1055                 1.2307
 IR Inten    --      1.6708                 0.2226                 0.7294

                     16                     17                     18
                      A                      A                      A
 Frequencies --    438.1235               447.4628               476.3353
 Red. masses --     16.6937                16.8254                16.5188
 Frc consts  --      1.8880                 1.9849                 2.2083
 IR Inten    --      5.6636                 3.8837                10.7650

                     19                     20                     21
                      A                      A                      A
 Frequencies --    490.0142               579.1837               582.1193
 Red. masses --     16.1387                18.0710                12.2698
 Frc consts  --      2.2832                 3.5716                 2.4497
 IR Inten    --     14.1318                53.3453                 3.9097

                     22                     23                     24
                      A                      A                      A
 Frequencies --    595.5267               628.1835               646.0937
 Red. masses --     19.1398                12.2171                12.3913
 Frc consts  --      3.9994                 2.8405                 3.0476
 IR Inten    --    102.6447                 0.7074                 7.4919

                     25                     26                     27
                      A                      A                      A
 Frequencies --    767.8629               794.5815               865.3256
 Red. masses --     14.1015                17.8906                14.6548
 Frc consts  --      4.8987                 6.6551                 6.4653
 IR Inten    --     46.5008               128.6769                16.3480

                     28                     29                     30
                      A                      A                      A
 Frequencies --   1022.7483              1135.0863              1187.1857
 Red. masses --     14.1955                13.8310                16.9174
 Frc consts  --      8.7486                10.4994                14.0482
 IR Inten    --    154.8597               110.0901               205.5771

                     31                     32                     33
                      A                      A                      A
 Frequencies --   1198.2539              1334.0398              1338.7619
 Red. masses --     14.3587                12.0777                12.7515
 Frc consts  --     12.1469                12.6640                13.4654
 IR Inten    --     45.9560                15.1739                45.8625

                     34                     35                     36
                      A                      A                      A
 Frequencies --   1407.7429              1444.2303              1548.3076
 Red. masses --     20.4727                12.6311                12.5030
 Frc consts  --     23.9041                15.5226                17.6595
 IR Inten    --    126.3098                 6.6986               462.1004

                     37                     38                     39
                      A                      A                      A
 Frequencies --   1558.0822              1665.6852              1673.6726
 Red. masses --     12.5270                12.0684                12.0620
 Frc consts  --     17.9175                19.7281                19.9073
 IR Inten    --    185.4715                11.2146                57.0577

 - Thermochemistry -
 -------------------
 Temperature   298.150 Kelvin.  Pressure   1.00000 Atm.
 Atom     1 has atomic number  6 and mass  12.00000

 Molecular mass:   249.95232 amu.
 Principal axes and moments of inertia in atomic units:
                           1         2         3
     Eigenvalues --  2149.780114179.522425949.50848
           X            0.99999  -0.00440   0.00268
           Y            0.00440   0.99999   0.00200
           Z           -0.00269  -0.00199   0.99999
 This molecule is an asymmetric top.
 Rotational symmetry number  1.
 Warning -- assumption of classical behavior for rotation
           may cause significant error
 Rotational temperatures (Kelvin)      0.04029     0.02072     0.01456
 Rotational constants (GHZ):           0.83950     0.43181     0.30334
 Zero-point vibrational energy     163227.4 (Joules/Mol)
                                   39.01227 (Kcal/Mol)
 Warning -- explicit consideration of  22 degrees of freedom as
           vibrations may cause significant error
 Vibrational temperatures:     45.78   100.13   187.19   214.43   224.75
          (Kelvin)            276.54   339.74   372.75   378.08   386.14
                              395.49   455.25   503.85   543.96   561.12
                              630.36   643.80   685.34   705.02   833.32
                              837.54   856.83   903.82   929.58  1104.78
                             1143.23  1245.01  1471.51  1633.14  1708.10
                             1724.02  1919.39  1926.18  2025.43  2077.93
                             2227.67  2241.73  2396.55  2408.04

 Zero-point correction=                           0.062170 (Hartree/Particle)
 Thermal correction to Energy=                    0.075139
 Thermal correction to Enthalpy=                  0.076083
 Thermal correction to Gibbs Free Energy=         0.021848
 Sum of electronic and zero-point Energies=          -1376.113797
 Sum of electronic and thermal Energies=             -1376.100829
 Sum of electronic and thermal Enthalpies=           -1376.099884
 Sum of electronic and thermal Free Energies=        -1376.154119

                     E (Thermal)             CV                S
                      KCal/Mol        Cal/Mol-Kelvin    Cal/Mol-Kelvin
 Total                   47.150             46.462            114.147
 Electronic               0.000              0.000              0.000
 Translational            0.889              2.981             42.449
 Rotational               0.889              2.981             32.347
 Vibrational             45.373             40.500             39.351
 Vibration     1          0.594              1.983              5.713
 Vibration     2          0.598              1.969              4.165
 Vibration     3          0.612              1.923              2.945
 Vibration     4          0.618              1.904              2.685
 Vibration     5          0.620              1.896              2.595
 Vibration     6          0.634              1.851              2.206
 Vibration     7          0.655              1.785              1.832
 Vibration     8          0.668              1.747              1.668
 Vibration     9          0.670              1.741              1.643
 Vibration    10          0.673              1.731              1.607
 Vibration    11          0.677              1.720              1.565
 Vibration    12          0.703              1.642              1.329
 Vibration    13          0.727              1.575              1.165
 Vibration    14          0.748              1.517              1.047
 Vibration    15          0.758              1.492              1.000
 Vibration    16          0.798              1.387              0.833
 Vibration    17          0.807              1.366              0.803
 Vibration    18          0.833              1.303              0.720
 Vibration    19          0.846              1.272              0.684
 Vibration    20          0.936              1.076              0.487
 Vibration    21          0.939              1.070              0.481
 Vibration    22          0.953              1.041              0.457

 Optimization completed.
    -- Stationary point found.
 Normal termination of Gaussian 16 at Mon Aug 24 18:18:40 2020.
 Gaussian 16:  ES64L-G16RevA.03 25-Dec-2016

 ----------------------------------------------------------------------
 # TD(NStates=10, Root=1) B3LYP/6-31G* scf=qc volume pop=NPA density=cu
 rrent Geom=AllCheck Guess=Read
 ----------------------------------------------------------------------

 Structure from the checkpoint file:  "sulfonylfluoride_5_conf53.chk"
 -------------------
 Title Card Required
 -------------------
 Charge =  0 Multiplicity = 1

                         Standard orientation:
 ---------------------------------------------------------------------
 Center     Atomic      Atomic             Coordinates (Angstroms)
 Number     Number       Type             X           Y           Z
 ---------------------------------------------------------------------
      1          6           0       -2.337950    0.062416   -0.006516
      2          6           0       -1.588487    1.238736    0.004495
      3          6           0       -0.200726    1.165006    0.024423
      4          6           0        0.457122   -0.072438    0.021379
      5          6           0       -0.308795   -1.245357    0.016218
      6          9           0        0.247127   -2.451465    0.037787
      7          6           0       -1.701517   -1.175961    0.000500
      8          9           0       -2.424833   -2.295673   -0.003776
      9         16           0        2.242121   -0.112625    0.100030
     10          8           0        2.692708    0.600408    1.275041
     11          8           0        2.729492   -1.423208   -0.262595
     12          9           0        2.531721    0.850673   -1.162768
     13          9           0        0.494907    2.300029    0.036232
     14          9           0       -2.202484    2.421540   -0.003143
     15          9           0       -3.665262    0.124894   -0.022448
 ---------------------------------------------------------------------

 SCF Done:  E(RB3LYP) =  -1376.17596733     a.u. after    1 cycles

 Excitation energies and oscillator strengths:

 Excited State   1:      Singlet-A      4.9572 eV  250.11 nm  f=0.0378  <S**2>=0.000
      60 -> 63        -0.30623
      61 -> 62         0.63492
 This state for optimization and/or second-order correction.
 Total Energy, E(TD-HF/TD-DFT) =  -1375.99379198
 Copying the excited state density for this state as the 1-particle RhoCI density.

 Excited State   2:      Singlet-A      5.7434 eV  215.87 nm  f=0.0075  <S**2>=0.000
      60 -> 62         0.19126
      61 -> 63         0.12716
      61 -> 64         0.66448

 Excited State   3:      Singlet-A      5.7604 eV  215.23 nm  f=0.0844  <S**2>=0.000
      60 -> 62         0.59459
      61 -> 63         0.28385
      61 -> 64        -0.22974

 Excited State   4:      Singlet-A      6.1986 eV  200.02 nm  f=0.0014  <S**2>=0.000
      60 -> 64         0.69716

 Excited State   5:      Singlet-A      6.3229 eV  196.09 nm  f=0.0113  <S**2>=0.000
      58 -> 62         0.11412
      59 -> 62         0.66871
      61 -> 63         0.16207

 Excited State   6:      Singlet-A      6.6586 eV  186.20 nm  f=0.1244  <S**2>=0.000
      57 -> 62         0.20114
      58 -> 62         0.54625
      59 -> 62        -0.15473
      60 -> 62        -0.13003
      60 -> 63        -0.10797
      61 -> 63         0.30335

 Excited State   7:      Singlet-A      6.6956 eV  185.17 nm  f=0.3023  <S**2>=0.000
      57 -> 62         0.38375
      59 -> 62         0.11116
      60 -> 62         0.19682
      60 -> 63        -0.30730
      61 -> 62        -0.15065
      61 -> 63        -0.36466
      61 -> 65         0.18132

 Excited State   8:      Singlet-A      6.7362 eV  184.06 nm  f=0.1803  <S**2>=0.000
      57 -> 62         0.33854
      58 -> 62         0.12119
      60 -> 63         0.45313
      61 -> 62         0.21394
      61 -> 63        -0.18055
      61 -> 65        -0.26176

 Excited State   9:      Singlet-A      6.9320 eV  178.86 nm  f=0.1928  <S**2>=0.000
      57 -> 62         0.41791
      58 -> 62        -0.39326
      60 -> 62        -0.18460
      60 -> 65         0.10739
      61 -> 63         0.31649

 Excited State  10:      Singlet-A      7.2352 eV  171.36 nm  f=0.1004  <S**2>=0.000
      59 -> 63        -0.26383
      60 -> 63         0.24569
      61 -> 62         0.11352
      61 -> 65         0.57852
      61 -> 67         0.10458

 The electronic state is 1-A.
 Alpha  occ. eigenvalues --  -89.18353 -24.77053 -24.76861 -24.76626 -24.76420
 Alpha  occ. eigenvalues --  -24.76337 -24.75579 -19.19668 -19.19563 -10.35048
 Alpha  occ. eigenvalues --  -10.34880 -10.34601 -10.33744 -10.33681 -10.29000
 Alpha  occ. eigenvalues --   -8.20499  -6.17172  -6.16824  -6.16804  -1.29424
 Alpha  occ. eigenvalues --   -1.28838  -1.28488  -1.27351  -1.27099  -1.26841
 Alpha  occ. eigenvalues --   -1.13815  -1.05810  -0.94157  -0.84112  -0.81657
 Alpha  occ. eigenvalues --   -0.74030  -0.69763  -0.67855  -0.62902  -0.62596
 Alpha  occ. eigenvalues --   -0.61150  -0.58307  -0.57748  -0.56686  -0.55555
 Alpha  occ. eigenvalues --   -0.55436  -0.53941  -0.52504  -0.51688  -0.51387
 Alpha  occ. eigenvalues --   -0.49427  -0.48885  -0.46987  -0.46479  -0.46255
 Alpha  occ. eigenvalues --   -0.45772  -0.44464  -0.43945  -0.41289  -0.40495
 Alpha  occ. eigenvalues --   -0.38991  -0.36691  -0.36224  -0.34559  -0.30548
 Alpha  occ. eigenvalues --   -0.28871
 Alpha virt. eigenvalues --   -0.08172  -0.04980  -0.03373   0.00511   0.03729
 Alpha virt. eigenvalues --    0.06305   0.07491   0.10432   0.13611   0.14940
 Alpha virt. eigenvalues --    0.19247   0.21163   0.26205   0.28258   0.29488

 Mulliken charges:
               1
     1  C    0.243334
     2  C    0.277583
     3  C    0.365107
     4  C   -0.363930
     5  C    0.348319
     6  F   -0.211831
     7  C    0.276554
     8  F   -0.226572
     9  S    1.203139
    10  O   -0.456711
    11  O   -0.457541
    12  F   -0.302564
    13  F   -0.219173
    14  F   -0.225185
    15  F   -0.250530
 Sum of Mulliken charges =   0.00000

 Dipole moment (field-independent basis, Debye):
    X=             -4.1380    Y=              0.3878    Z=             -0.5523  Tot=              4.1927
 Quadrupole moment (field-independent basis, Debye-Ang):
   XX=            -96.9562   YY=            -87.4206   ZZ=            -84.5839
   XY=              1.5008   XZ=             -2.0168   YZ=             -1.4266

 Summary of Natural Population Analysis:

                                       Natural Population
                Natural  -----------------------------------------------
    Atom  No    Charge         Core      Valence    Rydberg      Total
 -----------------------------------------------------------------------
      C    1    0.25310      1.99850     3.71874    0.02966     5.74690
      C    2    0.34209      1.99843     3.63027    0.02921     5.65791
      C    3    0.39723      1.99840     3.57179    0.03258     5.60277
      C    4   -0.51481      1.99861     4.48670    0.02949     6.51481
      C    5    0.40141      1.99840     3.56868    0.03151     5.59859
      F    6   -0.25661      1.99994     7.24945    0.00723     9.25661
      C    7    0.33700      1.99844     3.63511    0.02945     5.66300
      F    8   -0.26586      1.99994     7.25867    0.00725     9.26586
      S    9    2.39836      9.99883     3.39065    0.21215    13.60164
      O   10   -0.88221      1.99988     6.85825    0.02407     8.88221
      O   11   -0.88444      1.99988     6.86063    0.02393     8.88444
      F   12   -0.50366      1.99997     7.49381    0.00988     9.50366
      F   13   -0.26363      1.99994     7.25631    0.00739     9.26363
      F   14   -0.26465      1.99994     7.25750    0.00721     9.26465
      F   15   -0.29331      1.99994     7.28607    0.00730     9.29331
 =======================================================================
   * Total *    0.00000     37.98904    83.52262    0.48834   122.00000

 Normal termination of Gaussian 16 at Mon Aug 24 18:27:04 2020.
