 Gaussian 16, Revision A.03,

 ---------------------------------
 # opt=CalcAll B3LYP/6-31G* scf=qc
 ---------------------------------

 -------------------
 Title Card Required
 -------------------
 Symbolic Z-matrix:
 Charge =  0 Multiplicity = 1

 SCF Done:  E(RB3LYP) =  -919.367862035     a.u. after    8 cycles
 SCF Done:  E(RB3LYP) =  -919.378677026     a.u. after   15 cycles
 SCF Done:  E(RB3LYP) =  -919.380695586     a.u. after   15 cycles
 SCF Done:  E(RB3LYP) =  -919.381146831     a.u. after   13 cycles
 SCF Done:  E(RB3LYP) =  -919.381241121     a.u. after   11 cycles
 SCF Done:  E(RB3LYP) =  -919.381265306     a.u. after    9 cycles
 SCF Done:  E(RB3LYP) =  -919.381266953     a.u. after    6 cycles
 Optimization completed.
    -- Stationary point found.
 Normal termination of Gaussian 16 at Mon Aug 24 18:09:56 2020.

 ----------------------------------------------------------------------
 # freq B3LYP/6-31G* scf=qc volume NMR pop=NPA density=current Geom=All
 Check Guess=Read
 ----------------------------------------------------------------------

 Structure from the checkpoint file:  "sulfonylfluoride_6_conf152.chk"
 -------------------
 Title Card Required
 -------------------
 Charge =  0 Multiplicity = 1

 SCF Done:  E(RB3LYP) =  -919.381266953     a.u. after    1 cycles

      1  C    Isotropic =   126.2767   Anisotropy =    42.2734

      2  H    Isotropic =    28.1558   Anisotropy =     3.4997

      3  H    Isotropic =    28.1608   Anisotropy =     3.4967

      4  C    Isotropic =    71.0006   Anisotropy =   157.2644

      5  C    Isotropic =    64.9440   Anisotropy =   158.9770

      6  C    Isotropic =    67.4542   Anisotropy =   167.4355

      7  C    Isotropic =    66.3341   Anisotropy =   172.7850

      8  C    Isotropic =    67.4577   Anisotropy =   167.4162

      9  C    Isotropic =    64.9401   Anisotropy =   158.8223

     10  S    Isotropic =   196.6658   Anisotropy =   284.6991

     11  O    Isotropic =    90.0760   Anisotropy =    75.4308

     12  O    Isotropic =    90.0011   Anisotropy =    75.3760

     13  F    Isotropic =   115.4819   Anisotropy =   369.0172

     14  H    Isotropic =    24.8520   Anisotropy =     7.2926

     15  H    Isotropic =    24.8811   Anisotropy =     4.7846

     16  H    Isotropic =    24.8563   Anisotropy =     4.3076

     17  H    Isotropic =    24.8820   Anisotropy =     4.7812

     18  H    Isotropic =    24.8584   Anisotropy =     7.2783

  Exact polarizability: 116.246  -0.007  96.185 -14.148  -0.020  56.067
 Approx polarizability: 167.087  -0.009 176.511 -29.524  -0.083  90.355

                      1                      2                      3
                      A                      A                      A
 Frequencies --     21.3904                53.0431                78.6402
 Red. masses --      4.9977                 6.6477                 7.1092
 Frc consts  --      0.0013                 0.0110                 0.0259
 IR Inten    --      0.7200                 0.2768                 2.1977

                      4                      5                      6
                      A                      A                      A
 Frequencies --    209.5351               245.1713               248.3236
 Red. masses --      6.7320                 7.9828                 8.3830
 Frc consts  --      0.1741                 0.2827                 0.3046
 IR Inten    --      1.5018                 0.0359                 1.7743

                      7                      8                      9
                      A                      A                      A
 Frequencies --    362.2313               413.2406               419.3214
 Red. masses --      2.3381                 3.1664                 5.2662
 Frc consts  --      0.1808                 0.3186                 0.5456
 IR Inten    --      2.1708                 1.2154                 6.6218

                     10                     11                     12
                      A                      A                      A
 Frequencies --    450.0106               456.4657               533.2063
 Red. masses --      8.7123                 6.0909                 5.7777
 Frc consts  --      1.0395                 0.7477                 0.9678
 IR Inten    --      6.6199                10.2479                73.5386

                     13                     14                     15
                      A                      A                      A
 Frequencies --    594.1720               634.6992               704.2435
 Red. masses --      5.7657                 6.2732                 4.5891
 Frc consts  --      1.1993                 1.4889                 1.3410
 IR Inten    --     16.3103                 0.0051                21.5261

                     16                     17                     18
                      A                      A                      A
 Frequencies --    713.0819               781.3904               789.8247
 Red. masses --      1.7428                11.9080                 2.2956
 Frc consts  --      0.5221                 4.2838                 0.8437
 IR Inten    --      9.4743               248.6923                28.5391

                     19                     20                     21
                      A                      A                      A
 Frequencies --    832.8472               856.3719               925.2594
 Red. masses --      4.3174                 1.2526                 1.7343
 Frc consts  --      1.7644                 0.5412                 0.8748
 IR Inten    --     11.0178                 0.0418                 0.3824

                     22                     23                     24
                      A                      A                      A
 Frequencies --    931.6165               969.6504              1003.0976
 Red. masses --      1.3984                 1.3570                 1.2771
 Frc consts  --      0.7151                 0.7517                 0.7571
 IR Inten    --      0.8151                 0.0385                 0.0004

                     25                     26                     27
                      A                      A                      A
 Frequencies --   1019.1033              1058.7431              1113.4133
 Red. masses --      6.1045                 2.2514                 1.5620
 Frc consts  --      3.7354                 1.4869                 1.1409
 IR Inten    --      0.5048                 1.4480                 2.4606

                     28                     29                     30
                      A                      A                      A
 Frequencies --   1174.9131              1180.1645              1196.4430
 Red. masses --      1.1200                17.2612                 1.0992
 Frc consts  --      0.9109                14.1647                 0.9271
 IR Inten    --      4.4592               130.2494                 0.0560

                     31                     32                     33
                      A                      A                      A
 Frequencies --   1217.9303              1230.1606              1307.7758
 Red. masses --      1.1418                 2.6708                 1.3940
 Frc consts  --      0.9979                 2.3813                 1.4047
 IR Inten    --      0.0968                 1.9179                 0.7628

                     34                     35                     36
                      A                      A                      A
 Frequencies --   1360.8383              1372.6185              1396.3314
 Red. masses --      5.5026                 1.3373                10.3786
 Frc consts  --      6.0039                 1.4845                11.9225
 IR Inten    --     10.9893                 0.1162               166.7474

                     37                     38                     39
                      A                      A                      A
 Frequencies --   1487.7801              1504.6194              1547.2063
 Red. masses --      1.1084                 2.2179                 2.2064
 Frc consts  --      1.4455                 2.9583                 3.1119
 IR Inten    --      7.4599                 9.4102                 7.0375

                     40                     41                     42
                      A                      A                      A
 Frequencies --   1646.7639              1664.5576              3099.5804
 Red. masses --      5.5074                 5.4916                 1.0583
 Frc consts  --      8.7996                 8.9649                 5.9905
 IR Inten    --      0.5291                 0.0534                 3.3911

                     43                     44                     45
                      A                      A                      A
 Frequencies --   3160.8068              3187.4152              3191.9324
 Red. masses --      1.1090                 1.0855                 1.0881
 Frc consts  --      6.5278                 6.4975                 6.5315
 IR Inten    --      0.1165                 1.3420                 0.1035

                     46                     47                     48
                      A                      A                      A
 Frequencies --   3198.9603              3207.9083              3216.3076
 Red. masses --      1.0913                 1.0946                 1.0982
 Frc consts  --      6.5800                 6.6368                 6.6932
 IR Inten    --     11.7934                24.7145                12.3197

 - Thermochemistry -
 -------------------
 Temperature   298.150 Kelvin.  Pressure   1.00000 Atm.
 Atom     1 has atomic number  6 and mass  12.00000

 Molecular mass:   174.01508 amu.
 Principal axes and moments of inertia in atomic units:
                           1         2         3
     Eigenvalues --   761.561333213.445463467.01294
           X            0.99998  -0.00000  -0.00668
           Y            0.00000   1.00000   0.00010
           Z            0.00668  -0.00010   0.99998
 This molecule is an asymmetric top.
 Rotational symmetry number  1.
 Warning -- assumption of classical behavior for rotation
           may cause significant error
 Rotational temperatures (Kelvin)      0.11373     0.02695     0.02498
 Rotational constants (GHZ):           2.36979     0.56162     0.52055
 Zero-point vibrational energy     346732.3 (Joules/Mol)
                                   82.87100 (Kcal/Mol)
 Warning -- explicit consideration of  13 degrees of freedom as
           vibrations may cause significant error
 Vibrational temperatures:     30.78    76.32   113.15   301.47   352.75
          (Kelvin)            357.28   521.17   594.56   603.31   647.46
                              656.75   767.16   854.88   913.19  1013.25
                             1025.97  1124.25  1136.38  1198.28  1232.13
                             1331.24  1340.39  1395.11  1443.23  1466.26
                             1523.30  1601.95  1690.44  1697.99  1721.41
                             1752.33  1769.93  1881.60  1957.94  1974.89
                             2009.01  2140.58  2164.81  2226.08  2369.33
                             2394.93  4459.60  4547.70  4585.98  4592.48
                             4602.59  4615.46  4627.55

 Zero-point correction=                           0.132063 (Hartree/Particle)
 Thermal correction to Energy=                    0.141806
 Thermal correction to Enthalpy=                  0.142750
 Thermal correction to Gibbs Free Energy=         0.094818
 Sum of electronic and zero-point Energies=           -919.249204
 Sum of electronic and thermal Energies=              -919.239461
 Sum of electronic and thermal Enthalpies=            -919.238517
 Sum of electronic and thermal Free Energies=         -919.286449

                     E (Thermal)             CV                S
                      KCal/Mol        Cal/Mol-Kelvin    Cal/Mol-Kelvin
 Total                   88.985             36.162            100.881
 Electronic               0.000              0.000              0.000
 Translational            0.889              2.981             41.369
 Rotational               0.889              2.981             30.518
 Vibrational             87.207             30.201             28.994
 Vibration     1          0.593              1.985              6.501
 Vibration     2          0.596              1.976              4.701
 Vibration     3          0.600              1.964              3.925
 Vibration     4          0.642              1.826              2.048
 Vibration     5          0.660              1.771              1.765
 Vibration     6          0.662              1.766              1.742
 Vibration     7          0.736              1.550              1.113
 Vibration     8          0.777              1.441              0.915
 Vibration     9          0.782              1.428              0.894
 Vibration    10          0.809              1.361              0.796
 Vibration    11          0.815              1.347              0.776
 Vibration    12          0.888              1.177              0.580
 Vibration    13          0.952              1.044              0.460

                           ! Non-Optimized Parameters !
 Normal termination of Gaussian 16 at Mon Aug 24 18:13:40 2020.
 Gaussian 16:  ES64L-G16RevA.03 25-Dec-2016

 ----------------------------------------------------------------------
 # TD(NStates=10, Root=1) B3LYP/6-31G* scf=qc volume pop=NPA density=cu
 rrent Geom=AllCheck Guess=Read
 ----------------------------------------------------------------------

 Structure from the checkpoint file:  "sulfonylfluoride_6_conf153.chk"
 -------------------
 Title Card Required
 -------------------
 Charge =  0 Multiplicity = 1

                         Standard orientation:
 ---------------------------------------------------------------------
 Center     Atomic      Atomic             Coordinates (Angstroms)
 Number     Number       Type             X           Y           Z
 ---------------------------------------------------------------------
      1          6           0        0.581519   -0.005081   -1.112358
      2          1           0        0.818475    0.883265   -1.703412
      3          1           0        0.817971   -0.898643   -1.695665
      4          6           0       -0.832538   -0.002521   -0.597148
      5          6           0       -1.489225    1.208191   -0.342417
      6          6           0       -2.794859    1.209941    0.146538
      7          6           0       -3.451768    0.002479    0.391422
      8          6           0       -2.798630   -1.207459    0.148806
      9          6           0       -1.492944   -1.210671   -0.340075
     10         16           0        1.786172    0.000750    0.253095
     11          8           0        1.772644    1.275339    0.946814
     12          8           0        1.772055   -1.267425    0.958401
     13          9           0        3.125343   -0.003731   -0.673737
     14          1           0       -0.975694    2.148450   -0.524982
     15          1           0       -3.297768    2.153745    0.336996
     16          1           0       -4.469823    0.004422    0.770849
     17          1           0       -3.304480   -2.149339    0.340998
     18          1           0       -0.982445   -2.152909   -0.521000
 ---------------------------------------------------------------------

 SCF Done:  E(RB3LYP) =  -919.381266953     a.u. after    1 cycles

 Excitation energies and oscillator strengths:

 Excited State   1:      Singlet-A      5.3127 eV  233.37 nm  f=0.0038  <S**2>=0.000
      44 -> 46         0.55202
      45 -> 47         0.43878
 This state for optimization and/or second-order correction.
 Total Energy, E(TD-HF/TD-DFT) =  -919.186030169
 Copying the excited state density for this state as the 1-particle RhoCI density.

 Excited State   2:      Singlet-A      5.8845 eV  210.70 nm  f=0.1406  <S**2>=0.000
      44 -> 47        -0.29455
      45 -> 46         0.63708

 Excited State   3:      Singlet-A      6.7465 eV  183.78 nm  f=0.1771  <S**2>=0.000
      44 -> 46        -0.39807
      44 -> 48         0.31860
      45 -> 47         0.47144

 Excited State   4:      Singlet-A      6.7981 eV  182.38 nm  f=0.3886  <S**2>=0.000
      41 -> 46        -0.11197
      44 -> 47         0.54168
      45 -> 46         0.21017
      45 -> 48        -0.37781

 Excited State   5:      Singlet-A      6.9251 eV  179.04 nm  f=0.0004  <S**2>=0.000
      43 -> 46         0.68106
      43 -> 48        -0.13826

 Excited State   6:      Singlet-A      7.1761 eV  172.77 nm  f=0.2254  <S**2>=0.000
      41 -> 46        -0.14489
      44 -> 47         0.27121
      45 -> 46         0.16318
      45 -> 48         0.52971
      45 -> 49        -0.30040

 Excited State   7:      Singlet-A      7.3087 eV  169.64 nm  f=0.0777  <S**2>=0.000
      42 -> 46        -0.19184
      44 -> 46         0.12908
      44 -> 48         0.57436
      44 -> 49        -0.25594
      45 -> 47        -0.20631

 Excited State   8:      Singlet-A      7.3519 eV  168.64 nm  f=0.0307  <S**2>=0.000
      40 -> 46        -0.15318
      42 -> 46         0.64201
      44 -> 48         0.13530

 Excited State   9:      Singlet-A      7.4419 eV  166.60 nm  f=0.0074  <S**2>=0.000
      41 -> 46         0.48837
      45 -> 48        -0.14348
      45 -> 49        -0.47383

 Excited State  10:      Singlet-A      7.5623 eV  163.95 nm  f=0.0002  <S**2>=0.000
      40 -> 46         0.67188
      42 -> 46         0.13978

 The electronic state is 1-A.
 Alpha  occ. eigenvalues --  -89.14959 -24.73345 -19.17431 -19.17430 -10.25710
 Alpha  occ. eigenvalues --  -10.22558 -10.21045 -10.21041 -10.20809 -10.20715
 Alpha  occ. eigenvalues --  -10.20699  -8.17363  -6.14048  -6.13699  -6.13557
 Alpha  occ. eigenvalues --   -1.24472  -1.11362  -1.03334  -0.87959  -0.81868
 Alpha  occ. eigenvalues --   -0.76285  -0.74267  -0.65569  -0.62541  -0.60416
 Alpha  occ. eigenvalues --   -0.55637  -0.53576  -0.51181  -0.50959  -0.48173
 Alpha  occ. eigenvalues --   -0.47928  -0.44852  -0.44074  -0.43702  -0.42857
 Alpha  occ. eigenvalues --   -0.42720  -0.38711  -0.37685  -0.36622  -0.36113
 Alpha  occ. eigenvalues --   -0.34154  -0.33966  -0.32337  -0.26745  -0.26558
 Alpha virt. eigenvalues --   -0.03551  -0.01865   0.02298   0.04014   0.07507
 Alpha virt. eigenvalues --    0.09655   0.09680   0.11232   0.12529   0.14402
 Alpha virt. eigenvalues --    0.15576   0.16040   0.17521   0.17978   0.21139

 Mulliken charges:
               1
     1  C   -0.573049
     2  H    0.213503
     3  H    0.213484
     4  C    0.133149
     5  C   -0.152353
     6  C   -0.125570
     7  C   -0.132483
     8  C   -0.125575
     9  C   -0.152379
    10  S    1.207701
    11  O   -0.477762
    12  O   -0.477611
    13  F   -0.319532
    14  H    0.158757
    15  H    0.153232
    16  H    0.144761
    17  H    0.153199
    18  H    0.158528
 Sum of Mulliken charges =   0.00000

 Dipole moment (field-independent basis, Debye):
    X=             -4.2620    Y=             -0.0114    Z=             -2.7914  Tot=              5.0948
 Quadrupole moment (field-independent basis, Debye-Ang):
   XX=            -69.0396   YY=            -67.2851   ZZ=            -71.2499
   XY=             -0.0174   XZ=             -5.7843   YZ=              0.0130

 Summary of Natural Population Analysis:

                                       Natural Population
                Natural  -----------------------------------------------
    Atom  No    Charge         Core      Valence    Rydberg      Total
 -----------------------------------------------------------------------
      C    1   -0.71324      1.99917     4.69392    0.02015     6.71324
      H    2    0.27597      0.00000     0.72154    0.00249     0.72403
      H    3    0.27599      0.00000     0.72154    0.00247     0.72401
      C    4   -0.08311      1.99905     4.06497    0.01909     6.08311
      C    5   -0.18687      1.99906     4.16993    0.01787     6.18687
      C    6   -0.19084      1.99915     4.17410    0.01759     6.19084
      C    7   -0.25180      1.99916     4.23527    0.01738     6.25180
      C    8   -0.19095      1.99915     4.17421    0.01759     6.19095
      C    9   -0.18671      1.99906     4.16979    0.01786     6.18671
      S   10    2.37187      9.99892     3.42761    0.20160    13.62813
      O   11   -0.90075      1.99988     6.87708    0.02378     8.90075
      O   12   -0.90064      1.99988     6.87698    0.02378     8.90064
      F   13   -0.51705      1.99997     7.50813    0.00895     9.51705
      H   14    0.24115      0.00000     0.75764    0.00121     0.75885
      H   15    0.23903      0.00000     0.76014    0.00084     0.76097
      H   16    0.23793      0.00000     0.76127    0.00080     0.76207
      H   17    0.23902      0.00000     0.76014    0.00084     0.76098
      H   18    0.24101      0.00000     0.75778    0.00120     0.75899
 =======================================================================
   * Total *    0.00000     29.99244    59.61206    0.39550    90.00000

 Normal termination of Gaussian 16 at Mon Aug 24 18:18:49 2020.
