 Gaussian 16, Revision A.03,

 ---------------------------------
 # opt=CalcAll B3LYP/6-31G* scf=qc
 ---------------------------------

 -------------------
 Title Card Required
 -------------------
 Symbolic Z-matrix:
 Charge =  0 Multiplicity = 1

 SCF Done:  E(RB3LYP) =  -1699.28959924     a.u. after    8 cycles
 SCF Done:  E(RB3LYP) =  -1699.31366458     a.u. after   15 cycles
 SCF Done:  E(RB3LYP) =  -1699.34346633     a.u. after   15 cycles
 SCF Done:  E(RB3LYP) =  -1699.34548496     a.u. after   17 cycles
 SCF Done:  E(RB3LYP) =  -1699.35057844     a.u. after   13 cycles
 SCF Done:  E(RB3LYP) =  -1699.34465430     a.u. after   16 cycles
 SCF Done:  E(RB3LYP) =  -1699.34128589     a.u. after   13 cycles
 SCF Done:  E(RB3LYP) =  -1699.33814225     a.u. after   11 cycles
 SCF Done:  E(RB3LYP) =  -1699.34376176     a.u. after   12 cycles
 SCF Done:  E(RB3LYP) =  -1699.34783450     a.u. after   12 cycles
 SCF Done:  E(RB3LYP) =  -1699.35563248     a.u. after   13 cycles
 SCF Done:  E(RB3LYP) =  -1699.35120804     a.u. after   23 cycles
 SCF Done:  E(RB3LYP) =  -1699.35443316     a.u. after   13 cycles
 SCF Done:  E(RB3LYP) =  -1699.35649859     a.u. after    5 cycles
 SCF Done:  E(RB3LYP) =  -1699.35702977     a.u. after   13 cycles
 SCF Done:  E(RB3LYP) =  -1699.35705987     a.u. after    6 cycles
 SCF Done:  E(RB3LYP) =  -1699.35706001     a.u. after    3 cycles
 SCF Done:  E(RB3LYP) =  -1699.35706009     a.u. after    2 cycles
 Optimization completed.
    -- Stationary point found.
 Normal termination of Gaussian 16 at Mon Aug 24 21:19:19 2020.

 ----------------------------------------------------------------------
 # freq B3LYP/6-31G* scf=qc volume NMR pop=NPA density=current Geom=All
 Check Guess=Read
 ----------------------------------------------------------------------

 Structure from the checkpoint file:  "sulfonylfluoride_4_conf182.chk"
 -------------------
 Title Card Required
 -------------------
 Charge =  0 Multiplicity = 1

 SCF Done:  E(RB3LYP) =  -1699.35706009     a.u. after    1 cycles

      1  C    Isotropic =    76.9384   Anisotropy =    15.4422

      2  C    Isotropic =    77.4519   Anisotropy =    14.4782

      3  C    Isotropic =    69.5082   Anisotropy =    19.1938

      4  F    Isotropic =   296.9202   Anisotropy =    62.5973

      5  F    Isotropic =   298.5432   Anisotropy =    60.6754

      6  S    Isotropic =   218.8083   Anisotropy =   364.1749

      7  O    Isotropic =    91.9248   Anisotropy =    76.9608

      8  O    Isotropic =    97.2074   Anisotropy =    86.9998

      9  F    Isotropic =   116.7503   Anisotropy =   359.5518

     10  F    Isotropic =   324.6945   Anisotropy =    76.0471

     11  F    Isotropic =   314.1034   Anisotropy =    80.7513

     12  F    Isotropic =   320.6002   Anisotropy =    86.1989

     13  F    Isotropic =   325.4546   Anisotropy =    85.9521

     14  C    Isotropic =    68.7668   Anisotropy =    13.8604

     15  F    Isotropic =   277.2787   Anisotropy =   102.5089

     16  F    Isotropic =   282.2911   Anisotropy =   112.3367

     17  F    Isotropic =   276.1185   Anisotropy =   104.2454

  Exact polarizability:  79.596   2.294  62.772   0.926  -1.805  61.985
 Approx polarizability:  99.803   5.447 103.440  -0.243  -6.137 108.521

                      1                      2                      3
                      A                      A                      A
 Frequencies --     36.4934                39.9190                54.6776
 Red. masses --     18.6286                17.7172                17.7676
 Frc consts  --      0.0146                 0.0166                 0.0313
 IR Inten    --      0.0740                 0.1260                 0.2344

                      4                      5                      6
                      A                      A                      A
 Frequencies --     82.1026               106.9778               135.8268
 Red. masses --     18.4785                17.9010                18.1050
 Frc consts  --      0.0734                 0.1207                 0.1968
 IR Inten    --      0.1958                 0.7871                 0.4965

                      7                      8                      9
                      A                      A                      A
 Frequencies --    175.9439               193.1787               215.6488
 Red. masses --     18.5804                18.0059                18.4072
 Frc consts  --      0.3389                 0.3959                 0.5043
 IR Inten    --      2.3636                 1.8107                 4.1931

                     10                     11                     12
                      A                      A                      A
 Frequencies --    224.3344               231.4797               254.0415
 Red. masses --     18.4275                17.6689                18.4215
 Frc consts  --      0.5464                 0.5578                 0.7005
 IR Inten    --      1.5576                 1.3760                 3.6798

                     13                     14                     15
                      A                      A                      A
 Frequencies --    281.5209               295.4900               302.2760
 Red. masses --     18.4667                18.5156                18.5280
 Frc consts  --      0.8623                 0.9525                 0.9974
 IR Inten    --      1.5645                 0.4686                 0.2045

                     16                     17                     18
                      A                      A                      A
 Frequencies --    317.3233               345.9936               364.3623
 Red. masses --     18.2261                18.1664                18.6359
 Frc consts  --      1.0813                 1.2813                 1.4577
 IR Inten    --      1.4840                 0.7166                 0.1729

                     19                     20                     21
                      A                      A                      A
 Frequencies --    377.0723               423.6954               440.3202
 Red. masses --     18.3385                18.5109                17.8649
 Frc consts  --      1.5363                 1.9579                 2.0407
 IR Inten    --      2.2631                18.4950                 3.1116

                     22                     23                     24
                      A                      A                      A
 Frequencies --    470.0298               518.9047               536.7975
 Red. masses --     18.1935                17.8324                17.7117
 Frc consts  --      2.3682                 2.8290                 3.0070
 IR Inten    --      5.4238                35.8336                 4.4790

                     25                     26                     27
                      A                      A                      A
 Frequencies --    565.6139               579.0218               614.3561
 Red. masses --     18.5013                18.1027                18.7502
 Frc consts  --      3.4873                 3.5759                 4.1696
 IR Inten    --     65.3503                28.5780                36.0820

                     28                     29                     30
                      A                      A                      A
 Frequencies --    648.1476               685.0356               745.3455
 Red. masses --     17.5009                17.2254                17.0977
 Frc consts  --      4.3317                 4.7626                 5.5963
 IR Inten    --      5.2292                18.2063                48.1024

                     31                     32                     33
                      A                      A                      A
 Frequencies --    792.9687               865.1237              1020.5925
 Red. masses --     19.9365                14.8972                13.4831
 Frc consts  --      7.3860                 6.5692                 8.2746
 IR Inten    --    157.0909                74.7170                94.9467

                     34                     35                     36
                      A                      A                      A
 Frequencies --   1133.9231              1167.3556              1201.1103
 Red. masses --     14.0031                13.5627                16.2511
 Frc consts  --     10.6082                10.8893                13.8133
 IR Inten    --    165.4885                43.3404                86.6466

                     37                     38                     39
                      A                      A                      A
 Frequencies --   1214.1032              1219.4480              1243.8922
 Red. masses --     13.8280                13.1413                13.1086
 Frc consts  --     12.0094                11.5137                11.9502
 IR Inten    --     51.6759                35.2120                78.8367

                     40                     41                     42
                      A                      A                      A
 Frequencies --   1255.9249              1268.9146              1293.1079
 Red. masses --     13.1508                13.0217                12.5296
 Frc consts  --     12.2217                12.3533                12.3441
 IR Inten    --    319.4097               379.7788               125.7550

                     43                     44                     45
                      A                      A                      A
 Frequencies --   1311.4983              1366.3979              1416.5948
 Red. masses --     12.7807                12.5109                20.7041
 Frc consts  --     12.9521                13.7624                24.4792
 IR Inten    --      7.2318                59.0468               210.5084

 - Thermochemistry -
 -------------------
 Temperature   298.150 Kelvin.  Pressure   1.00000 Atm.
 Atom     1 has atomic number  6 and mass  12.00000

 Molecular mass:   301.94593 amu.
 Principal axes and moments of inertia in atomic units:
                           1         2         3
     Eigenvalues --  2098.756535817.957116145.90985
           X            0.99999   0.00330   0.00319
           Y           -0.00327   0.99995  -0.00947
           Z           -0.00322   0.00946   0.99995
 This molecule is an asymmetric top.
 Rotational symmetry number  1.
 Warning -- assumption of classical behavior for rotation
           may cause significant error
 Rotational temperatures (Kelvin)      0.04127     0.01489     0.01409
 Rotational constants (GHZ):           0.85991     0.31020     0.29365
 Zero-point vibrational energy     167673.9 (Joules/Mol)
                                   40.07502 (Kcal/Mol)
 Warning -- explicit consideration of  27 degrees of freedom as
           vibrations may cause significant error
 Vibrational temperatures:     52.51    57.43    78.67   118.13   153.92
          (Kelvin)            195.42   253.14   277.94   310.27   322.77
                              333.05   365.51   405.05   425.14   434.91
                              456.56   497.81   524.24   542.52   609.60
                              633.52   676.27   746.59   772.33   813.79
                              833.08   883.92   932.54   985.61  1072.39
                             1140.91  1244.72  1468.40  1631.46  1679.56
                             1728.13  1746.82  1754.51  1789.68  1807.00
                             1825.69  1860.49  1886.95  1965.94  2038.16

 Zero-point correction=                           0.063864 (Hartree/Particle)
 Thermal correction to Energy=                    0.079766
 Thermal correction to Enthalpy=                  0.080711
 Thermal correction to Gibbs Free Energy=         0.019403
 Sum of electronic and zero-point Energies=          -1699.293196
 Sum of electronic and thermal Energies=             -1699.277294
 Sum of electronic and thermal Enthalpies=           -1699.276350
 Sum of electronic and thermal Free Energies=        -1699.337657

                     E (Thermal)             CV                S
                      KCal/Mol        Cal/Mol-Kelvin    Cal/Mol-Kelvin
 Total                   50.054             55.839            129.033
 Electronic               0.000              0.000              0.000
 Translational            0.889              2.981             43.012
 Rotational               0.889              2.981             32.684
 Vibrational             48.277             49.878             53.337
 Vibration     1          0.594              1.982              5.441
 Vibration     2          0.594              1.981              5.263
 Vibration     3          0.596              1.976              4.641
 Vibration     4          0.600              1.961              3.840
 Vibration     5          0.606              1.944              3.323
 Vibration     6          0.614              1.918              2.862
 Vibration     7          0.628              1.872              2.371
 Vibration     8          0.635              1.849              2.197
 Vibration     9          0.645              1.817              1.995
 Vibration    10          0.649              1.804              1.924
 Vibration    11          0.653              1.793              1.867
 Vibration    12          0.665              1.756              1.702
 Vibration    13          0.681              1.708              1.524
 Vibration    14          0.690              1.682              1.442
 Vibration    15          0.694              1.669              1.404
 Vibration    16          0.704              1.641              1.324
 Vibration    17          0.724              1.583              1.184
 Vibration    18          0.738              1.546              1.103
 Vibration    19          0.748              1.519              1.051
 Vibration    20          0.786              1.419              0.880
 Vibration    21          0.800              1.382              0.826
 Vibration    22          0.827              1.317              0.737
 Vibration    23          0.874              1.208              0.613
 Vibration    24          0.892              1.169              0.572
 Vibration    25          0.921              1.106              0.513
 Vibration    26          0.936              1.077              0.487
 Vibration    27          0.974              1.001              0.426

 Optimization completed.
    -- Stationary point found.
 Normal termination of Gaussian 16 at Mon Aug 24 21:26:24 2020.
 Gaussian 16:  ES64L-G16RevA.03 25-Dec-2016

 ----------------------------------------------------------------------
 # TD(NStates=10, Root=1) B3LYP/6-31G* scf=qc volume pop=NPA density=cu
 rrent Geom=AllCheck Guess=Read
 ----------------------------------------------------------------------

 Structure from the checkpoint file:  "sulfonylfluoride_4_conf183.chk"
 -------------------
 Title Card Required
 -------------------
 Charge =  0 Multiplicity = 1

                         Standard orientation:
 ---------------------------------------------------------------------
 Center     Atomic      Atomic             Coordinates (Angstroms)
 Number     Number       Type             X           Y           Z
 ---------------------------------------------------------------------
      1          6           0        1.617943    0.661182    0.255486
      2          6           0        0.143233    0.715735   -0.253035
      3          6           0       -0.766047   -0.470982    0.156046
      4          9           0       -0.472905   -1.546112   -0.593065
      5          9           0       -0.618438   -0.759776    1.455498
      6         16           0       -2.603583   -0.159268   -0.144008
      7          8           0       -2.788226    0.608375   -1.354538
      8          8           0       -3.298622   -1.393138    0.142951
      9          9           0       -2.838648    0.828461    1.104207
     10          9           0       -0.392382    1.849358    0.258218
     11          9           0        0.155800    0.789793   -1.598023
     12          9           0        1.611892    0.779043    1.601263
     13          9           0        2.241096    1.733017   -0.282288
     14          6           0        2.441900   -0.596646   -0.112796
     15          9           0        2.374096   -0.834713   -1.427647
     16          9           0        3.716720   -0.401612    0.233165
     17          9           0        1.970542   -1.662943    0.551184
 ---------------------------------------------------------------------

 SCF Done:  E(RB3LYP) =  -1699.35706009     a.u. after    1 cycles

 Excitation energies and oscillator strengths:

 Excited State   1:      Singlet-A      7.4413 eV  166.62 nm  f=0.0002  <S**2>=0.000
      72 -> 74         0.66626
      72 -> 75         0.18001
      72 -> 76         0.11473
 This state for optimization and/or second-order correction.
 Total Energy, E(TD-HF/TD-DFT) =  -1699.08359758
 Copying the excited state density for this state as the 1-particle RhoCI density.

 Excited State   2:      Singlet-A      7.6569 eV  161.92 nm  f=0.0132  <S**2>=0.000
      71 -> 75         0.14501
      72 -> 74         0.12369
      72 -> 75        -0.32067
      73 -> 74         0.25585
      73 -> 75         0.52042

 Excited State   3:      Singlet-A      7.7321 eV  160.35 nm  f=0.0098  <S**2>=0.000
      71 -> 75        -0.23710
      72 -> 74        -0.13696
      72 -> 75         0.50362
      73 -> 74         0.21980
      73 -> 75         0.29884

 Excited State   4:      Singlet-A      7.8661 eV  157.62 nm  f=0.1635  <S**2>=0.000
      71 -> 74         0.27868
      73 -> 74         0.54760
      73 -> 75        -0.30348

 Excited State   5:      Singlet-A      7.9938 eV  155.10 nm  f=0.0707  <S**2>=0.000
      71 -> 74         0.62685
      73 -> 74        -0.22299
      73 -> 75         0.12424

 Excited State   6:      Singlet-A      8.4512 eV  146.71 nm  f=0.0123  <S**2>=0.000
      71 -> 75         0.58301
      72 -> 75         0.20632
      72 -> 76         0.17821
      72 -> 78        -0.12522
      73 -> 76         0.12245

 Excited State   7:      Singlet-A      8.6866 eV  142.73 nm  f=0.0065  <S**2>=0.000
      70 -> 74         0.50611
      73 -> 76        -0.44180

 Excited State   8:      Singlet-A      8.7747 eV  141.30 nm  f=0.0051  <S**2>=0.000
      70 -> 74         0.43604
      70 -> 75        -0.19323
      72 -> 76        -0.20702
      73 -> 76         0.44007

 Excited State   9:      Singlet-A      8.9402 eV  138.68 nm  f=0.0152  <S**2>=0.000
      69 -> 75         0.13567
      70 -> 75        -0.20823
      71 -> 75        -0.10404
      71 -> 76         0.19375
      71 -> 78        -0.12011
      72 -> 75        -0.13163
      72 -> 76         0.53355
      72 -> 78        -0.11563

 Excited State  10:      Singlet-A      9.0226 eV  137.41 nm  f=0.0085  <S**2>=0.000
      68 -> 75         0.12054
      70 -> 75         0.57153
      72 -> 76         0.15349
      73 -> 75         0.10214
      73 -> 76         0.24463
      73 -> 77         0.10690

 The electronic state is 1-A.
 Alpha  occ. eigenvalues --  -89.18763 -24.78920 -24.78906 -24.77443 -24.77368
 Alpha  occ. eigenvalues --  -24.77297 -24.77204 -24.77196 -24.77039 -24.76856
 Alpha  occ. eigenvalues --  -24.76744 -19.21437 -19.21378 -10.48331 -10.45004
 Alpha  occ. eigenvalues --  -10.43371 -10.42631  -8.21198  -6.17855  -6.17510
 Alpha  occ. eigenvalues --   -6.17439  -1.35724  -1.34364  -1.32530  -1.30657
 Alpha  occ. eigenvalues --   -1.28857  -1.28012  -1.26862  -1.26462  -1.26103
 Alpha  occ. eigenvalues --   -1.25387  -1.15249  -1.07422  -0.85873  -0.81372
 Alpha  occ. eigenvalues --   -0.76101  -0.71172  -0.68964  -0.66026  -0.64780
 Alpha  occ. eigenvalues --   -0.64258  -0.63379  -0.62707  -0.62508  -0.60802
 Alpha  occ. eigenvalues --   -0.60163  -0.58867  -0.56101  -0.53485  -0.51846
 Alpha  occ. eigenvalues --   -0.51793  -0.51284  -0.50399  -0.50034  -0.49537
 Alpha  occ. eigenvalues --   -0.49331  -0.48629  -0.47998  -0.47541  -0.47197
 Alpha  occ. eigenvalues --   -0.46522  -0.46256  -0.46027  -0.45368  -0.45129
 Alpha  occ. eigenvalues --   -0.44680  -0.44183  -0.42325  -0.41646  -0.39014
 Alpha  occ. eigenvalues --   -0.38016  -0.36116  -0.35650
 Alpha virt. eigenvalues --   -0.03657  -0.02533   0.01019   0.03150   0.04713
 Alpha virt. eigenvalues --    0.06319   0.09678   0.14506   0.15718   0.16536
 Alpha virt. eigenvalues --    0.16963   0.19335   0.20265   0.23075   0.25137

 Mulliken charges:
               1
     1  C    0.475705
     2  C    0.518273
     3  C    0.313553
     4  F   -0.260209
     5  F   -0.245455
     6  S    1.061337
     7  O   -0.284885
     8  O   -0.276283
     9  F   -0.266008
    10  F   -0.273123
    11  F   -0.267237
    12  F   -0.268428
    13  F   -0.271827
    14  C    0.777939
    15  F   -0.242814
    16  F   -0.243877
    17  F   -0.246661
 Sum of Mulliken charges =   0.00000

 Dipole moment (field-independent basis, Debye):
    X=             -1.0396    Y=             -0.5035    Z=             -0.3986  Tot=              1.2220
 Quadrupole moment (field-independent basis, Debye-Ang):
   XX=            -93.6261   YY=            -96.5714   ZZ=            -96.0182
   XY=             -0.0426   XZ=              1.0961   YZ=              0.0885

 Summary of Natural Population Analysis:

                                       Natural Population
                Natural  -----------------------------------------------
    Atom  No    Charge         Core      Valence    Rydberg      Total
 -----------------------------------------------------------------------
      C    1    0.63712      1.99886     3.30810    0.05592     5.36288
      C    2    0.64827      1.99883     3.29613    0.05677     5.35173
      C    3    0.46297      1.99911     3.47215    0.06578     5.53703
      F    4   -0.35248      1.99993     7.34338    0.00916     9.35248
      F    5   -0.33769      1.99993     7.32814    0.00962     9.33769
      S    6    2.04015      9.99911     3.73326    0.22748    13.95985
      O    7   -0.62317      1.99989     6.59941    0.02387     8.62317
      O    8   -0.63010      1.99989     6.60605    0.02415     8.63010
      F    9   -0.48572      1.99997     7.47571    0.01003     9.48572
      F   10   -0.35265      1.99994     7.34398    0.00874     9.35265
      F   11   -0.34621      1.99993     7.33791    0.00837     9.34621
      F   12   -0.34482      1.99993     7.33653    0.00835     9.34482
      F   13   -0.34698      1.99994     7.33847    0.00857     9.34698
      C   14    1.07078      1.99923     2.85588    0.07411     4.92922
      F   15   -0.34685      1.99993     7.33962    0.00730     9.34685
      F   16   -0.34250      1.99993     7.33527    0.00730     9.34250
      F   17   -0.35013      1.99993     7.34266    0.00755     9.35013
 =======================================================================
   * Total *   -0.00000     41.99427   103.39265    0.61308   146.00000

 Normal termination of Gaussian 16 at Mon Aug 24 21:35:55 2020.
