 Gaussian 16, Revision A.03,

 ---------------------------------
 # opt=CalcAll B3LYP/6-31G* scf=qc
 ---------------------------------

 -------------------
 Title Card Required
 -------------------
 Symbolic Z-matrix:
 Charge =  0 Multiplicity = 1

 SCF Done:  E(RB3LYP) =  -1036.28866288     a.u. after    8 cycles
 SCF Done:  E(RB3LYP) =  -1036.29716140     a.u. after   13 cycles
 SCF Done:  E(RB3LYP) =  -1036.29809484     a.u. after   15 cycles
 SCF Done:  E(RB3LYP) =  -1036.29820683     a.u. after   15 cycles
 SCF Done:  E(RB3LYP) =  -1036.29823513     a.u. after    7 cycles
 SCF Done:  E(RB3LYP) =  -1036.29823607     a.u. after    5 cycles
 SCF Done:  E(RB3LYP) =  -1036.29823318     a.u. after    5 cycles
 SCF Done:  E(RB3LYP) =  -1036.29823568     a.u. after    2 cycles
 SCF Done:  E(RB3LYP) =  -1036.29823141     a.u. after    4 cycles
 SCF Done:  E(RB3LYP) =  -1036.29823803     a.u. after    3 cycles
 SCF Done:  E(RB3LYP) =  -1036.29823332     a.u. after    2 cycles
 SCF Done:  E(RB3LYP) =  -1036.29823039     a.u. after    2 cycles
 SCF Done:  E(RB3LYP) =  -1036.29823741     a.u. after    2 cycles
 SCF Done:  E(RB3LYP) =  -1036.29823793     a.u. after    2 cycles
 SCF Done:  E(RB3LYP) =  -1036.29823453     a.u. after    3 cycles
 SCF Done:  E(RB3LYP) =  -1036.29822941     a.u. after    2 cycles
 SCF Done:  E(RB3LYP) =  -1036.29823509     a.u. after    2 cycles
 SCF Done:  E(RB3LYP) =  -1036.29822924     a.u. after    2 cycles
 Optimization completed.
    -- Stationary point found.
 Normal termination of Gaussian 16 at Sun Aug 23 09:35:40 2020.

 ----------------------------------------------------------------------
 # freq B3LYP/6-31G* scf=qc volume NMR pop=NPA density=current Geom=All
 Check Guess=Read
 ----------------------------------------------------------------------

 Structure from the checkpoint file:  "phosphine_1_conf272.chk"
 -------------------
 Title Card Required
 -------------------
 Charge =  0 Multiplicity = 1

 SCF Done:  E(RB3LYP) =  -1036.29822924     a.u. after    1 cycles

      1  C    Isotropic =    68.1689   Anisotropy =   167.3347

      2  C    Isotropic =    68.6728   Anisotropy =   163.8914

      3  C    Isotropic =    62.5793   Anisotropy =   174.0281

      4  C    Isotropic =    56.0910   Anisotropy =   179.4291

      5  C    Isotropic =    61.0107   Anisotropy =   164.1329

      6  C    Isotropic =    68.7270   Anisotropy =   164.1317

      7  P    Isotropic =   361.4760   Anisotropy =    39.5393

      8  C    Isotropic =    56.1174   Anisotropy =   179.4121

      9  C    Isotropic =    62.6093   Anisotropy =   174.0471

     10  C    Isotropic =    68.6797   Anisotropy =   163.8921

     11  C    Isotropic =    68.1626   Anisotropy =   167.3188

     12  C    Isotropic =    68.7273   Anisotropy =   164.1227

     13  C    Isotropic =    61.0235   Anisotropy =   164.1604

     14  C    Isotropic =    56.1430   Anisotropy =   179.4584

     15  C    Isotropic =    61.0165   Anisotropy =   164.1605

     16  C    Isotropic =    68.7332   Anisotropy =   164.0907

     17  C    Isotropic =    68.1596   Anisotropy =   167.2995

     18  C    Isotropic =    68.6790   Anisotropy =   163.9028

     19  C    Isotropic =    62.5849   Anisotropy =   174.1165

     20  H    Isotropic =    25.0201   Anisotropy =     3.6395

     21  H    Isotropic =    25.0478   Anisotropy =     6.0880

     22  H    Isotropic =    25.4020   Anisotropy =    12.2358

     23  H    Isotropic =    24.6130   Anisotropy =     9.2558

     24  H    Isotropic =    24.9265   Anisotropy =     4.5893

     25  H    Isotropic =    25.4032   Anisotropy =    12.2365

     26  H    Isotropic =    25.0487   Anisotropy =     6.0866

     27  H    Isotropic =    25.0213   Anisotropy =     3.6391

     28  H    Isotropic =    24.9262   Anisotropy =     4.5888

     29  H    Isotropic =    24.6130   Anisotropy =     9.2586

     30  H    Isotropic =    24.6110   Anisotropy =     9.2506

     31  H    Isotropic =    24.9306   Anisotropy =     4.5799

     32  H    Isotropic =    25.0236   Anisotropy =     3.6332

     33  H    Isotropic =    25.0478   Anisotropy =     6.0870

     34  H    Isotropic =    25.3967   Anisotropy =    12.2401

  Exact polarizability: 224.222   0.041 224.140  -0.034   0.024 164.957
 Approx polarizability: 331.067   0.095 330.935  -0.083   0.054 307.846

                      1                      2                      3
                      A                      A                      A
 Frequencies --     21.1406                21.6777                37.4972
 Red. masses --      3.7928                 3.7945                 3.6885
 Frc consts  --      0.0010                 0.0011                 0.0031
 IR Inten    --      0.2837                 0.2808                 0.0018

                      4                      5                      6
                      A                      A                      A
 Frequencies --     53.1116                53.2508                70.5189
 Red. masses --      5.2561                 5.2558                 5.1680
 Frc consts  --      0.0087                 0.0088                 0.0151
 IR Inten    --      0.0809                 0.0859                 0.3108

                      7                      8                      9
                      A                      A                      A
 Frequencies --    181.5603               202.3231               202.5339
 Red. masses --      4.5601                 4.6424                 4.6398
 Frc consts  --      0.0886                 0.1120                 0.1121
 IR Inten    --      0.3518                 1.1359                 1.1371

                     10                     11                     12
                      A                      A                      A
 Frequencies --    245.5546               259.8330               259.9557
 Red. masses --      5.7391                 4.7205                 4.7226
 Frc consts  --      0.2039                 0.1878                 0.1880
 IR Inten    --      0.4844                 0.2230                 0.2226

                     13                     14                     15
                      A                      A                      A
 Frequencies --    408.6795               408.7556               412.2865
 Red. masses --      3.0766                 3.0777                 3.6142
 Frc consts  --      0.3028                 0.3030                 0.3620
 IR Inten    --      1.9502                 1.9608                 0.1646

                     16                     17                     18
                      A                      A                      A
 Frequencies --    416.9502               429.4281               429.5582
 Red. masses --      4.5818                 7.3055                 7.3204
 Frc consts  --      0.4693                 0.7937                 0.7958
 IR Inten    --      0.5568                 7.6644                 7.7092

                     19                     20                     21
                      A                      A                      A
 Frequencies --    509.3631               509.5276               516.3419
 Red. masses --      4.2482                 4.2466                 4.5879
 Frc consts  --      0.6494                 0.6496                 0.7207
 IR Inten    --     26.0892                26.0880                11.9928

                     22                     23                     24
                      A                      A                      A
 Frequencies --    632.7253               632.7343               633.3506
 Red. masses --      6.4270                 6.4272                 6.4368
 Frc consts  --      1.5160                 1.5161                 1.5213
 IR Inten    --      0.1801                 0.1811                 0.0161

                     25                     26                     27
                      A                      A                      A
 Frequencies --    691.8583               705.1183               705.1669
 Red. masses --      6.5803                 5.6911                 5.7009
 Frc consts  --      1.8558                 1.6671                 1.6702
 IR Inten    --      0.7711                 1.1933                 1.2122

                     28                     29                     30
                      A                      A                      A
 Frequencies --    712.1847               712.2548               713.2077
 Red. masses --      2.2049                 2.2008                 2.1331
 Frc consts  --      0.6589                 0.6578                 0.6393
 IR Inten    --     26.3014                26.3258                16.6183

                     31                     32                     33
                      A                      A                      A
 Frequencies --    761.3802               762.8440               762.8707
 Red. masses --      1.6155                 1.6499                 1.6487
 Frc consts  --      0.5518                 0.5657                 0.5653
 IR Inten    --     19.2637                24.9065                24.8854

                     34                     35                     36
                      A                      A                      A
 Frequencies --    866.0660               866.1769               868.7000
 Red. masses --      1.2478                 1.2478                 1.2463
 Frc consts  --      0.5515                 0.5516                 0.5541
 IR Inten    --      0.2256                 0.2281                 0.1339

                     37                     38                     39
                      A                      A                      A
 Frequencies --    932.7320               932.8875               934.1571
 Red. masses --      1.3445                 1.3443                 1.3387
 Frc consts  --      0.6892                 0.6893                 0.6883
 IR Inten    --      1.2631                 1.2620                 0.0292

                     40                     41                     42
                      A                      A                      A
 Frequencies --    975.6848               975.8230               977.5695
 Red. masses --      1.3615                 1.3613                 1.3557
 Frc consts  --      0.7636                 0.7638                 0.7633
 IR Inten    --      0.0161                 0.0174                 0.1409

                     43                     44                     45
                      A                      A                      A
 Frequencies --   1000.3070              1000.3656              1001.0796
 Red. masses --      1.2544                 1.2543                 1.2527
 Frc consts  --      0.7395                 0.7396                 0.7397
 IR Inten    --      0.0756                 0.0790                 0.0002

                     46                     47                     48
                      A                      A                      A
 Frequencies --   1015.3641              1015.3727              1015.7427
 Red. masses --      6.3133                 6.3109                 6.3080
 Frc consts  --      3.8349                 3.8335                 3.8345
 IR Inten    --      4.3469                 4.3632                 0.0469

                     49                     50                     51
                      A                      A                      A
 Frequencies --   1052.6797              1052.7209              1052.9055
 Red. masses --      3.3064                 3.3134                 3.2513
 Frc consts  --      2.1587                 2.1635                 2.1237
 IR Inten    --      2.1240                 2.0991                 0.0378

                     52                     53                     54
                      A                      A                      A
 Frequencies --   1107.7121              1108.0125              1109.4891
 Red. masses --      1.8904                 1.8781                 1.6544
 Frc consts  --      1.3667                 1.3585                 1.1999
 IR Inten    --      4.3741                 4.1322                 2.8748

                     55                     56                     57
                      A                      A                      A
 Frequencies --   1110.7214              1110.7812              1116.1437
 Red. masses --      2.1843                 2.1942                 2.6145
 Frc consts  --      1.5877                 1.5951                 1.9190
 IR Inten    --      9.3419                 9.4060                 1.2411

                     58                     59                     60
                      A                      A                      A
 Frequencies --   1193.4642              1193.8483              1193.9194
 Red. masses --      1.1033                 1.1000                 1.1001
 Frc consts  --      0.9259                 0.9237                 0.9239
 IR Inten    --      0.0018                 0.1338                 0.1294

                     61                     62                     63
                      A                      A                      A
 Frequencies --   1219.0363              1219.3563              1220.8296
 Red. masses --      1.1474                 1.1477                 1.1473
 Frc consts  --      1.0046                 1.0054                 1.0074
 IR Inten    --      6.0457                 6.0741                 0.3291

                     64                     65                     66
                      A                      A                      A
 Frequencies --   1324.9669              1328.5925              1328.7575
 Red. masses --      3.4911                 3.4614                 3.4964
 Frc consts  --      3.6109                 3.5998                 3.6372
 IR Inten    --      2.6313                 2.4346                 2.4432

                     67                     68                     69
                      A                      A                      A
 Frequencies --   1364.9148              1365.2114              1365.5323
 Red. masses --      1.6637                 1.6536                 1.6447
 Frc consts  --      1.8262                 1.8159                 1.8069
 IR Inten    --      0.1651                 0.2615                 2.9547

                     70                     71                     72
                      A                      A                      A
 Frequencies --   1480.4735              1480.9346              1480.9839
 Red. masses --      2.1108                 2.1158                 2.1157
 Frc consts  --      2.7258                 2.7339                 2.7340
 IR Inten    --     16.6403                 6.6069                 6.6000

                     73                     74                     75
                      A                      A                      A
 Frequencies --   1531.0138              1531.4360              1531.5692
 Red. masses --      2.0153                 1.9996                 1.9982
 Frc consts  --      2.7833                 2.7631                 2.7616
 IR Inten    --      2.0018                10.1683                10.1459

                     76                     77                     78
                      A                      A                      A
 Frequencies --   1630.1369              1630.3989              1630.4499
 Red. masses --      5.1007                 5.1153                 5.1132
 Frc consts  --      7.9860                 8.0114                 8.0086
 IR Inten    --      0.3976                 0.0446                 0.0446

                     79                     80                     81
                      A                      A                      A
 Frequencies --   1646.1220              1646.1499              1647.9308
 Red. masses --      5.2733                 5.2711                 5.2835
 Frc consts  --      8.4189                 8.4157                 8.4537
 IR Inten    --      3.5084                 3.5266                 0.3183

                     82                     83                     84
                      A                      A                      A
 Frequencies --   3176.0850              3176.1001              3176.1124
 Red. masses --      1.0854                 1.0853                 1.0853
 Frc consts  --      6.4508                 6.4507                 6.4507
 IR Inten    --      2.4299                 1.8437                 1.7425

                     85                     86                     87
                      A                      A                      A
 Frequencies --   3182.6502              3182.6610              3182.7280
 Red. masses --      1.0875                 1.0875                 1.0876
 Frc consts  --      6.4902                 6.4902                 6.4911
 IR Inten    --      0.7810                 0.7974                 0.1118

                     88                     89                     90
                      A                      A                      A
 Frequencies --   3192.8401              3192.8569              3192.9760
 Red. masses --      1.0916                 1.0916                 1.0917
 Frc consts  --      6.5567                 6.5568                 6.5578
 IR Inten    --     10.2803                10.3851                47.6587

                     91                     92                     93
                      A                      A                      A
 Frequencies --   3203.9249              3203.9723              3204.3318
 Red. masses --      1.0941                 1.0942                 1.0943
 Frc consts  --      6.6173                 6.6180                 6.6199
 IR Inten    --     41.5899                42.1750                 4.3916

                     94                     95                     96
                      A                      A                      A
 Frequencies --   3210.1155              3210.2119              3211.0507
 Red. masses --      1.0956                 1.0955                 1.0956
 Frc consts  --      6.6521                 6.6519                 6.6555
 IR Inten    --     19.8660                19.1736                16.3089

 - Thermochemistry -
 -------------------
 Temperature   298.150 Kelvin.  Pressure   1.00000 Atm.
 Atom     1 has atomic number  6 and mass  12.00000

 Molecular mass:   262.09114 amu.
 Principal axes and moments of inertia in atomic units:
                           1         2         3
     Eigenvalues --  5161.369595163.590218681.16079
           X            0.99978   0.02095  -0.00001
           Y           -0.02095   0.99978   0.00001
           Z            0.00001  -0.00001   1.00000
 This molecule is an asymmetric top.
 Rotational symmetry number  1.
 Warning -- assumption of classical behavior for rotation
           may cause significant error
 Rotational temperatures (Kelvin)      0.01678     0.01677     0.00998
 Rotational constants (GHZ):           0.34966     0.34951     0.20789
 Zero-point vibrational energy     719909.0 (Joules/Mol)
                                  172.06238 (Kcal/Mol)
 Warning -- explicit consideration of  21 degrees of freedom as
           vibrations may cause significant error
 Vibrational temperatures:     30.42    31.19    53.95    76.42    76.62
          (Kelvin)            101.46   261.22   291.10   291.40   353.30
                              373.84   374.02   588.00   588.11   593.19
                              599.90   617.85   618.04   732.86   733.10
                              742.90   910.35   910.36   911.25   995.43
                             1014.51  1014.58  1024.67  1024.78  1026.15
                             1095.46  1097.56  1097.60  1246.08  1246.24
                             1249.87  1341.99  1342.22  1344.04  1403.79
                             1403.99  1406.50  1439.22  1439.30  1440.33
                             1460.88  1460.89  1461.43  1514.57  1514.63
                             1514.90  1593.75  1594.18  1596.31  1598.08
                             1598.17  1605.88  1717.13  1717.68  1717.78
                             1753.92  1754.38  1756.50  1906.33  1911.55
                             1911.79  1963.81  1964.23  1964.70  2130.07
                             2130.73  2130.81  2202.79  2203.39  2203.59
                             2345.40  2345.78  2345.85  2368.40  2368.44
                             2371.00  4569.68  4569.70  4569.72  4579.12
                             4579.14  4579.24  4593.78  4593.81  4593.98
                             4609.73  4609.80  4610.32  4618.64  4618.78
                             4619.99

 Zero-point correction=                           0.274199 (Hartree/Particle)
 Thermal correction to Energy=                    0.290132
 Thermal correction to Enthalpy=                  0.291077
 Thermal correction to Gibbs Free Energy=         0.227557
 Sum of electronic and zero-point Energies=          -1036.024030
 Sum of electronic and thermal Energies=             -1036.008097
 Sum of electronic and thermal Enthalpies=           -1036.007153
 Sum of electronic and thermal Free Energies=        -1036.070673

                     E (Thermal)             CV                S
                      KCal/Mol        Cal/Mol-Kelvin    Cal/Mol-Kelvin
 Total                  182.061             62.542            133.689
 Electronic               0.000              0.000              0.000
 Translational            0.889              2.981             42.590
 Rotational               0.889              2.981             33.803
 Vibrational            180.283             56.581             57.296
 Vibration     1          0.593              1.985              6.524
 Vibration     2          0.593              1.985              6.474
 Vibration     3          0.594              1.982              5.387
 Vibration     4          0.596              1.976              4.698
 Vibration     5          0.596              1.976              4.693
 Vibration     6          0.598              1.968              4.139
 Vibration     7          0.630              1.865              2.312
 Vibration     8          0.639              1.837              2.112
 Vibration     9          0.639              1.836              2.110
 Vibration    10          0.660              1.770              1.762
 Vibration    11          0.668              1.746              1.663
 Vibration    12          0.668              1.746              1.662
 Vibration    13          0.773              1.451              0.931
 Vibration    14          0.773              1.451              0.931
 Vibration    15          0.776              1.444              0.919
 Vibration    16          0.780              1.433              0.902
 Vibration    17          0.791              1.406              0.861
 Vibration    18          0.791              1.406              0.860
 Vibration    19          0.865              1.229              0.635
 Vibration    20          0.865              1.229              0.635
 Vibration    21          0.871              1.214              0.619

                           ! Non-Optimized Parameters !
 Normal termination of Gaussian 16 at Sun Aug 23 09:47:01 2020.
 Gaussian 16:  ES64L-G16RevA.03 25-Dec-2016

 ----------------------------------------------------------------------
 # TD(NStates=10, Root=1) B3LYP/6-31G* scf=qc volume pop=NPA density=cu
 rrent Geom=AllCheck Guess=Read
 ----------------------------------------------------------------------

 Structure from the checkpoint file:  "phosphine_1_conf273.chk"
 -------------------
 Title Card Required
 -------------------
 Charge =  0 Multiplicity = 1

                         Standard orientation:
 ---------------------------------------------------------------------
 Center     Atomic      Atomic             Coordinates (Angstroms)
 Number     Number       Type             X           Y           Z
 ---------------------------------------------------------------------
      1          6           0       -0.577356   -4.240815    0.652017
      2          6           0       -1.177667   -3.147833    1.278971
      3          6           0       -1.018155   -1.861879    0.757899
      4          6           0       -0.258187   -1.650325   -0.402618
      5          6           0        0.328614   -2.761410   -1.031788
      6          6           0        0.179159   -4.044188   -0.505242
      7         15           0        0.000118    0.000316   -1.206623
      8          6           0       -1.300411    1.049201   -0.402801
      9          6           0       -1.103607    1.814427    0.756840
     10          6           0       -2.137846    2.595278    1.277686
     11          6           0       -3.384917    2.620289    0.651405
     12          6           0       -3.592945    1.865493   -0.504985
     13          6           0       -2.556435    1.094983   -1.031334
     14          6           0        1.558840    0.601667   -0.402686
     15          6           0        2.228821    1.664193   -1.032652
     16          6           0        3.414574    2.175811   -0.505990
     17          6           0        3.962010    1.619804    0.652192
     18          6           0        3.314430    0.554629    1.279987
     19          6           0        2.120922    0.050163    0.758793
     20          1           0       -0.703555   -5.240833    1.058620
     21          1           0       -1.771954   -3.294264    2.177492
     22          1           0       -1.490934   -1.020013    1.254718
     23          1           0        0.903003   -2.618891   -1.944418
     24          1           0        0.643847   -4.890785   -1.004106
     25          1           0       -0.137911    1.804095    1.253209
     26          1           0       -1.967478    3.184170    2.175539
     27          1           0       -4.188105    3.229367    1.057860
     28          1           0       -4.558763    1.885082   -1.003320
     29          1           0       -2.720301    0.525257   -1.943306
     30          1           0        1.819021    2.089683   -1.945968
     31          1           0        3.916330    3.000615   -1.005454
     32          1           0        4.891228    2.010239    1.058892
     33          1           0        3.737537    0.113857    2.179240
     34          1           0        1.627213   -0.779252    1.256182
 ---------------------------------------------------------------------

 SCF Done:  E(RB3LYP) =  -1036.29822924     a.u. after    1 cycles

 Excitation energies and oscillator strengths:

 Excited State   1:      Singlet-A      4.5096 eV  274.93 nm  f=0.1278  <S**2>=0.000
      69 -> 70         0.69666
 This state for optimization and/or second-order correction.
 Total Energy, E(TD-HF/TD-DFT) =  -1036.13250336
 Copying the excited state density for this state as the 1-particle RhoCI density.

 Excited State   2:      Singlet-A      4.5107 eV  274.87 nm  f=0.1282  <S**2>=0.000
      69 -> 71         0.69664

 Excited State   3:      Singlet-A      4.7557 eV  260.70 nm  f=0.0022  <S**2>=0.000
      67 -> 70         0.11741
      68 -> 71         0.11759
      69 -> 72         0.67477

 Excited State   4:      Singlet-A      5.0574 eV  245.15 nm  f=0.0002  <S**2>=0.000
      66 -> 70        -0.16775
      67 -> 70         0.13443
      68 -> 71        -0.13424
      69 -> 74         0.63096

 Excited State   5:      Singlet-A      5.0578 eV  245.14 nm  f=0.0002  <S**2>=0.000
      66 -> 71         0.16805
      67 -> 71         0.13471
      68 -> 70         0.13462
      69 -> 75         0.63073

 Excited State   6:      Singlet-A      5.1500 eV  240.75 nm  f=0.0085  <S**2>=0.000
      69 -> 73         0.67911

 Excited State   7:      Singlet-A      5.4279 eV  228.42 nm  f=0.0147  <S**2>=0.000
      63 -> 72        -0.16604
      64 -> 74        -0.13411
      65 -> 75        -0.13299
      67 -> 70         0.41027
      68 -> 70         0.10048
      68 -> 71         0.40776
      69 -> 72        -0.16477

 Excited State   8:      Singlet-A      5.5142 eV  224.85 nm  f=0.0004  <S**2>=0.000
      63 -> 74         0.14386
      64 -> 71         0.10080
      64 -> 72         0.20901
      64 -> 75         0.10041
      65 -> 70        -0.10153
      65 -> 72         0.19088
      66 -> 70         0.22548
      67 -> 70        -0.26536
      68 -> 71         0.26964
      68 -> 72        -0.16156
      69 -> 74         0.28725

 Excited State   9:      Singlet-A      5.5147 eV  224.83 nm  f=0.0004  <S**2>=0.000
      63 -> 75         0.14405
      64 -> 70        -0.10040
      64 -> 72        -0.19103
      65 -> 71        -0.10061
      65 -> 72         0.20910
      66 -> 71        -0.22491
      67 -> 71        -0.26717
      67 -> 72        -0.16153
      68 -> 70        -0.26891
      69 -> 75         0.28764

 Excited State  10:      Singlet-A      5.6184 eV  220.68 nm  f=0.0009  <S**2>=0.000
      67 -> 70        -0.14407
      67 -> 71        -0.45902
      68 -> 70         0.46330
      68 -> 71        -0.14348

 The electronic state is 1-A.
 Alpha  occ. eigenvalues --  -77.08113 -10.19448 -10.19447 -10.19447 -10.19148
 Alpha  occ. eigenvalues --  -10.19146 -10.19145 -10.19118 -10.19117 -10.19117
 Alpha  occ. eigenvalues --  -10.19031 -10.19030 -10.19030 -10.19008 -10.19007
 Alpha  occ. eigenvalues --  -10.19007 -10.18962 -10.18961 -10.18961  -6.54844
 Alpha  occ. eigenvalues --   -4.71103  -4.71103  -4.70602  -0.85560  -0.84846
 Alpha  occ. eigenvalues --   -0.84845  -0.76670  -0.74366  -0.74366  -0.74328
 Alpha  occ. eigenvalues --   -0.73821  -0.73821  -0.64436  -0.60334  -0.60308
 Alpha  occ. eigenvalues --   -0.60307  -0.59207  -0.59207  -0.55448  -0.51436
 Alpha  occ. eigenvalues --   -0.51435  -0.49295  -0.45441  -0.45440  -0.44773
 Alpha  occ. eigenvalues --   -0.44345  -0.44345  -0.44067  -0.41946  -0.41869
 Alpha  occ. eigenvalues --   -0.41868  -0.40378  -0.40377  -0.36845  -0.36351
 Alpha  occ. eigenvalues --   -0.36349  -0.35899  -0.34252  -0.34251  -0.34224
 Alpha  occ. eigenvalues --   -0.31884  -0.31883  -0.26782  -0.25448  -0.25445
 Alpha  occ. eigenvalues --   -0.25244  -0.24704  -0.24703  -0.21141
 Alpha virt. eigenvalues --   -0.01879  -0.01877  -0.00833   0.00172   0.00429
 Alpha virt. eigenvalues --    0.00431   0.06880   0.06886   0.09493   0.11037
 Alpha virt. eigenvalues --    0.11038   0.13906   0.14528   0.14528   0.15164

 Mulliken charges:
               1
     1  C   -0.135778
     2  C   -0.115868
     3  C   -0.161674
     4  C   -0.090298
     5  C   -0.152713
     6  C   -0.123888
     7  P    0.450632
     8  C   -0.097073
     9  C   -0.149387
    10  C   -0.122756
    11  C   -0.130382
    12  C   -0.116648
    13  C   -0.166546
    14  C   -0.134093
    15  C   -0.172938
    16  C   -0.122504
    17  C   -0.170029
    18  C   -0.119440
    19  C   -0.174452
    20  H    0.135139
    21  H    0.137778
    22  H    0.149904
    23  H    0.142232
    24  H    0.135338
    25  H    0.175515
    26  H    0.142260
    27  H    0.139482
    28  H    0.137216
    29  H    0.139982
    30  H    0.111929
    31  H    0.112001
    32  H    0.105934
    33  H    0.115630
    34  H    0.125494
 Sum of Mulliken charges =   0.00000

 Dipole moment (field-independent basis, Debye):
    X=             -3.6443    Y=             -0.9345    Z=             -0.1952  Tot=              3.7673
 Quadrupole moment (field-independent basis, Debye-Ang):
   XX=           -117.9115   YY=           -109.1337   ZZ=           -110.6837
   XY=             -5.4829   XZ=             -1.2587   YZ=              0.4970

 Summary of Natural Population Analysis:

                                       Natural Population
                Natural  -----------------------------------------------
    Atom  No    Charge         Core      Valence    Rydberg      Total
 -----------------------------------------------------------------------
      C    1   -0.22796      1.99909     4.21419    0.01468     6.22796
      C    2   -0.22337      1.99909     4.21021    0.01407     6.22337
      C    3   -0.23614      1.99899     4.22025    0.01690     6.23614
      C    4   -0.40018      1.99889     4.37725    0.02405     6.40018
      C    5   -0.19960      1.99901     4.18531    0.01528     6.19960
      C    6   -0.24465      1.99910     4.23082    0.01473     6.24465
      P    7    1.24205      9.99750     3.71021    0.05024    13.75795
      C    8   -0.40713      1.99890     4.38235    0.02588     6.40713
      C    9   -0.20534      1.99900     4.18994    0.01640     6.20534
      C   10   -0.23536      1.99909     4.22197    0.01430     6.23536
      C   11   -0.21625      1.99909     4.20278    0.01438     6.21625
      C   12   -0.23160      1.99910     4.21829    0.01421     6.23160
      C   13   -0.21875      1.99902     4.20417    0.01556     6.21875
      C   14   -0.48944      1.99886     4.46500    0.02558     6.48944
      C   15   -0.23599      1.99901     4.22058    0.01639     6.23599
      C   16   -0.24431      1.99910     4.23019    0.01503     6.24431
      C   17   -0.30038      1.99910     4.28450    0.01678     6.30038
      C   18   -0.23139      1.99909     4.21766    0.01464     6.23139
      C   19   -0.26112      1.99899     4.24406    0.01808     6.26112
      H   20    0.23740      0.00000     0.76174    0.00086     0.76260
      H   21    0.24137      0.00000     0.75776    0.00087     0.75863
      H   22    0.24712      0.00000     0.75162    0.00126     0.75288
      H   23    0.23947      0.00000     0.75928    0.00124     0.76053
      H   24    0.24005      0.00000     0.75908    0.00087     0.75995
      H   25    0.26097      0.00000     0.73769    0.00134     0.73903
      H   26    0.24359      0.00000     0.75553    0.00087     0.75641
      H   27    0.23916      0.00000     0.75997    0.00086     0.76084
      H   28    0.24022      0.00000     0.75884    0.00094     0.75978
      H   29    0.23683      0.00000     0.76207    0.00110     0.76317
      H   30    0.22289      0.00000     0.77613    0.00098     0.77711
      H   31    0.22880      0.00000     0.77028    0.00092     0.77120
      H   32    0.22470      0.00000     0.77440    0.00090     0.77530
      H   33    0.23120      0.00000     0.76793    0.00088     0.76880
      H   34    0.23313      0.00000     0.76535    0.00152     0.76687
 =======================================================================
   * Total *   -0.00000     45.98001    91.64740    0.37259   138.00000

 Normal termination of Gaussian 16 at Sun Aug 23 09:58:35 2020.
