 Gaussian 16, Revision A.03,

 ---------------------------------
 # opt=CalcAll B3LYP/6-31G* scf=qc
 ---------------------------------

 -------------------
 Title Card Required
 -------------------
 Symbolic Z-matrix:
 Charge =  0 Multiplicity = 1

 SCF Done:  E(RB3LYP) =  -1029.61312201     a.u. after    9 cycles
 SCF Done:  E(RB3LYP) =  -1029.62175579     a.u. after   17 cycles
 SCF Done:  E(RB3LYP) =  -1029.62544854     a.u. after   19 cycles
 SCF Done:  E(RB3LYP) =  -1029.62621059     a.u. after   15 cycles
 SCF Done:  E(RB3LYP) =  -1029.62629458     a.u. after   15 cycles
 SCF Done:  E(RB3LYP) =  -1029.62641685     a.u. after   13 cycles
 SCF Done:  E(RB3LYP) =  -1029.62641956     a.u. after    5 cycles
 SCF Done:  E(RB3LYP) =  -1029.62642032     a.u. after    4 cycles
 SCF Done:  E(RB3LYP) =  -1029.62641765     a.u. after    2 cycles
 SCF Done:  E(RB3LYP) =  -1029.62641978     a.u. after    2 cycles
 Optimization completed.
    -- Stationary point found.
 Normal termination of Gaussian 16 at Sun Aug 23 13:45:33 2020.

 ----------------------------------------------------------------------
 # freq B3LYP/6-31G* scf=qc volume NMR pop=NPA density=current Geom=All
 Check Guess=Read
 ----------------------------------------------------------------------

 Structure from the checkpoint file:  "phosphine_9_conf122.chk"
 -------------------
 Title Card Required
 -------------------
 Charge =  0 Multiplicity = 1

 SCF Done:  E(RB3LYP) =  -1029.62641978     a.u. after    1 cycles

      1  C    Isotropic =    85.5697   Anisotropy =   118.5054

      2  C    Isotropic =    73.1460   Anisotropy =   124.0916

      3  C    Isotropic =    45.4400   Anisotropy =    89.4520

      4  O    Isotropic =    34.1277   Anisotropy =   306.4657

      5  C    Isotropic =    50.5021   Anisotropy =    99.4223

      6  P    Isotropic =   456.7565   Anisotropy =    26.4558

      7  C    Isotropic =    45.4419   Anisotropy =    89.5084

      8  C    Isotropic =    73.1660   Anisotropy =   124.1105

      9  C    Isotropic =    85.5964   Anisotropy =   118.5645

     10  C    Isotropic =    50.5099   Anisotropy =    99.4441

     11  O    Isotropic =    34.1814   Anisotropy =   306.5558

     12  C    Isotropic =    45.4603   Anisotropy =    89.4545

     13  C    Isotropic =    73.1497   Anisotropy =   124.1079

     14  C    Isotropic =    85.5773   Anisotropy =   118.5282

     15  C    Isotropic =    50.5034   Anisotropy =    99.4424

     16  O    Isotropic =    34.1347   Anisotropy =   306.5219

     17  H    Isotropic =    26.2076   Anisotropy =     2.5195

     18  H    Isotropic =    25.6988   Anisotropy =     5.0645

     19  H    Isotropic =    24.7378   Anisotropy =     4.1101

     20  H    Isotropic =    25.6985   Anisotropy =     5.0638

     21  H    Isotropic =    26.2077   Anisotropy =     2.5239

     22  H    Isotropic =    24.7378   Anisotropy =     4.1115

     23  H    Isotropic =    25.6988   Anisotropy =     5.0638

     24  H    Isotropic =    26.2064   Anisotropy =     2.5200

     25  H    Isotropic =    24.7370   Anisotropy =     4.1112

  Exact polarizability: 152.714  -0.011 152.701  -0.013  -0.034 141.403
 Approx polarizability: 212.361  -0.029 212.362  -0.032  -0.083 259.123

                      1                      2                      3
                      A                      A                      A
 Frequencies --     30.9319                49.1587                49.2450
 Red. masses --      4.7229                 4.7322                 4.7289
 Frc consts  --      0.0027                 0.0067                 0.0068
 IR Inten    --      0.0000                 0.6301                 0.6266

                      4                      5                      6
                      A                      A                      A
 Frequencies --     55.0636                55.3918                78.5795
 Red. masses --      5.7772                 5.7567                 6.1651
 Frc consts  --      0.0103                 0.0104                 0.0224
 IR Inten    --      0.0465                 0.0397                 0.8195

                      7                      8                      9
                      A                      A                      A
 Frequencies --    173.5463               219.1348               219.1790
 Red. masses --      5.7398                 6.0765                 6.0754
 Frc consts  --      0.1019                 0.1719                 0.1720
 IR Inten    --      0.0000                 0.3402                 0.3427

                     10                     11                     12
                      A                      A                      A
 Frequencies --    299.9053               299.9415               301.2596
 Red. masses --      5.8022                 5.8034                 5.8128
 Frc consts  --      0.3075                 0.3076                 0.3108
 IR Inten    --      8.7083                 8.7364                 1.8462

                     13                     14                     15
                      A                      A                      A
 Frequencies --    491.1456               491.2215               501.8872
 Red. masses --     14.6819                14.6800                15.1519
 Frc consts  --      2.0867                 2.0870                 2.2487
 IR Inten    --     65.0649                65.0261                17.5462

                     16                     17                     18
                      A                      A                      A
 Frequencies --    611.5043               611.5105               611.8220
 Red. masses --      3.1889                 3.1890                 3.2575
 Frc consts  --      0.7026                 0.7026                 0.7184
 IR Inten    --      7.8431                 7.8389                 0.0018

                     19                     20                     21
                      A                      A                      A
 Frequencies --    644.2956               673.8718               673.9143
 Red. masses --      5.8910                 6.2540                 6.2539
 Frc consts  --      1.4408                 1.6733                 1.6734
 IR Inten    --      0.0000                 5.5106                 5.5186

                     22                     23                     24
                      A                      A                      A
 Frequencies --    759.6174               760.5602               760.5626
 Red. masses --      1.2767                 1.2829                 1.2829
 Frc consts  --      0.4341                 0.4372                 0.4372
 IR Inten    --      0.0004                63.3142                63.3385

                     25                     26                     27
                      A                      A                      A
 Frequencies --    827.7069               829.4545               829.4920
 Red. masses --      1.2501                 1.2568                 1.2567
 Frc consts  --      0.5046                 0.5095                 0.5095
 IR Inten    --      0.0016                10.3478                10.3593

                     28                     29                     30
                      A                      A                      A
 Frequencies --    878.2613               879.1579               879.2000
 Red. masses --      1.3046                 1.3071                 1.3071
 Frc consts  --      0.5929                 0.5953                 0.5953
 IR Inten    --      0.0005                 0.8600                 0.8696

                     31                     32                     33
                      A                      A                      A
 Frequencies --    899.6971               899.6990               901.6768
 Red. masses --      6.3306                 6.3307                 6.2896
 Frc consts  --      3.0191                 3.0192                 3.0128
 IR Inten    --      5.1207                 5.1246                 0.2211

                     34                     35                     36
                      A                      A                      A
 Frequencies --    923.5755               924.0847               924.1038
 Red. masses --      4.7533                 4.7733                 4.7725
 Frc consts  --      2.3888                 2.4015                 2.4013
 IR Inten    --     16.9521                 7.5765                 7.5722

                     37                     38                     39
                      A                      A                      A
 Frequencies --   1037.7194              1037.7425              1038.9743
 Red. masses --      1.3910                 1.3912                 1.3988
 Frc consts  --      0.8826                 0.8827                 0.8897
 IR Inten    --     43.4761                43.5272                19.2522

                     40                     41                     42
                      A                      A                      A
 Frequencies --   1101.9921              1102.0098              1103.1044
 Red. masses --      2.3262                 2.3263                 2.2697
 Frc consts  --      1.6644                 1.6645                 1.6273
 IR Inten    --      0.0140                 0.0136                 2.0758

                     43                     44                     45
                      A                      A                      A
 Frequencies --   1154.0016              1154.0126              1157.1837
 Red. masses --      5.0454                 5.0466                 6.3816
 Frc consts  --      3.9587                 3.9598                 5.0348
 IR Inten    --     22.2862                22.2705                 6.3184

                     46                     47                     48
                      A                      A                      A
 Frequencies --   1194.0373              1194.0465              1195.0002
 Red. masses --      2.2780                 2.2788                 2.1495
 Frc consts  --      1.9135                 1.9143                 1.8085
 IR Inten    --      3.3867                 3.3727                 7.4853

                     49                     50                     51
                      A                      A                      A
 Frequencies --   1247.7762              1247.7959              1252.1174
 Red. masses --      1.6776                 1.6775                 1.6029
 Frc consts  --      1.5389                 1.5389                 1.4807
 IR Inten    --      7.6184                 7.6373                 0.4647

                     52                     53                     54
                      A                      A                      A
 Frequencies --   1420.7473              1420.7575              1423.1936
 Red. masses --      2.5289                 2.5287                 2.6528
 Frc consts  --      3.0076                 3.0074                 3.1658
 IR Inten    --      0.4476                 0.4445                12.9517

                     55                     56                     57
                      A                      A                      A
 Frequencies --   1488.0426              1488.0573              1504.0557
 Red. masses --      5.4707                 5.4709                 5.3986
 Frc consts  --      7.1371                 7.1375                 7.1955
 IR Inten    --      0.3122                 0.3090                29.6958

                     58                     59                     60
                      A                      A                      A
 Frequencies --   1605.9662              1605.9746              1610.6776
 Red. masses --      4.7434                 4.7435                 4.9252
 Frc consts  --      7.2080                 7.2081                 7.5281
 IR Inten    --      3.3068                 3.3112                 3.2404

                     61                     62                     63
                      A                      A                      A
 Frequencies --   3263.7150              3263.7334              3263.8084
 Red. masses --      1.0903                 1.0903                 1.0904
 Frc consts  --      6.8428                 6.8429                 6.8433
 IR Inten    --      3.8828                 3.8194                 1.3772

                     64                     65                     66
                      A                      A                      A
 Frequencies --   3275.1855              3275.2044              3275.3681
 Red. masses --      1.0967                 1.0967                 1.0968
 Frc consts  --      6.9312                 6.9313                 6.9328
 IR Inten    --      1.0557                 1.0500                 2.8208

                     67                     68                     69
                      A                      A                      A
 Frequencies --   3296.3168              3296.3269              3296.4427
 Red. masses --      1.1053                 1.1053                 1.1053
 Frc consts  --      7.0761                 7.0762                 7.0767
 IR Inten    --      2.6756                 2.6750                 3.1551

 - Thermochemistry -
 -------------------
 Temperature   298.150 Kelvin.  Pressure   1.00000 Atm.
 Atom     1 has atomic number  6 and mass  12.00000

 Molecular mass:   232.02893 amu.
 Principal axes and moments of inertia in atomic units:
                           1         2         3
     Eigenvalues --  3573.205563574.033945646.45745
           X            0.99934  -0.03625  -0.00000
           Y            0.03625   0.99934  -0.00001
           Z            0.00000   0.00001   1.00000
 This molecule is an asymmetric top.
 Rotational symmetry number  1.
 Warning -- assumption of classical behavior for rotation
           may cause significant error
 Rotational temperatures (Kelvin)      0.02424     0.02423     0.01534
 Rotational constants (GHZ):           0.50508     0.50496     0.31962
 Zero-point vibrational energy     480363.2 (Joules/Mol)
                                  114.80955 (Kcal/Mol)
 Warning -- explicit consideration of  18 degrees of freedom as
           vibrations may cause significant error
 Vibrational temperatures:     44.50    70.73    70.85    79.22    79.70
          (Kelvin)            113.06   249.69   315.29   315.35   431.50
                              431.55   433.45   706.65   706.76   722.10
                              879.82   879.83   880.28   927.00   969.55
                              969.61  1092.92  1094.28  1094.28  1190.89
                             1193.40  1193.45  1263.62  1264.91  1264.97
                             1294.46  1294.47  1297.31  1328.82  1329.55
                             1329.58  1493.05  1493.08  1494.85  1585.52
                             1585.55  1587.12  1660.35  1660.37  1664.93
                             1717.95  1717.97  1719.34  1795.27  1795.30
                             1801.52  2044.14  2044.15  2047.66  2140.96
                             2140.98  2164.00  2310.63  2310.64  2317.41
                             4695.76  4695.78  4695.89  4712.26  4712.29
                             4712.52  4742.66  4742.68  4742.85

 Zero-point correction=                           0.182961 (Hartree/Particle)
 Thermal correction to Energy=                    0.196556
 Thermal correction to Enthalpy=                  0.197501
 Thermal correction to Gibbs Free Energy=         0.139587
 Sum of electronic and zero-point Energies=          -1029.443459
 Sum of electronic and thermal Energies=             -1029.429863
 Sum of electronic and thermal Enthalpies=           -1029.428919
 Sum of electronic and thermal Free Energies=        -1029.486832

                     E (Thermal)             CV                S
                      KCal/Mol        Cal/Mol-Kelvin    Cal/Mol-Kelvin
 Total                  123.341             50.683            121.889
 Electronic               0.000              0.000              0.000
 Translational            0.889              2.981             42.227
 Rotational               0.889              2.981             32.644
 Vibrational            121.564             44.722             47.017
 Vibration     1          0.594              1.984              5.769
 Vibration     2          0.595              1.978              4.851
 Vibration     3          0.595              1.978              4.847
 Vibration     4          0.596              1.976              4.627
 Vibration     5          0.596              1.975              4.615
 Vibration     6          0.600              1.964              3.926
 Vibration     7          0.627              1.875              2.397
 Vibration     8          0.647              1.812              1.966
 Vibration     9          0.647              1.812              1.966
 Vibration    10          0.692              1.674              1.417
 Vibration    11          0.692              1.674              1.417
 Vibration    12          0.693              1.671              1.410
 Vibration    13          0.847              1.270              0.681
 Vibration    14          0.847              1.269              0.680
 Vibration    15          0.857              1.246              0.653
 Vibration    16          0.971              1.007              0.430
 Vibration    17          0.971              1.007              0.430
 Vibration    18          0.971              1.007              0.430

                           ! Non-Optimized Parameters !
 Normal termination of Gaussian 16 at Sun Aug 23 13:51:48 2020.
 Gaussian 16:  ES64L-G16RevA.03 25-Dec-2016

 ----------------------------------------------------------------------
 # TD(NStates=10, Root=1) B3LYP/6-31G* scf=qc volume pop=NPA density=cu
 rrent Geom=AllCheck Guess=Read
 ----------------------------------------------------------------------

 Structure from the checkpoint file:  "phosphine_9_conf123.chk"
 -------------------
 Title Card Required
 -------------------
 Charge =  0 Multiplicity = 1

                         Standard orientation:
 ---------------------------------------------------------------------
 Center     Atomic      Atomic             Coordinates (Angstroms)
 Number     Number       Type             X           Y           Z
 ---------------------------------------------------------------------
      1          6           0       -3.670402    1.171551    0.012306
      2          6           0       -2.737488    0.873973   -1.029248
      3          6           0       -1.565604    0.499894   -0.423931
      4          8           0       -1.727889    0.551508    0.941879
      5          6           0       -3.000769    0.957706    1.179987
      6         15           0       -0.000010    0.000360   -1.200179
      7          6           0        1.215694    1.106019   -0.423764
      8          6           0        2.124636    1.935112   -1.028820
      9          6           0        2.849574    2.593077    0.012949
     10          6           0        2.330966    2.118160    1.180478
     11          8           0        1.342908    1.218829    0.942058
     12          6           0        0.349861   -1.605482   -0.424299
     13          6           0        0.613836   -2.806957   -1.029640
     14          6           0        0.821485   -3.763922    0.011913
     15          6           0        0.669239   -3.077664    1.179598
     16          8           0        0.383990   -1.772354    0.941482
     17          1           0       -4.695378    1.498669   -0.093475
     18          1           0       -2.906306    0.928023   -2.096001
     19          1           0       -3.276367    1.045521    2.220613
     20          1           0        2.254757    2.055855   -2.095530
     21          1           0        3.644944    3.317661   -0.092590
     22          1           0        2.545809    2.311475    2.221171
     23          1           0        0.653506   -2.979743   -2.096388
     24          1           0        1.051669   -4.814921   -0.093864
     25          1           0        0.729261   -3.360617    2.220225
 ---------------------------------------------------------------------

 SCF Done:  E(RB3LYP) =  -1029.62641978     a.u. after    1 cycles

 Excitation energies and oscillator strengths:

 Excited State   1:      Singlet-A      4.9630 eV  249.82 nm  f=0.0965  <S**2>=0.000
      58 -> 61        -0.13521
      59 -> 62        -0.13519
      60 -> 61         0.66785
 This state for optimization and/or second-order correction.
 Total Energy, E(TD-HF/TD-DFT) =  -1029.44403264
 Copying the excited state density for this state as the 1-particle RhoCI density.

 Excited State   2:      Singlet-A      4.9631 eV  249.81 nm  f=0.0964  <S**2>=0.000
      58 -> 62         0.13513
      59 -> 61        -0.13512
      60 -> 62         0.66787

 Excited State   3:      Singlet-A      5.2297 eV  237.08 nm  f=0.0000  <S**2>=0.000
      58 -> 61        -0.12850
      58 -> 62         0.47984
      59 -> 61         0.48092
      59 -> 62         0.12871

 Excited State   4:      Singlet-A      5.4391 eV  227.95 nm  f=0.2553  <S**2>=0.000
      58 -> 61         0.37297
      58 -> 62         0.29177
      59 -> 61        -0.29134
      59 -> 62         0.37350
      60 -> 61         0.19702

 Excited State   5:      Singlet-A      5.4392 eV  227.95 nm  f=0.2553  <S**2>=0.000
      58 -> 61        -0.29168
      58 -> 62         0.37374
      59 -> 61        -0.37279
      59 -> 62        -0.29134
      60 -> 62        -0.19696

 Excited State   6:      Singlet-A      5.6449 eV  219.64 nm  f=0.0188  <S**2>=0.000
      57 -> 61         0.69230
      57 -> 62         0.11846

 Excited State   7:      Singlet-A      5.6451 eV  219.63 nm  f=0.0181  <S**2>=0.000
      57 -> 61        -0.11851
      57 -> 62         0.69214

 Excited State   8:      Singlet-A      5.6720 eV  218.59 nm  f=0.0271  <S**2>=0.000
      58 -> 61        -0.41381
      58 -> 62        -0.11088
      59 -> 61        -0.11068
      59 -> 62         0.41383
      60 -> 63        -0.35101

 Excited State   9:      Singlet-A      6.4074 eV  193.50 nm  f=0.1262  <S**2>=0.000
      55 -> 61         0.10186
      58 -> 61        -0.23641
      59 -> 62         0.22823
      60 -> 63         0.57578

 Excited State  10:      Singlet-A      6.4082 eV  193.48 nm  f=0.0294  <S**2>=0.000
      54 -> 62        -0.11593
      56 -> 61         0.61056
      60 -> 64         0.21449

 The electronic state is 1-A.
 Alpha  occ. eigenvalues --  -77.09900 -19.20973 -19.20973 -19.20973 -10.23630
 Alpha  occ. eigenvalues --  -10.23630 -10.23629 -10.23157 -10.23157 -10.23156
 Alpha  occ. eigenvalues --  -10.18878 -10.18878 -10.18878 -10.18538 -10.18538
 Alpha  occ. eigenvalues --  -10.18538  -6.56536  -4.72803  -4.72803  -4.72308
 Alpha  occ. eigenvalues --   -1.10362  -1.10057  -1.10056  -0.79703  -0.79450
 Alpha  occ. eigenvalues --   -0.79450  -0.77102  -0.73474  -0.73473  -0.64509
 Alpha  occ. eigenvalues --   -0.59767  -0.59217  -0.59216  -0.55729  -0.55728
 Alpha  occ. eigenvalues --   -0.54558  -0.52773  -0.52771  -0.48777  -0.44893
 Alpha  occ. eigenvalues --   -0.44892  -0.43420  -0.43190  -0.43190  -0.41807
 Alpha  occ. eigenvalues --   -0.40120  -0.40120  -0.39939  -0.38026  -0.38024
 Alpha  occ. eigenvalues --   -0.37386  -0.35018  -0.35015  -0.27632  -0.27632
 Alpha  occ. eigenvalues --   -0.27287  -0.25563  -0.23355  -0.23354  -0.21505
 Alpha virt. eigenvalues --   -0.01154  -0.01153   0.02998   0.06727   0.06728
 Alpha virt. eigenvalues --    0.07685   0.07692   0.08987   0.10313   0.12633
 Alpha virt. eigenvalues --    0.12634   0.13503   0.14896   0.15172   0.15173

 Mulliken charges:
               1
     1  C   -0.167851
     2  C   -0.175404
     3  C    0.164606
     4  O   -0.371730
     5  C    0.138605
     6  P    0.258052
     7  C    0.074025
     8  C   -0.197529
     9  C   -0.175956
    10  C    0.056750
    11  O   -0.424751
    12  C    0.111712
    13  C   -0.188273
    14  C   -0.172586
    15  C    0.090800
    16  O   -0.402691
    17  H    0.174133
    18  H    0.183512
    19  H    0.193625
    20  H    0.124687
    21  H    0.123095
    22  H    0.132005
    23  H    0.149182
    24  H    0.144341
    25  H    0.157640
 Sum of Mulliken charges =  -0.00000

 Dipole moment (field-independent basis, Debye):
    X=             -5.2679    Y=             -0.6248    Z=              1.2077  Tot=              5.4406
 Quadrupole moment (field-independent basis, Debye-Ang):
   XX=            -81.3791   YY=            -89.7755   ZZ=            -90.9277
   XY=             -7.2398   XZ=             -1.1046   YZ=             -0.1348

 Summary of Natural Population Analysis:

                                       Natural Population
                Natural  -----------------------------------------------
    Atom  No    Charge         Core      Valence    Rydberg      Total
 -----------------------------------------------------------------------
      C    1   -0.30235      1.99911     4.29016    0.01308     6.30235
      C    2   -0.27404      1.99896     4.26108    0.01400     6.27404
      C    3    0.06418      1.99891     3.89933    0.03757     5.93582
      O    4   -0.44661      1.99974     6.42639    0.02048     8.44661
      C    5    0.20409      1.99906     3.77423    0.02262     5.79591
      P    6    0.78950      9.99806     4.14559    0.06685    14.21050
      C    7   -0.11978      1.99885     4.08381    0.03713     6.11978
      C    8   -0.32905      1.99893     4.31463    0.01549     6.32905
      C    9   -0.33162      1.99908     4.31933    0.01321     6.33162
      C   10    0.06670      1.99905     3.90829    0.02596     5.93330
      O   11   -0.48378      1.99974     6.46916    0.01488     8.48378
      C   12   -0.04213      1.99887     4.00672    0.03653     6.04213
      C   13   -0.30584      1.99894     4.29194    0.01495     6.30584
      C   14   -0.31937      1.99909     4.30708    0.01320     6.31937
      C   15    0.12467      1.99905     3.85242    0.02385     5.87533
      O   16   -0.46995      1.99974     6.44962    0.02059     8.46995
      H   17    0.26022      0.00000     0.73944    0.00034     0.73978
      H   18    0.26751      0.00000     0.73202    0.00047     0.73249
      H   19    0.23801      0.00000     0.76146    0.00053     0.76199
      H   20    0.23908      0.00000     0.76042    0.00051     0.76092
      H   21    0.23761      0.00000     0.76194    0.00045     0.76239
      H   22    0.21209      0.00000     0.78731    0.00060     0.78791
      H   23    0.25092      0.00000     0.74852    0.00055     0.74908
      H   24    0.24702      0.00000     0.75254    0.00044     0.75298
      H   25    0.22291      0.00000     0.77644    0.00065     0.77709
 =======================================================================
   * Total *    0.00000     39.98519    79.61989    0.39492   120.00000

 Normal termination of Gaussian 16 at Sun Aug 23 14:01:12 2020.
