 Gaussian 16, Revision A.03,

 ---------------------------------
 # opt=CalcAll B3LYP/6-31G* scf=qc
 ---------------------------------

 -------------------
 Title Card Required
 -------------------
 Symbolic Z-matrix:
 Charge =  0 Multiplicity = 1

 SCF Done:  E(RB3LYP) =  -1029.60005519     a.u. after    9 cycles
 SCF Done:  E(RB3LYP) =  -1029.61715587     a.u. after   17 cycles
 SCF Done:  E(RB3LYP) =  -1029.62304025     a.u. after   19 cycles
 SCF Done:  E(RB3LYP) =  -1029.62469242     a.u. after   15 cycles
 SCF Done:  E(RB3LYP) =  -1029.62487299     a.u. after   13 cycles
 SCF Done:  E(RB3LYP) =  -1029.62487406     a.u. after    5 cycles
 SCF Done:  E(RB3LYP) =  -1029.62487545     a.u. after    2 cycles
 Optimization completed.
    -- Stationary point found.
 Normal termination of Gaussian 16 at Sun Aug 23 14:34:59 2020.

 ----------------------------------------------------------------------
 # freq B3LYP/6-31G* scf=qc volume NMR pop=NPA density=current Geom=All
 Check Guess=Read
 ----------------------------------------------------------------------

 Structure from the checkpoint file:  "phosphine_9_conf42.chk"
 -------------------
 Title Card Required
 -------------------
 Charge =  0 Multiplicity = 1

 SCF Done:  E(RB3LYP) =  -1029.62487545     a.u. after    1 cycles

      1  C    Isotropic =    84.7373   Anisotropy =   121.1192

      2  C    Isotropic =    75.8300   Anisotropy =   132.5836

      3  C    Isotropic =    43.3795   Anisotropy =    89.2024

      4  O    Isotropic =    39.8144   Anisotropy =   300.7795

      5  C    Isotropic =    50.6512   Anisotropy =    98.8529

      6  P    Isotropic =   433.0235   Anisotropy =    38.0963

      7  C    Isotropic =    43.4058   Anisotropy =    89.2466

      8  C    Isotropic =    75.8561   Anisotropy =   132.6920

      9  C    Isotropic =    84.7229   Anisotropy =   121.0891

     10  C    Isotropic =    50.6715   Anisotropy =    98.8886

     11  O    Isotropic =    39.8072   Anisotropy =   300.8822

     12  C    Isotropic =    43.4003   Anisotropy =    89.2416

     13  C    Isotropic =    75.8460   Anisotropy =   132.6991

     14  C    Isotropic =    84.7251   Anisotropy =   121.0624

     15  C    Isotropic =    50.6655   Anisotropy =    98.8673

     16  O    Isotropic =    39.8146   Anisotropy =   300.8725

     17  H    Isotropic =    26.0622   Anisotropy =     2.3687

     18  H    Isotropic =    25.9773   Anisotropy =     7.4791

     19  H    Isotropic =    24.7866   Anisotropy =     3.5201

     20  H    Isotropic =    25.9751   Anisotropy =     7.4777

     21  H    Isotropic =    26.0648   Anisotropy =     2.3647

     22  H    Isotropic =    24.7878   Anisotropy =     3.5187

     23  H    Isotropic =    25.9730   Anisotropy =     7.4853

     24  H    Isotropic =    26.0660   Anisotropy =     2.3667

     25  H    Isotropic =    24.7879   Anisotropy =     3.5205

  Exact polarizability: 162.516  -0.013 162.510   0.009  -0.009 116.232
 Approx polarizability: 231.331  -0.034 231.325   0.022  -0.028 223.290

                      1                      2                      3
                      A                      A                      A
 Frequencies --     36.9385                37.2973                55.0677
 Red. masses --      4.8315                 4.8351                 4.5701
 Frc consts  --      0.0039                 0.0040                 0.0082
 IR Inten    --      0.1577                 0.1563                 0.1373

                      4                      5                      6
                      A                      A                      A
 Frequencies --     58.5564                58.5683                77.4212
 Red. masses --      5.4033                 5.3999                 5.3530
 Frc consts  --      0.0109                 0.0109                 0.0189
 IR Inten    --      0.3648                 0.3666                 0.4506

                      7                      8                      9
                      A                      A                      A
 Frequencies --    201.8851               222.1385               222.2199
 Red. masses --      5.6710                 5.6189                 5.6181
 Frc consts  --      0.1362                 0.1634                 0.1635
 IR Inten    --      0.5776                 2.6679                 2.6650

                     10                     11                     12
                      A                      A                      A
 Frequencies --    279.9065               294.5186               294.6126
 Red. masses --      8.1154                 6.4472                 6.4490
 Frc consts  --      0.3746                 0.3295                 0.3298
 IR Inten    --      2.9395                 2.5652                 2.5655

                     13                     14                     15
                      A                      A                      A
 Frequencies --    479.9706               495.4360               495.4535
 Red. masses --     10.9401                13.6867                13.6866
 Frc consts  --      1.4849                 1.9794                 1.9795
 IR Inten    --     22.5540                38.2017                38.2162

                     16                     17                     18
                      A                      A                      A
 Frequencies --    611.4541               611.4747               612.0839
 Red. masses --      3.2808                 3.2799                 3.2707
 Frc consts  --      0.7227                 0.7226                 0.7220
 IR Inten    --      9.0300                 9.0319                 3.6178

                     19                     20                     21
                      A                      A                      A
 Frequencies --    658.8243               658.9379               664.2112
 Red. masses --      6.1359                 6.1344                 6.4748
 Frc consts  --      1.5692                 1.5693                 1.6830
 IR Inten    --      5.8055                 5.8266                 0.6563

                     22                     23                     24
                      A                      A                      A
 Frequencies --    755.6720               756.0440               756.1020
 Red. masses --      1.2878                 1.2873                 1.2873
 Frc consts  --      0.4333                 0.4335                 0.4336
 IR Inten    --     33.8512                46.0306                46.1687

                     25                     26                     27
                      A                      A                      A
 Frequencies --    826.7996               826.8997               829.5603
 Red. masses --      1.2423                 1.2422                 1.2354
 Frc consts  --      0.5003                 0.5005                 0.5009
 IR Inten    --     12.0081                11.9996                 4.8014

                     28                     29                     30
                      A                      A                      A
 Frequencies --    878.8436               878.9477               882.3964
 Red. masses --      1.3009                 1.3009                 1.2980
 Frc consts  --      0.5920                 0.5921                 0.5955
 IR Inten    --      1.5912                 1.6096                 0.1948

                     31                     32                     33
                      A                      A                      A
 Frequencies --    900.0930               900.1041               900.1615
 Red. masses --      6.2494                 6.2434                 6.1312
 Frc consts  --      2.9831                 2.9803                 2.9271
 IR Inten    --      3.4389                 3.4483                 3.7619

                     34                     35                     36
                      A                      A                      A
 Frequencies --    924.2015               925.9150               925.9376
 Red. masses --      4.7028                 4.7161                 4.7161
 Frc consts  --      2.3667                 2.3822                 2.3823
 IR Inten    --     14.9355                 3.5865                 3.5744

                     37                     38                     39
                      A                      A                      A
 Frequencies --   1035.7802              1035.8853              1037.9570
 Red. masses --      1.4140                 1.4140                 1.3867
 Frc consts  --      0.8938                 0.8940                 0.8802
 IR Inten    --     13.9763                13.9836                52.0486

                     40                     41                     42
                      A                      A                      A
 Frequencies --   1103.9992              1104.0248              1106.2334
 Red. masses --      2.2015                 2.2028                 2.1816
 Frc consts  --      1.5809                 1.5819                 1.5730
 IR Inten    --      1.1679                 1.1664                 1.5297

                     43                     44                     45
                      A                      A                      A
 Frequencies --   1140.7118              1140.7366              1147.5543
 Red. masses --      5.6083                 5.6108                 4.7350
 Frc consts  --      4.2996                 4.3018                 3.6738
 IR Inten    --      2.4538                 2.4472                24.8665

                     46                     47                     48
                      A                      A                      A
 Frequencies --   1197.1801              1197.1894              1200.8653
 Red. masses --      2.2390                 2.2388                 2.4371
 Frc consts  --      1.8907                 1.8906                 2.0707
 IR Inten    --      9.3361                 9.3519                 1.1845

                     49                     50                     51
                      A                      A                      A
 Frequencies --   1249.3972              1249.4941              1250.2649
 Red. masses --      1.6663                 1.6659                 1.7060
 Frc consts  --      1.5325                 1.5323                 1.5712
 IR Inten    --     19.1340                18.9979                 4.5957

                     52                     53                     54
                      A                      A                      A
 Frequencies --   1417.8712              1417.8793              1419.6497
 Red. masses --      2.5692                 2.5696                 2.5355
 Frc consts  --      3.0432                 3.0437                 3.0107
 IR Inten    --      1.0896                 1.0912                 3.8924

                     55                     56                     57
                      A                      A                      A
 Frequencies --   1490.3129              1496.6367              1496.6755
 Red. masses --      5.5373                 5.4222                 5.4217
 Frc consts  --      7.2460                 7.1558                 7.1555
 IR Inten    --     15.7807                11.2398                11.2091

                     58                     59                     60
                      A                      A                      A
 Frequencies --   1605.0775              1607.3443              1607.3514
 Red. masses --      4.8346                 4.8705                 4.8711
 Frc consts  --      7.3384                 7.4138                 7.4147
 IR Inten    --      3.4966                 1.6301                 1.6347

                     61                     62                     63
                      A                      A                      A
 Frequencies --   3264.4805              3264.4976              3264.6595
 Red. masses --      1.0904                 1.0904                 1.0904
 Frc consts  --      6.8462                 6.8463                 6.8470
 IR Inten    --      5.2962                 5.2884                 1.5004

                     64                     65                     66
                      A                      A                      A
 Frequencies --   3280.1160              3280.1492              3280.2010
 Red. masses --      1.0971                 1.0972                 1.0972
 Frc consts  --      6.9548                 6.9554                 6.9555
 IR Inten    --      1.0617                 0.4983                 0.5673

                     67                     68                     69
                      A                      A                      A
 Frequencies --   3299.1046              3299.1296              3299.1654
 Red. masses --      1.1046                 1.1046                 1.1046
 Frc consts  --      7.0832                 7.0833                 7.0836
 IR Inten    --      3.1220                 3.1757                 0.3759

 - Thermochemistry -
 -------------------
 Temperature   298.150 Kelvin.  Pressure   1.00000 Atm.
 Atom     1 has atomic number  6 and mass  12.00000

 Molecular mass:   232.02893 amu.
 Principal axes and moments of inertia in atomic units:
                           1         2         3
     Eigenvalues --  3613.574663613.814706126.46488
           X            0.99987  -0.01609   0.00000
           Y            0.01609   0.99987   0.00000
           Z           -0.00000  -0.00000   1.00000
 This molecule is an asymmetric top.
 Rotational symmetry number  1.
 Warning -- assumption of classical behavior for rotation
           may cause significant error
 Rotational temperatures (Kelvin)      0.02397     0.02397     0.01414
 Rotational constants (GHZ):           0.49943     0.49940     0.29458
 Zero-point vibrational energy     480194.4 (Joules/Mol)
                                  114.76921 (Kcal/Mol)
 Warning -- explicit consideration of  18 degrees of freedom as
           vibrations may cause significant error
 Vibrational temperatures:     53.15    53.66    79.23    84.25    84.27
          (Kelvin)            111.39   290.47   319.61   319.72   402.72
                              423.75   423.88   690.57   712.82   712.85
                              879.75   879.78   880.65   947.90   948.06
                              955.65  1087.24  1087.78  1087.86  1189.58
                             1189.72  1193.55  1264.46  1264.61  1269.57
                             1295.03  1295.05  1295.13  1329.72  1332.19
                             1332.22  1490.26  1490.41  1493.39  1588.41
                             1588.45  1591.62  1641.23  1641.27  1651.07
                             1722.48  1722.49  1727.78  1797.60  1797.74
                             1798.85  2040.00  2040.01  2042.56  2144.23
                             2153.33  2153.38  2309.35  2312.61  2312.62
                             4696.86  4696.88  4697.12  4719.36  4719.40
                             4719.48  4746.68  4746.71  4746.76

 Zero-point correction=                           0.182896 (Hartree/Particle)
 Thermal correction to Energy=                    0.196487
 Thermal correction to Enthalpy=                  0.197431
 Thermal correction to Gibbs Free Energy=         0.139617
 Sum of electronic and zero-point Energies=          -1029.441979
 Sum of electronic and thermal Energies=             -1029.428388
 Sum of electronic and thermal Enthalpies=           -1029.427444
 Sum of electronic and thermal Free Energies=        -1029.485259

                     E (Thermal)             CV                S
                      KCal/Mol        Cal/Mol-Kelvin    Cal/Mol-Kelvin
 Total                  123.298             50.781            121.681
 Electronic               0.000              0.000              0.000
 Translational            0.889              2.981             42.227
 Rotational               0.889              2.981             32.748
 Vibrational            121.520             44.819             46.707
 Vibration     1          0.594              1.982              5.417
 Vibration     2          0.594              1.982              5.398
 Vibration     3          0.596              1.976              4.627
 Vibration     4          0.596              1.974              4.505
 Vibration     5          0.596              1.974              4.505
 Vibration     6          0.599              1.964              3.955
 Vibration     7          0.639              1.837              2.116
 Vibration     8          0.648              1.807              1.942
 Vibration     9          0.648              1.807              1.941
 Vibration    10          0.680              1.711              1.534
 Vibration    11          0.689              1.684              1.448
 Vibration    12          0.689              1.684              1.447
 Vibration    13          0.836              1.294              0.710
 Vibration    14          0.851              1.260              0.670
 Vibration    15          0.851              1.260              0.670
 Vibration    16          0.971              1.008              0.430
 Vibration    17          0.971              1.008              0.430
 Vibration    18          0.971              1.006              0.429

 Optimization completed.
    -- Stationary point found.
 Normal termination of Gaussian 16 at Sun Aug 23 14:41:45 2020.
 Gaussian 16:  ES64L-G16RevA.03 25-Dec-2016

 ----------------------------------------------------------------------
 # TD(NStates=10, Root=1) B3LYP/6-31G* scf=qc volume pop=NPA density=cu
 rrent Geom=AllCheck Guess=Read
 ----------------------------------------------------------------------

 Structure from the checkpoint file:  "phosphine_9_conf43.chk"
 -------------------
 Title Card Required
 -------------------
 Charge =  0 Multiplicity = 1

                         Standard orientation:
 ---------------------------------------------------------------------
 Center     Atomic      Atomic             Coordinates (Angstroms)
 Number     Number       Type             X           Y           Z
 ---------------------------------------------------------------------
      1          6           0       -1.686058   -3.084897    0.975611
      2          6           0       -0.642820   -2.107638    0.911370
      3          6           0       -0.868447   -1.360162   -0.214162
      4          8           0       -1.991926   -1.833101   -0.854319
      5          6           0       -2.472831   -2.866760   -0.115015
      6         15           0       -0.000014   -0.000019   -1.070829
      7          6           0       -0.743601    1.432108   -0.214068
      8          6           0       -1.502181    1.610642    0.912491
      9          6           0       -1.827624    3.002575    0.976443
     10          6           0       -1.247275    3.574598   -0.115375
     11          8           0       -0.593082    2.641276   -0.855110
     12          6           0        1.612101   -0.072078   -0.214154
     13          6           0        2.146269    0.496232    0.911964
     14          6           0        3.514404    0.081996    0.975921
     15          6           0        3.719342   -0.707298   -0.115453
     16          8           0        2.583821   -0.807508   -0.854932
     17          1           0       -1.827563   -3.846286    1.730242
     18          1           0        0.175261   -1.972847    1.604654
     19          1           0       -3.367615   -3.337043   -0.494671
     20          1           0       -1.792993    0.834958    1.606618
     21          1           0       -2.415461    3.505885    1.731646
     22          1           0       -1.208337    4.584455   -0.495661
     23          1           0        1.620076    1.136387    1.605789
     24          1           0        4.244363    0.339797    1.730839
     25          1           0        4.574308   -1.246268   -0.495570
 ---------------------------------------------------------------------

 SCF Done:  E(RB3LYP) =  -1029.62487545     a.u. after    1 cycles

 Excitation energies and oscillator strengths:

 Excited State   1:      Singlet-A      4.7327 eV  261.98 nm  f=0.1416  <S**2>=0.000
      60 -> 61         0.69355
 This state for optimization and/or second-order correction.
 Total Energy, E(TD-HF/TD-DFT) =  -1029.45095319
 Copying the excited state density for this state as the 1-particle RhoCI density.

 Excited State   2:      Singlet-A      4.7335 eV  261.93 nm  f=0.1419  <S**2>=0.000
      60 -> 62         0.69353

 Excited State   3:      Singlet-A      5.3047 eV  233.73 nm  f=0.0000  <S**2>=0.000
      58 -> 61        -0.25222
      58 -> 62        -0.42655
      59 -> 61         0.42902
      59 -> 62        -0.25223

 Excited State   4:      Singlet-A      5.4001 eV  229.60 nm  f=0.0002  <S**2>=0.000
      58 -> 61         0.24639
      58 -> 62        -0.13125
      59 -> 61         0.13338
      59 -> 62         0.24771
      60 -> 63         0.58158

 Excited State   5:      Singlet-A      5.4658 eV  226.84 nm  f=0.1683  <S**2>=0.000
      58 -> 61         0.39845
      58 -> 62         0.28163
      59 -> 61         0.28043
      59 -> 62        -0.39760

 Excited State   6:      Singlet-A      5.4661 eV  226.82 nm  f=0.1686  <S**2>=0.000
      58 -> 61        -0.28101
      58 -> 62         0.39917
      59 -> 61         0.39686
      59 -> 62         0.28106

 Excited State   7:      Singlet-A      6.0316 eV  205.56 nm  f=0.0118  <S**2>=0.000
      58 -> 61        -0.33770
      58 -> 62         0.20915
      59 -> 61        -0.20872
      59 -> 62        -0.33780
      60 -> 63         0.39007

 Excited State   8:      Singlet-A      6.1710 eV  200.92 nm  f=0.0557  <S**2>=0.000
      54 -> 61        -0.12500
      57 -> 61        -0.46920
      59 -> 63         0.47943
      60 -> 64         0.10099

 Excited State   9:      Singlet-A      6.1715 eV  200.90 nm  f=0.0555  <S**2>=0.000
      54 -> 62         0.12488
      57 -> 62         0.46895
      58 -> 63         0.47947
      60 -> 65        -0.10081

 Excited State  10:      Singlet-A      6.2519 eV  198.32 nm  f=0.0687  <S**2>=0.000
      57 -> 61        -0.31371
      58 -> 63        -0.20016
      59 -> 63        -0.36285
      60 -> 64         0.42733

 The electronic state is 1-A.
 Alpha  occ. eigenvalues --  -77.10442 -19.21552 -19.21552 -19.21551 -10.23919
 Alpha  occ. eigenvalues --  -10.23919 -10.23917 -10.23693 -10.23693 -10.23692
 Alpha  occ. eigenvalues --  -10.19076 -10.19076 -10.19075 -10.18942 -10.18942
 Alpha  occ. eigenvalues --  -10.18941  -6.57105  -4.73366  -4.73366  -4.72863
 Alpha  occ. eigenvalues --   -1.10749  -1.10667  -1.10666  -0.80185  -0.79752
 Alpha  occ. eigenvalues --   -0.79751  -0.77541  -0.73926  -0.73925  -0.64938
 Alpha  occ. eigenvalues --   -0.60003  -0.59870  -0.59870  -0.55795  -0.55795
 Alpha  occ. eigenvalues --   -0.54789  -0.53287  -0.53286  -0.48932  -0.45120
 Alpha  occ. eigenvalues --   -0.45119  -0.44656  -0.42744  -0.42744  -0.42348
 Alpha  occ. eigenvalues --   -0.40363  -0.40312  -0.40312  -0.38831  -0.38831
 Alpha  occ. eigenvalues --   -0.37510  -0.36230  -0.36230  -0.28133  -0.27887
 Alpha  occ. eigenvalues --   -0.27886  -0.27312  -0.23487  -0.23485  -0.20896
 Alpha virt. eigenvalues --   -0.01046  -0.01044   0.01545   0.05282   0.05284
 Alpha virt. eigenvalues --    0.07048   0.07976   0.07981   0.11850   0.11905
 Alpha virt. eigenvalues --    0.12866   0.12866   0.15040   0.15041   0.15577

 Mulliken charges:
               1
     1  C   -0.174157
     2  C   -0.155172
     3  C    0.125643
     4  O   -0.400148
     5  C    0.119572
     6  P    0.397532
     7  C    0.082673
     8  C   -0.188183
     9  C   -0.174798
    10  C    0.078671
    11  O   -0.424530
    12  C    0.059501
    13  C   -0.184828
    14  C   -0.176283
    15  C    0.066185
    16  O   -0.431027
    17  H    0.166245
    18  H    0.186713
    19  H    0.184352
    20  H    0.132958
    21  H    0.137400
    22  H    0.152468
    23  H    0.141327
    24  H    0.133501
    25  H    0.144385
 Sum of Mulliken charges =  -0.00000

 Dipole moment (field-independent basis, Debye):
    X=             -2.3984    Y=             -2.9100    Z=              2.6720  Tot=              4.6217
 Quadrupole moment (field-independent basis, Debye-Ang):
   XX=            -89.5209   YY=            -83.2594   ZZ=            -96.8533
   XY=              5.3255   XZ=             -0.1864   YZ=             -0.9825

 Summary of Natural Population Analysis:

                                       Natural Population
                Natural  -----------------------------------------------
    Atom  No    Charge         Core      Valence    Rydberg      Total
 -----------------------------------------------------------------------
      C    1   -0.31675      1.99910     4.30471    0.01295     6.31675
      C    2   -0.26899      1.99893     4.25576    0.01430     6.26899
      C    3   -0.00608      1.99892     3.97051    0.03665     6.00608
      O    4   -0.45237      1.99974     6.43350    0.01912     8.45237
      C    5    0.16903      1.99905     3.80964    0.02228     5.83097
      P    6    1.01110      9.99757     3.92507    0.06626    13.98890
      C    7   -0.09764      1.99885     4.06168    0.03711     6.09764
      C    8   -0.33695      1.99891     4.32096    0.01709     6.33695
      C    9   -0.32436      1.99909     4.31225    0.01302     6.32436
      C   10    0.09867      1.99905     3.87735    0.02494     5.90133
      O   11   -0.46967      1.99974     6.45654    0.01338     8.46967
      C   12   -0.13378      1.99887     4.09592    0.03898     6.13378
      C   13   -0.33033      1.99891     4.31431    0.01711     6.33033
      C   14   -0.32796      1.99908     4.31564    0.01323     6.32796
      C   15    0.08246      1.99905     3.89288    0.02561     5.91754
      O   16   -0.48032      1.99975     6.46664    0.01394     8.48032
      H   17    0.25806      0.00000     0.74145    0.00049     0.74194
      H   18    0.27142      0.00000     0.72791    0.00067     0.72858
      H   19    0.23551      0.00000     0.76401    0.00047     0.76449
      H   20    0.24286      0.00000     0.75639    0.00076     0.75714
      H   21    0.24464      0.00000     0.75486    0.00051     0.75536
      H   22    0.22236      0.00000     0.77713    0.00051     0.77764
      H   23    0.24789      0.00000     0.75110    0.00101     0.75211
      H   24    0.24307      0.00000     0.75645    0.00048     0.75693
      H   25    0.21814      0.00000     0.78126    0.00060     0.78186
 =======================================================================
   * Total *   -0.00000     39.98461    79.62391    0.39148   120.00000

 Normal termination of Gaussian 16 at Sun Aug 23 14:51:57 2020.
