 Gaussian 16, Revision A.03,

 ---------------------------------
 # opt=CalcAll B3LYP/6-31G* scf=qc
 ---------------------------------

 -------------------
 Title Card Required
 -------------------
 Symbolic Z-matrix:
 Charge =  0 Multiplicity = 1

 SCF Done:  E(RB3LYP) =  -2415.07350859     a.u. after    8 cycles
 SCF Done:  E(RB3LYP) =  -2415.08290549     a.u. after   15 cycles
 SCF Done:  E(RB3LYP) =  -2415.08513126     a.u. after   15 cycles
 SCF Done:  E(RB3LYP) =  -2415.08601543     a.u. after   17 cycles
 SCF Done:  E(RB3LYP) =  -2415.08619756     a.u. after   15 cycles
 SCF Done:  E(RB3LYP) =  -2415.08624529     a.u. after    9 cycles
 SCF Done:  E(RB3LYP) =  -2415.08623909     a.u. after    5 cycles
 SCF Done:  E(RB3LYP) =  -2415.08624371     a.u. after    7 cycles
 SCF Done:  E(RB3LYP) =  -2415.08624359     a.u. after    4 cycles
 SCF Done:  E(RB3LYP) =  -2415.08624182     a.u. after    5 cycles
 SCF Done:  E(RB3LYP) =  -2415.08624313     a.u. after    2 cycles
 SCF Done:  E(RB3LYP) =  -2415.08623912     a.u. after    5 cycles
 SCF Done:  E(RB3LYP) =  -2415.08624031     a.u. after    7 cycles
 SCF Done:  E(RB3LYP) =  -2415.08624037     a.u. after    2 cycles
 SCF Done:  E(RB3LYP) =  -2415.08624891     a.u. after    2 cycles
 Optimization completed.
    -- Stationary point found.
 Normal termination of Gaussian 16 at Sun Aug 23 02:55:34 2020.

 ----------------------------------------------------------------------
 # freq B3LYP/6-31G* scf=qc volume NMR pop=NPA density=current Geom=All
 Check Guess=Read
 ----------------------------------------------------------------------

 Structure from the checkpoint file:  "phosphine_11_conf232.chk"
 -------------------
 Title Card Required
 -------------------
 Charge =  0 Multiplicity = 1

 SCF Done:  E(RB3LYP) =  -2415.08624891     a.u. after    1 cycles

      1  C    Isotropic =    67.5505   Anisotropy =   140.5599

      2  C    Isotropic =    60.2414   Anisotropy =   160.3130

      3  C    Isotropic =    58.7190   Anisotropy =   177.4488

      4  C    Isotropic =    61.9140   Anisotropy =   168.5829

      5  C    Isotropic =    67.5403   Anisotropy =   140.1161

      6  C    Isotropic =    51.6132   Anisotropy =   109.1013

      7  Cl   Isotropic =   720.9690   Anisotropy =   452.9669

      8  P    Isotropic =   364.8701   Anisotropy =    37.9799

      9  C    Isotropic =    58.7747   Anisotropy =   177.4068

     10  C    Isotropic =    61.8843   Anisotropy =   168.6389

     11  C    Isotropic =    67.5360   Anisotropy =   140.1123

     12  C    Isotropic =    51.5921   Anisotropy =   109.1573

     13  C    Isotropic =    67.5513   Anisotropy =   140.5899

     14  C    Isotropic =    60.2162   Anisotropy =   160.2875

     15  Cl   Isotropic =   720.9407   Anisotropy =   452.9504

     16  C    Isotropic =    58.7495   Anisotropy =   177.4527

     17  C    Isotropic =    61.8823   Anisotropy =   168.6268

     18  C    Isotropic =    67.5362   Anisotropy =   140.1174

     19  C    Isotropic =    51.5866   Anisotropy =   109.1618

     20  C    Isotropic =    67.5462   Anisotropy =   140.5723

     21  C    Isotropic =    60.2125   Anisotropy =   160.2732

     22  Cl   Isotropic =   720.8769   Anisotropy =   453.0212

     23  H    Isotropic =    25.0946   Anisotropy =     6.6306

     24  H    Isotropic =    24.7796   Anisotropy =     8.9781

     25  H    Isotropic =    25.5833   Anisotropy =    12.1252

     26  H    Isotropic =    25.2084   Anisotropy =     8.1437

     27  H    Isotropic =    25.5797   Anisotropy =    12.1140

     28  H    Isotropic =    25.2090   Anisotropy =     8.1402

     29  H    Isotropic =    25.0903   Anisotropy =     6.6358

     30  H    Isotropic =    24.7776   Anisotropy =     8.9662

     31  H    Isotropic =    25.5796   Anisotropy =    12.1055

     32  H    Isotropic =    25.2076   Anisotropy =     8.1419

     33  H    Isotropic =    25.0933   Anisotropy =     6.6318

     34  H    Isotropic =    24.7756   Anisotropy =     8.9655

  Exact polarizability: 280.687  -0.067 280.500  -0.048   0.073 185.132
 Approx polarizability: 393.590  -0.153 393.226  -0.109   0.171 343.200

                      1                      2                      3
                      A                      A                      A
 Frequencies --     23.1982                23.4617                29.8365
 Red. masses --      5.0161                 5.1814                 7.8632
 Frc consts  --      0.0016                 0.0017                 0.0041
 IR Inten    --      0.2589                 0.2512                 0.2064

                      4                      5                      6
                      A                      A                      A
 Frequencies --     30.1365                38.4215                40.4632
 Red. masses --      7.5168                 7.6572                 4.7198
 Frc consts  --      0.0040                 0.0067                 0.0046
 IR Inten    --      0.2121                 0.1878                 0.0399

                      7                      8                      9
                      A                      A                      A
 Frequencies --    109.3480               117.6174               117.7621
 Red. masses --      8.8648                 8.8365                 8.8287
 Frc consts  --      0.0625                 0.0720                 0.0721
 IR Inten    --      0.0246                 0.3507                 0.3505

                     10                     11                     12
                      A                      A                      A
 Frequencies --    181.0534               187.3772               187.5850
 Red. masses --     10.0363                 8.7827                 8.7960
 Frc consts  --      0.1938                 0.1817                 0.1824
 IR Inten    --      0.3329                 0.5730                 0.5688

                     13                     14                     15
                      A                      A                      A
 Frequencies --    264.0736               293.7244               293.7965
 Red. masses --      8.9798                 8.4153                 8.4110
 Frc consts  --      0.3690                 0.4278                 0.4278
 IR Inten    --      0.2159                 0.9096                 0.9081

                     16                     17                     18
                      A                      A                      A
 Frequencies --    310.8981               328.6922               328.8962
 Red. masses --      6.0408                 5.9834                 5.9760
 Frc consts  --      0.3440                 0.3809                 0.3809
 IR Inten    --      0.0031                 1.8814                 1.8714

                     19                     20                     21
                      A                      A                      A
 Frequencies --    384.0643               384.1129               414.7830
 Red. masses --      8.0328                 8.0285                 3.0464
 Frc consts  --      0.6981                 0.6979                 0.3088
 IR Inten    --     21.0325                20.9728                 0.0499

                     22                     23                     24
                      A                      A                      A
 Frequencies --    414.8465               416.8140               426.8684
 Red. masses --      3.0459                 3.2125                 6.6071
 Frc consts  --      0.3088                 0.3288                 0.7093
 IR Inten    --      0.0520                 0.1638                 2.9396

                     25                     26                     27
                      A                      A                      A
 Frequencies --    499.5368               509.4915               509.5397
 Red. masses --      5.5272                 3.6472                 3.6520
 Frc consts  --      0.8126                 0.5578                 0.5586
 IR Inten    --      6.8162                19.8551                19.8603

                     28                     29                     30
                      A                      A                      A
 Frequencies --    531.6617               548.8690               548.9316
 Red. masses --      4.5682                 7.4412                 7.4146
 Frc consts  --      0.7608                 1.3208                 1.3164
 IR Inten    --      9.8711                 5.4499                 5.4844

                     31                     32                     33
                      A                      A                      A
 Frequencies --    644.3609               644.3962               645.3271
 Red. masses --      7.1597                 7.1604                 7.1686
 Frc consts  --      1.7515                 1.7518                 1.7589
 IR Inten    --      0.0371                 0.0368                 0.0957

                     34                     35                     36
                      A                      A                      A
 Frequencies --    718.2871               718.3795               718.7514
 Red. masses --      4.5916                 4.5937                 4.6085
 Frc consts  --      1.3958                 1.3967                 1.4027
 IR Inten    --      1.6989                 1.6772                 0.2808

                     37                     38                     39
                      A                      A                      A
 Frequencies --    746.0893               751.6419               751.7000
 Red. masses --      7.2606                 7.2742                 7.2729
 Frc consts  --      2.3812                 2.4213                 2.4213
 IR Inten    --     14.6341                54.3426                54.4279

                     40                     41                     42
                      A                      A                      A
 Frequencies --    833.7589               834.2298               834.3420
 Red. masses --      1.4164                 1.4319                 1.4312
 Frc consts  --      0.5801                 0.5871                 0.5870
 IR Inten    --     23.3590                32.8257                32.8885

                     43                     44                     45
                      A                      A                      A
 Frequencies --    845.9509               846.0530               849.0450
 Red. masses --      1.2466                 1.2465                 1.2500
 Frc consts  --      0.5256                 0.5257                 0.5309
 IR Inten    --      0.6525                 0.6207                 0.3029

                     46                     47                     48
                      A                      A                      A
 Frequencies --    969.6415               969.7566               970.0825
 Red. masses --      1.2763                 1.2766                 1.2875
 Frc consts  --      0.7070                 0.7073                 0.7139
 IR Inten    --      0.1505                 0.1405                 0.2156

                     49                     50                     51
                      A                      A                      A
 Frequencies --    973.4692               973.6054               976.7751
 Red. masses --      1.3450                 1.3443                 1.3218
 Frc consts  --      0.7510                 0.7508                 0.7430
 IR Inten    --      0.0116                 0.0105                 0.4163

                     52                     53                     54
                      A                      A                      A
 Frequencies --   1027.9609              1028.0178              1029.6321
 Red. masses --      4.7540                 4.7671                 4.7002
 Frc consts  --      2.9598                 2.9683                 2.9358
 IR Inten    --     62.7209                62.7387                 5.1181

                     55                     56                     57
                      A                      A                      A
 Frequencies --   1097.7044              1097.8084              1101.4757
 Red. masses --      7.8889                 7.9273                 8.0777
 Frc consts  --      5.6006                 5.6290                 5.7742
 IR Inten    --     80.5419                81.6782                13.7110

                     58                     59                     60
                      A                      A                      A
 Frequencies --   1118.1644              1118.3968              1121.1366
 Red. masses --      2.1242                 2.1206                 2.1012
 Frc consts  --      1.5648                 1.5628                 1.5561
 IR Inten    --     33.3442                32.5916                 6.4925

                     61                     62                     63
                      A                      A                      A
 Frequencies --   1139.3154              1139.4931              1139.5549
 Red. masses --      1.4012                 1.4018                 1.4024
 Frc consts  --      1.0716                 1.0724                 1.0729
 IR Inten    --      0.8354                 0.3543                 2.9704

                     64                     65                     66
                      A                      A                      A
 Frequencies --   1219.0339              1219.4880              1220.8209
 Red. masses --      1.1568                 1.1574                 1.1518
 Frc consts  --      1.0128                 1.0141                 1.0114
 IR Inten    --      4.7405                 4.8049                 0.9779

                     67                     68                     69
                      A                      A                      A
 Frequencies --   1318.3292              1322.2504              1322.3834
 Red. masses --      6.8864                 7.5337                 7.7737
 Frc consts  --      7.0517                 7.7605                 8.0092
 IR Inten    --      1.3258                 2.6704                 2.6544

                     70                     71                     72
                      A                      A                      A
 Frequencies --   1337.1675              1337.5725              1337.7916
 Red. masses --      1.3436                 1.3338                 1.3410
 Frc consts  --      1.4154                 1.4059                 1.4141
 IR Inten    --      0.5538                 0.5650                 1.1731

                     73                     74                     75
                      A                      A                      A
 Frequencies --   1429.5350              1429.9806              1430.1280
 Red. masses --      2.6374                 2.6429                 2.6393
 Frc consts  --      3.1755                 3.1842                 3.1805
 IR Inten    --     18.8189                 6.8926                 6.2294

                     76                     77                     78
                      A                      A                      A
 Frequencies --   1527.0931              1527.1648              1527.2441
 Red. masses --      2.0828                 2.0894                 2.0765
 Frc consts  --      2.8617                 2.8711                 2.8536
 IR Inten    --     51.3833                28.4271                62.1909

                     79                     80                     81
                      A                      A                      A
 Frequencies --   1611.0442              1611.2770              1611.3157
 Red. masses --      6.6448                 6.6627                 6.6629
 Frc consts  --     10.1612                10.1916                10.1924
 IR Inten    --      3.8696                 3.8115                 3.8104

                     82                     83                     84
                      A                      A                      A
 Frequencies --   1633.4371              1633.4688              1634.5029
 Red. masses --      5.4300                 5.4252                 5.4925
 Frc consts  --      8.5360                 8.5288                 8.6456
 IR Inten    --     29.7226                29.7413                13.1197

                     85                     86                     87
                      A                      A                      A
 Frequencies --   3188.0649              3188.1085              3188.1894
 Red. masses --      1.0893                 1.0892                 1.0892
 Frc consts  --      6.5229                 6.5226                 6.5229
 IR Inten    --      6.7652                 2.7781                 3.1469

                     88                     89                     90
                      A                      A                      A
 Frequencies --   3205.6140              3205.9840              3206.5385
 Red. masses --      1.0879                 1.0878                 1.0878
 Frc consts  --      6.5864                 6.5875                 6.5901
 IR Inten    --      0.8573                 0.8582                 0.6564

                     91                     92                     93
                      A                      A                      A
 Frequencies --   3222.6277              3222.6554              3222.7823
 Red. masses --      1.0937                 1.0937                 1.0937
 Frc consts  --      6.6924                 6.6925                 6.6926
 IR Inten    --      2.3310                 2.4795                 9.8385

                     94                     95                     96
                      A                      A                      A
 Frequencies --   3223.6768              3223.7039              3223.9485
 Red. masses --      1.0939                 1.0939                 1.0941
 Frc consts  --      6.6979                 6.6981                 6.7004
 IR Inten    --      5.6712                 5.6232                 0.0476

 - Thermochemistry -
 -------------------
 Temperature   298.150 Kelvin.  Pressure   1.00000 Atm.
 Atom     1 has atomic number  6 and mass  12.00000

 Molecular mass:   363.97422 amu.
 Principal axes and moments of inertia in atomic units:
                           1         2         3
     Eigenvalues --  ******************************
           X            0.99971  -0.02419  -0.00001
           Y            0.02419   0.99971   0.00001
           Z            0.00001  -0.00001   1.00000
 This molecule is an asymmetric top.
 Rotational symmetry number  1.
 Warning -- assumption of classical behavior for rotation
           may cause significant error
 Rotational temperatures (Kelvin)      0.00723     0.00723     0.00405
 Rotational constants (GHZ):           0.15065     0.15058     0.08440
 Zero-point vibrational energy     643788.8 (Joules/Mol)
                                  153.86922 (Kcal/Mol)
 Warning -- explicit consideration of  30 degrees of freedom as
           vibrations may cause significant error
 Vibrational temperatures:     33.38    33.76    42.93    43.36    55.28
          (Kelvin)             58.22   157.33   169.23   169.43   260.50
                              269.59   269.89   379.94   422.60   422.71
                              447.31   472.91   473.21   552.58   552.65
                              596.78   596.87   599.70   614.17   718.72
                              733.04   733.11   764.94   789.70   789.79
                              927.09   927.14   928.48  1033.45  1033.59
                             1034.12  1073.46  1081.45  1081.53  1199.59
                             1200.27  1200.43  1217.13  1217.28  1221.59
                             1395.10  1395.26  1395.73  1400.61  1400.80
                             1405.36  1479.01  1479.09  1481.41  1579.35
                             1579.50  1584.78  1608.79  1609.12  1613.07
                             1639.22  1639.48  1639.57  1753.92  1754.57
                             1756.49  1896.78  1902.42  1902.61  1923.89
                             1924.47  1924.78  2056.78  2057.42  2057.64
                             2197.15  2197.25  2197.36  2317.93  2318.27
                             2318.32  2350.15  2350.20  2351.69  4586.91
                             4586.98  4587.09  4612.16  4612.70  4613.49
                             4636.64  4636.68  4636.86  4638.15  4638.19
                             4638.54

 Zero-point correction=                           0.245206 (Hartree/Particle)
 Thermal correction to Energy=                    0.264849
 Thermal correction to Enthalpy=                  0.265793
 Thermal correction to Gibbs Free Energy=         0.192399
 Sum of electronic and zero-point Energies=          -2414.841043
 Sum of electronic and thermal Energies=             -2414.821400
 Sum of electronic and thermal Enthalpies=           -2414.820456
 Sum of electronic and thermal Free Energies=        -2414.893850

                     E (Thermal)             CV                S
                      KCal/Mol        Cal/Mol-Kelvin    Cal/Mol-Kelvin
 Total                  166.195             74.118            154.471
 Electronic               0.000              0.000              0.000
 Translational            0.889              2.981             43.569
 Rotational               0.889              2.981             36.372
 Vibrational            164.418             68.157             74.530
 Vibration     1          0.593              1.985              6.340
 Vibration     2          0.593              1.985              6.317
 Vibration     3          0.594              1.984              5.840
 Vibration     4          0.594              1.984              5.820
 Vibration     5          0.594              1.982              5.339
 Vibration     6          0.594              1.981              5.236
 Vibration     7          0.606              1.942              3.280
 Vibration     8          0.608              1.935              3.139
 Vibration     9          0.608              1.935              3.137
 Vibration    10          0.630              1.865              2.318
 Vibration    11          0.632              1.857              2.254
 Vibration    12          0.632              1.857              2.252
 Vibration    13          0.671              1.739              1.635
 Vibration    14          0.689              1.685              1.452
 Vibration    15          0.689              1.685              1.452
 Vibration    16          0.700              1.653              1.358
 Vibration    17          0.712              1.618              1.267
 Vibration    18          0.712              1.618              1.265
 Vibration    19          0.753              1.504              1.023
 Vibration    20          0.753              1.504              1.023
 Vibration    21          0.778              1.438              0.910
 Vibration    22          0.778              1.438              0.910
 Vibration    23          0.780              1.434              0.903
 Vibration    24          0.789              1.412              0.869
 Vibration    25          0.855              1.251              0.659
 Vibration    26          0.865              1.229              0.635
 Vibration    27          0.865              1.229              0.635
 Vibration    28          0.887              1.180              0.584
 Vibration    29          0.904              1.142              0.547
 Vibration    30          0.904              1.142              0.546

                           ! Non-Optimized Parameters !
 Normal termination of Gaussian 16 at Sun Aug 23 03:12:13 2020.
 Gaussian 16:  ES64L-G16RevA.03 25-Dec-2016

 ----------------------------------------------------------------------
 # TD(NStates=10, Root=1) B3LYP/6-31G* scf=qc volume pop=NPA density=cu
 rrent Geom=AllCheck Guess=Read
 ----------------------------------------------------------------------

 Structure from the checkpoint file:  "phosphine_11_conf233.chk"
 -------------------
 Title Card Required
 -------------------
 Charge =  0 Multiplicity = 1

                         Standard orientation:
 ---------------------------------------------------------------------
 Center     Atomic      Atomic             Coordinates (Angstroms)
 Number     Number       Type             X           Y           Z
 ---------------------------------------------------------------------
      1          6           0       -1.856334   -3.600167    0.851156
      2          6           0       -1.451531   -2.371890    1.370529
      3          6           0       -0.455667   -1.605229    0.742567
      4          6           0        0.144845   -2.117603   -0.417125
      5          6           0       -0.240611   -3.351385   -0.943541
      6          6           0       -1.242658   -4.080489   -0.305510
      7         17           0       -1.734369   -5.634234   -0.963431
      8         15           0        0.000273    0.000252    1.547484
      9          6           0        1.618593    0.408192    0.742580
     10          6           0        1.761661    1.180608   -0.419735
     11          6           0        3.022773    1.463763   -0.946296
     12          6           0        4.155556    0.964470   -0.305709
     13          6           0        4.046827    0.196731    0.853559
     14          6           0        2.780738   -0.066986    1.372987
     15         17           0        5.746890    1.315681   -0.963743
     16          6           0       -1.162336    1.197513    0.742407
     17          6           0       -1.901219    0.935632   -0.421023
     18          6           0       -2.777230    1.885909   -0.947724
     19          6           0       -2.913066    3.115860   -0.306137
     20          6           0       -2.195370    3.405149    0.854189
     21          6           0       -1.333655    2.440840    1.373711
     22         17           0       -4.013275    4.317981   -0.964264
     23          1           0       -2.628745   -4.183498    1.341092
     24          1           0       -1.916843   -2.007700    2.283333
     25          1           0        0.926534   -1.555214   -0.918477
     26          1           0        0.230309   -3.742382   -1.839462
     27          1           0        0.883454    1.573214   -0.923010
     28          1           0        3.125636    2.064122   -1.844242
     29          1           0        4.938464   -0.177448    1.345395
     30          1           0        2.698202   -0.649006    2.287749
     31          1           0       -1.800700   -0.020688   -0.925030
     32          1           0       -3.347383    1.675131   -1.846509
     33          1           0       -2.318547    4.363859    1.346766
     34          1           0       -0.789560    2.660038    2.289275
 ---------------------------------------------------------------------

 SCF Done:  E(RB3LYP) =  -2415.08624891     a.u. after    1 cycles

 Excitation energies and oscillator strengths:

 Excited State   1:      Singlet-A      4.4050 eV  281.46 nm  f=0.1829  <S**2>=0.000
      93 -> 94         0.69579
 This state for optimization and/or second-order correction.
 Total Energy, E(TD-HF/TD-DFT) =  -2414.92436882
 Copying the excited state density for this state as the 1-particle RhoCI density.

 Excited State   2:      Singlet-A      4.4071 eV  281.33 nm  f=0.1842  <S**2>=0.000
      93 -> 95         0.69576

 Excited State   3:      Singlet-A      4.6117 eV  268.85 nm  f=0.0036  <S**2>=0.000
      89 -> 94         0.10971
      90 -> 95         0.11015
      93 -> 96         0.67973

 Excited State   4:      Singlet-A      4.9171 eV  252.15 nm  f=0.0001  <S**2>=0.000
      88 -> 94         0.11645
      89 -> 95        -0.11214
      89 -> 97         0.10057
      90 -> 94        -0.11171
      93 -> 98         0.64558

 Excited State   5:      Singlet-A      4.9181 eV  252.10 nm  f=0.0001  <S**2>=0.000
      88 -> 95         0.11624
      89 -> 94        -0.11249
      90 -> 95         0.11296
      90 -> 97         0.10138
      93 -> 99         0.64505

 Excited State   6:      Singlet-A      5.0220 eV  246.88 nm  f=0.0090  <S**2>=0.000
      91 -> 94         0.11670
      92 -> 95        -0.11717
      93 -> 97         0.66876

 Excited State   7:      Singlet-A      5.2596 eV  235.73 nm  f=0.0017  <S**2>=0.000
      89 -> 94         0.13274
      90 -> 95         0.12975
      91 -> 94        -0.24270
      91 -> 95         0.37021
      91 -> 98        -0.12628
      92 -> 94         0.37498
      92 -> 95         0.24181
      92 -> 99         0.12406
      93 -> 96        -0.10388

 Excited State   8:      Singlet-A      5.3611 eV  231.27 nm  f=0.0051  <S**2>=0.000
      88 -> 94        -0.19183
      89 -> 95         0.19280
      89 -> 97        -0.11190
      90 -> 94         0.19299
      91 -> 95        -0.11292
      91 -> 96         0.38219
      91 -> 99        -0.11678
      92 -> 94         0.11035
      92 -> 96         0.22203
      92 -> 98         0.11849
      93 -> 98         0.22693

 Excited State   9:      Singlet-A      5.3620 eV  231.23 nm  f=0.0049  <S**2>=0.000
      88 -> 95         0.18976
      89 -> 94        -0.19308
      90 -> 95         0.19217
      90 -> 97         0.11194
      91 -> 94         0.11361
      91 -> 96        -0.22033
      91 -> 98         0.11785
      92 -> 95         0.11577
      92 -> 96         0.38471
      92 -> 99         0.11744
      93 -> 99        -0.22785

 Excited State  10:      Singlet-A      5.4211 eV  228.71 nm  f=0.1610  <S**2>=0.000
      91 -> 94         0.27761
      91 -> 95        -0.37303
      92 -> 94         0.37383
      92 -> 95         0.27403
      92 -> 96        -0.13581

 The electronic state is 1-A.
 Alpha  occ. eigenvalues -- -101.55493-101.55493-101.55490 -77.10094 -10.26330
 Alpha  occ. eigenvalues --  -10.26329 -10.26325 -10.21418 -10.21418 -10.21416
 Alpha  occ. eigenvalues --  -10.21368 -10.21368 -10.21365 -10.21347 -10.21347
 Alpha  occ. eigenvalues --  -10.21343 -10.21313 -10.21313 -10.21310 -10.21249
 Alpha  occ. eigenvalues --  -10.21249 -10.21245  -9.47125  -9.47125  -9.47122
 Alpha  occ. eigenvalues --   -7.23520  -7.23520  -7.23517  -7.22555  -7.22555
 Alpha  occ. eigenvalues --   -7.22552  -7.22518  -7.22518  -7.22515  -6.56809
 Alpha  occ. eigenvalues --   -4.73069  -4.73069  -4.72564  -0.89964  -0.89792
 Alpha  occ. eigenvalues --   -0.89789  -0.85153  -0.84238  -0.84235  -0.76898
 Alpha  occ. eigenvalues --   -0.76780  -0.76779  -0.76742  -0.73907  -0.73905
 Alpha  occ. eigenvalues --   -0.65058  -0.63150  -0.62987  -0.62986  -0.60497
 Alpha  occ. eigenvalues --   -0.60496  -0.57615  -0.52432  -0.52430  -0.49746
 Alpha  occ. eigenvalues --   -0.48088  -0.47999  -0.47998  -0.47167  -0.47167
 Alpha  occ. eigenvalues --   -0.46321  -0.44340  -0.44246  -0.44245  -0.42725
 Alpha  occ. eigenvalues --   -0.42724  -0.40320  -0.40239  -0.40236  -0.39580
 Alpha  occ. eigenvalues --   -0.37219  -0.37218  -0.37129  -0.35190  -0.35187
 Alpha  occ. eigenvalues --   -0.34135  -0.33461  -0.33458  -0.31867  -0.31863
 Alpha  occ. eigenvalues --   -0.31861  -0.27684  -0.27414  -0.27144  -0.27140
 Alpha  occ. eigenvalues --   -0.25831  -0.25826  -0.22677
 Alpha virt. eigenvalues --   -0.03959  -0.03954  -0.03033  -0.01964  -0.01789
 Alpha virt. eigenvalues --   -0.01783   0.02242   0.02244   0.02402   0.05588
 Alpha virt. eigenvalues --    0.05597   0.10344   0.12155   0.12344   0.12346

 Mulliken charges:
               1
     1  C   -0.115909
     2  C   -0.155805
     3  C   -0.078734
     4  C   -0.148753
     5  C   -0.116204
     6  C   -0.063275
     7  Cl   0.016844
     8  P    0.446473
     9  C   -0.124088
    10  C   -0.162016
    11  C   -0.121973
    12  C   -0.093465
    13  C   -0.117729
    14  C   -0.174363
    15  Cl  -0.031761
    16  C   -0.112891
    17  C   -0.173451
    18  C   -0.114137
    19  C   -0.094223
    20  C   -0.126026
    21  C   -0.159039
    22  Cl  -0.034335
    23  H    0.170894
    24  H    0.162571
    25  H    0.183155
    26  H    0.174475
    27  H    0.156118
    28  H    0.153301
    29  H    0.148885
    30  H    0.132482
    31  H    0.134588
    32  H    0.151279
    33  H    0.149367
    34  H    0.137744
 Sum of Mulliken charges =  -0.00000

 Dipole moment (field-independent basis, Debye):
    X=             -1.0184    Y=             -4.0747    Z=              1.9737  Tot=              4.6407
 Quadrupole moment (field-independent basis, Debye-Ang):
   XX=           -174.7884   YY=           -160.3186   ZZ=           -145.0406
   XY=              5.2904   XZ=             -0.5237   YZ=              0.9053

 Summary of Natural Population Analysis:

                                       Natural Population
                Natural  -----------------------------------------------
    Atom  No    Charge         Core      Valence    Rydberg      Total
 -----------------------------------------------------------------------
      C    1   -0.24599      1.99893     4.23167    0.01539     6.24599
      C    2   -0.19052      1.99902     4.17641    0.01510     6.19052
      C    3   -0.37539      1.99891     4.35174    0.02475     6.37539
      C    4   -0.19562      1.99900     4.18064    0.01599     6.19562
      C    5   -0.24014      1.99892     4.22599    0.01523     6.24014
      C    6   -0.01468      1.99855     3.99386    0.02227     6.01468
     Cl    7    0.02897      9.99967     6.95210    0.01927    16.97103
      P    8    1.21204      9.99758     3.74053    0.04985    13.78796
      C    9   -0.46751      1.99888     4.44248    0.02615     6.46751
      C   10   -0.22246      1.99899     4.20627    0.01720     6.22246
      C   11   -0.25043      1.99893     4.23550    0.01600     6.25043
      C   12   -0.07654      1.99854     4.05574    0.02226     6.07654
      C   13   -0.24959      1.99894     4.23476    0.01589     6.24959
      C   14   -0.22472      1.99901     4.20961    0.01609     6.22472
     Cl   15   -0.00742      9.99967     6.98745    0.02030    17.00742
      C   16   -0.45213      1.99887     4.42896    0.02430     6.45213
      C   17   -0.25104      1.99899     4.23452    0.01754     6.25104
      C   18   -0.23649      1.99893     4.22203    0.01553     6.23649
      C   19   -0.07841      1.99854     4.05766    0.02221     6.07841
      C   20   -0.26480      1.99894     4.24926    0.01660     6.26480
      C   21   -0.20132      1.99901     4.18658    0.01573     6.20132
     Cl   22   -0.00964      9.99967     6.98968    0.02029    17.00964
      H   23    0.26156      0.00000     0.73738    0.00105     0.73844
      H   24    0.25070      0.00000     0.74811    0.00118     0.74930
      H   25    0.26616      0.00000     0.73267    0.00118     0.73384
      H   26    0.26370      0.00000     0.73525    0.00105     0.73630
      H   27    0.25063      0.00000     0.74786    0.00151     0.74937
      H   28    0.25394      0.00000     0.74501    0.00105     0.74606
      H   29    0.25098      0.00000     0.74793    0.00109     0.74902
      H   30    0.23422      0.00000     0.76485    0.00093     0.76578
      H   31    0.23900      0.00000     0.75965    0.00135     0.76100
      H   32    0.25272      0.00000     0.74623    0.00105     0.74728
      H   33    0.25196      0.00000     0.74701    0.00103     0.74804
      H   34    0.23831      0.00000     0.76061    0.00108     0.76169
 =======================================================================
   * Total *   -0.00000     75.97648   109.56603    0.45749   186.00000

 Normal termination of Gaussian 16 at Sun Aug 23 03:31:12 2020.
