 Gaussian 16, Revision A.03,

 ---------------------------------
 # opt=CalcAll B3LYP/6-31G* scf=qc
 ---------------------------------

 -------------------
 Title Card Required
 -------------------
 Symbolic Z-matrix:
 Charge =  0 Multiplicity = 1

 SCF Done:  E(RB3LYP) =  -2415.05421639     a.u. after    8 cycles
 SCF Done:  E(RB3LYP) =  -2415.06516333     a.u. after   17 cycles
 SCF Done:  E(RB3LYP) =  -2415.06785076     a.u. after   17 cycles
 SCF Done:  E(RB3LYP) =  -2415.08109083     a.u. after   13 cycles
 SCF Done:  E(RB3LYP) =  -2415.08559003     a.u. after   17 cycles
 SCF Done:  E(RB3LYP) =  -2415.08615360     a.u. after   13 cycles
 SCF Done:  E(RB3LYP) =  -2415.08623773     a.u. after   11 cycles
 SCF Done:  E(RB3LYP) =  -2415.08623907     a.u. after    7 cycles
 SCF Done:  E(RB3LYP) =  -2415.08623988     a.u. after    3 cycles
 SCF Done:  E(RB3LYP) =  -2415.08624261     a.u. after    3 cycles
 SCF Done:  E(RB3LYP) =  -2415.08624275     a.u. after    2 cycles
 SCF Done:  E(RB3LYP) =  -2415.08624342     a.u. after    2 cycles
 SCF Done:  E(RB3LYP) =  -2415.08624364     a.u. after    2 cycles
 SCF Done:  E(RB3LYP) =  -2415.08624374     a.u. after    2 cycles
 Optimization completed on the basis of negligible forces.
    -- Stationary point found.
 Normal termination of Gaussian 16 at Sun Aug 23 01:12:47 2020.

 ----------------------------------------------------------------------
 # freq B3LYP/6-31G* scf=qc volume NMR pop=NPA density=current Geom=All
 Check Guess=Read
 ----------------------------------------------------------------------

 Structure from the checkpoint file:  "phosphine_11_conf142.chk"
 -------------------
 Title Card Required
 -------------------
 Charge =  0 Multiplicity = 1

 SCF Done:  E(RB3LYP) =  -2415.08624374     a.u. after    1 cycles

      1  C    Isotropic =    67.5503   Anisotropy =   140.5648

      2  C    Isotropic =    60.2226   Anisotropy =   160.2600

      3  C    Isotropic =    58.7164   Anisotropy =   177.4662

      4  C    Isotropic =    61.8850   Anisotropy =   168.6102

      5  C    Isotropic =    67.5446   Anisotropy =   140.1122

      6  C    Isotropic =    51.6019   Anisotropy =   109.1431

      7  Cl   Isotropic =   720.9439   Anisotropy =   452.9406

      8  P    Isotropic =   364.8167   Anisotropy =    37.4112

      9  C    Isotropic =    58.7801   Anisotropy =   177.4420

     10  C    Isotropic =    61.8826   Anisotropy =   168.6713

     11  C    Isotropic =    67.5355   Anisotropy =   140.0967

     12  C    Isotropic =    51.5898   Anisotropy =   109.1678

     13  C    Isotropic =    67.5637   Anisotropy =   140.5948

     14  C    Isotropic =    60.2097   Anisotropy =   160.2643

     15  Cl   Isotropic =   720.9200   Anisotropy =   452.9827

     16  C    Isotropic =    58.7282   Anisotropy =   177.4204

     17  C    Isotropic =    60.2341   Anisotropy =   160.3034

     18  C    Isotropic =    67.5470   Anisotropy =   140.5866

     19  C    Isotropic =    51.6115   Anisotropy =   109.1263

     20  C    Isotropic =    67.5408   Anisotropy =   140.1072

     21  C    Isotropic =    61.9105   Anisotropy =   168.5847

     22  Cl   Isotropic =   721.0477   Anisotropy =   452.8351

     23  H    Isotropic =    25.0954   Anisotropy =     6.6291

     24  H    Isotropic =    24.7793   Anisotropy =     8.9669

     25  H    Isotropic =    25.5808   Anisotropy =    12.1098

     26  H    Isotropic =    25.2075   Anisotropy =     8.1421

     27  H    Isotropic =    25.5793   Anisotropy =    12.1094

     28  H    Isotropic =    25.2097   Anisotropy =     8.1414

     29  H    Isotropic =    25.0918   Anisotropy =     6.6317

     30  H    Isotropic =    24.7770   Anisotropy =     8.9620

     31  H    Isotropic =    24.7797   Anisotropy =     8.9786

     32  H    Isotropic =    25.0911   Anisotropy =     6.6367

     33  H    Isotropic =    25.2095   Anisotropy =     8.1412

     34  H    Isotropic =    25.5834   Anisotropy =    12.1213

  Exact polarizability: 280.612   0.079 280.515  -0.057   0.050 185.178
 Approx polarizability: 393.407   0.185 393.294  -0.130   0.111 343.301

                      1                      2                      3
                      A                      A                      A
 Frequencies --     21.8944                22.8808                29.3314
 Red. masses --      4.6212                 4.7427                 8.9801
 Frc consts  --      0.0013                 0.0015                 0.0046
 IR Inten    --      0.2820                 0.2666                 0.1821

                      4                      5                      6
                      A                      A                      A
 Frequencies --     29.5261                38.1613                40.0390
 Red. masses --      8.7509                 7.0586                 4.9782
 Frc consts  --      0.0045                 0.0061                 0.0047
 IR Inten    --      0.1953                 0.1777                 0.0507

                      7                      8                      9
                      A                      A                      A
 Frequencies --    109.2057               117.4905               117.8560
 Red. masses --      8.8629                 8.8304                 8.8311
 Frc consts  --      0.0623                 0.0718                 0.0723
 IR Inten    --      0.0249                 0.3541                 0.3478

                     10                     11                     12
                      A                      A                      A
 Frequencies --    181.0380               187.4274               187.4783
 Red. masses --     10.0369                 8.7817                 8.7914
 Frc consts  --      0.1938                 0.1818                 0.1821
 IR Inten    --      0.3328                 0.5711                 0.5739

                     13                     14                     15
                      A                      A                      A
 Frequencies --    264.0078               293.5348               293.7483
 Red. masses --      8.9737                 8.3954                 8.4107
 Frc consts  --      0.3685                 0.4262                 0.4276
 IR Inten    --      0.2160                 0.9010                 0.9121

                     16                     17                     18
                      A                      A                      A
 Frequencies --    310.8367               328.6522               328.8659
 Red. masses --      6.0443                 5.9897                 5.9784
 Frc consts  --      0.3441                 0.3812                 0.3810
 IR Inten    --      0.0033                 1.8940                 1.8797

                     19                     20                     21
                      A                      A                      A
 Frequencies --    383.9482               384.0349               414.5632
 Red. masses --      8.0268                 8.0313                 3.0441
 Frc consts  --      0.6972                 0.6979                 0.3082
 IR Inten    --     20.9771                20.9703                 0.0561

                     22                     23                     24
                      A                      A                      A
 Frequencies --    414.7127               416.6737               426.9488
 Red. masses --      3.0447                 3.2087                 6.6187
 Frc consts  --      0.3085                 0.3282                 0.7108
 IR Inten    --      0.0581                 0.1630                 2.9418

                     25                     26                     27
                      A                      A                      A
 Frequencies --    499.5443               509.3171               509.5357
 Red. masses --      5.5114                 3.6417                 3.6473
 Frc consts  --      0.8103                 0.5566                 0.5579
 IR Inten    --      6.8517                19.9139                19.9361

                     28                     29                     30
                      A                      A                      A
 Frequencies --    531.6073               548.7749               548.8153
 Red. masses --      4.5746                 7.4296                 7.4482
 Frc consts  --      0.7617                 1.3183                 1.3218
 IR Inten    --      9.8522                 5.4606                 5.4384

                     31                     32                     33
                      A                      A                      A
 Frequencies --    644.3358               644.3477               645.2861
 Red. masses --      7.1594                 7.1596                 7.1683
 Frc consts  --      1.7513                 1.7514                 1.7586
 IR Inten    --      0.0373                 0.0377                 0.0970

                     34                     35                     36
                      A                      A                      A
 Frequencies --    718.1645               718.2877               718.7330
 Red. masses --      4.5842                 4.5876                 4.6051
 Frc consts  --      1.3930                 1.3945                 1.4016
 IR Inten    --      1.6998                 1.6025                 0.3680

                     37                     38                     39
                      A                      A                      A
 Frequencies --    746.1230               751.6197               751.6814
 Red. masses --      7.2614                 7.2731                 7.2774
 Frc consts  --      2.3817                 2.4208                 2.4227
 IR Inten    --     14.6317                54.3668                54.2755

                     40                     41                     42
                      A                      A                      A
 Frequencies --    833.6484               834.1315               834.2400
 Red. masses --      1.4178                 1.4316                 1.4317
 Frc consts  --      0.5806                 0.5868                 0.5871
 IR Inten    --     23.7704                32.5670                32.7742

                     43                     44                     45
                      A                      A                      A
 Frequencies --    845.7916               845.9010               848.9412
 Red. masses --      1.2467                 1.2466                 1.2501
 Frc consts  --      0.5255                 0.5256                 0.5308
 IR Inten    --      0.6372                 0.6347                 0.3000

                     46                     47                     48
                      A                      A                      A
 Frequencies --    969.4743               969.6121               969.9950
 Red. masses --      1.2759                 1.2763                 1.2874
 Frc consts  --      0.7066                 0.7070                 0.7137
 IR Inten    --      0.1569                 0.1548                 0.2132

                     49                     50                     51
                      A                      A                      A
 Frequencies --    973.2125               973.3943               976.6212
 Red. masses --      1.3464                 1.3455                 1.3225
 Frc consts  --      0.7514                 0.7511                 0.7432
 IR Inten    --      0.0109                 0.0128                 0.4169

                     52                     53                     54
                      A                      A                      A
 Frequencies --   1027.9347              1027.9877              1029.6245
 Red. masses --      4.7571                 4.7655                 4.7023
 Frc consts  --      2.9616                 2.9671                 2.9371
 IR Inten    --     62.7379                62.6685                 5.1209

                     55                     56                     57
                      A                      A                      A
 Frequencies --   1097.7314              1097.8292              1101.5269
 Red. masses --      7.9008                 7.9421                 8.0714
 Frc consts  --      5.6094                 5.6397                 5.7702
 IR Inten    --     80.8759                81.8544                13.7501

                     58                     59                     60
                      A                      A                      A
 Frequencies --   1118.1692              1118.4590              1121.2999
 Red. masses --      2.1232                 2.1207                 2.1025
 Frc consts  --      1.5641                 1.5630                 1.5575
 IR Inten    --     33.1894                32.3045                 6.4502

                     61                     62                     63
                      A                      A                      A
 Frequencies --   1139.2390              1139.4321              1139.6438
 Red. masses --      1.4011                 1.4019                 1.4027
 Frc consts  --      1.0714                 1.0724                 1.0734
 IR Inten    --      0.3012                 1.6121                 2.1993

                     64                     65                     66
                      A                      A                      A
 Frequencies --   1219.0126              1219.5223              1220.9547
 Red. masses --      1.1568                 1.1573                 1.1519
 Frc consts  --      1.0128                 1.0141                 1.0118
 IR Inten    --      4.8415                 4.7336                 0.9901

                     67                     68                     69
                      A                      A                      A
 Frequencies --   1318.3063              1322.2378              1322.3518
 Red. masses --      6.9327                 7.5857                 7.7369
 Frc consts  --      7.0988                 7.8138                 7.9709
 IR Inten    --      1.3177                 2.6814                 2.6448

                     70                     71                     72
                      A                      A                      A
 Frequencies --   1337.1947              1337.5114              1337.9785
 Red. masses --      1.3360                 1.3415                 1.3386
 Frc consts  --      1.4074                 1.4140                 1.4119
 IR Inten    --      0.3730                 0.8307                 1.0800

                     73                     74                     75
                      A                      A                      A
 Frequencies --   1429.5755              1429.9420              1430.1208
 Red. masses --      2.6348                 2.6444                 2.6372
 Frc consts  --      3.1726                 3.1857                 3.1779
 IR Inten    --     19.1631                 6.1052                 6.6335

                     76                     77                     78
                      A                      A                      A
 Frequencies --   1527.0791              1527.1513              1527.2716
 Red. masses --      2.0784                 2.0902                 2.0789
 Frc consts  --      2.8556                 2.8721                 2.8571
 IR Inten    --     62.4928                27.1557                52.4077

                     79                     80                     81
                      A                      A                      A
 Frequencies --   1611.0297              1611.2524              1611.3226
 Red. masses --      6.6411                 6.6644                 6.6561
 Frc consts  --     10.1554                10.1939                10.1820
 IR Inten    --      3.8455                 3.8593                 3.8021

                     82                     83                     84
                      A                      A                      A
 Frequencies --   1633.4261              1633.4728              1634.5079
 Red. masses --      5.4309                 5.4243                 5.4915
 Frc consts  --      8.5373                 8.5274                 8.6440
 IR Inten    --     29.7338                29.7350                13.1330

                     85                     86                     87
                      A                      A                      A
 Frequencies --   3187.9980              3188.1565              3188.1938
 Red. masses --      1.0892                 1.0892                 1.0892
 Frc consts  --      6.5224                 6.5230                 6.5229
 IR Inten    --      5.0678                 5.0802                 2.5305

                     88                     89                     90
                      A                      A                      A
 Frequencies --   3205.5427              3205.6096              3206.2096
 Red. masses --      1.0879                 1.0879                 1.0879
 Frc consts  --      6.5862                 6.5864                 6.5893
 IR Inten    --      0.8549                 0.8630                 0.6784

                     91                     92                     93
                      A                      A                      A
 Frequencies --   3222.5771              3222.6086              3222.7351
 Red. masses --      1.0938                 1.0937                 1.0937
 Frc consts  --      6.6924                 6.6923                 6.6925
 IR Inten    --      2.4164                 2.1524                 9.9879

                     94                     95                     96
                      A                      A                      A
 Frequencies --   3223.6403              3223.6865              3223.9168
 Red. masses --      1.0939                 1.0939                 1.0941
 Frc consts  --      6.6979                 6.6978                 6.7000
 IR Inten    --      5.7462                 5.5673                 0.1100

 - Thermochemistry -
 -------------------
 Temperature   298.150 Kelvin.  Pressure   1.00000 Atm.
 Atom     1 has atomic number  6 and mass  12.00000

 Molecular mass:   363.97422 amu.
 Principal axes and moments of inertia in atomic units:
                           1         2         3
     Eigenvalues --  ******************************
           X            0.99977   0.02156  -0.00001
           Y           -0.02156   0.99977   0.00001
           Z            0.00001  -0.00001   1.00000
 This molecule is an asymmetric top.
 Rotational symmetry number  1.
 Warning -- assumption of classical behavior for rotation
           may cause significant error
 Rotational temperatures (Kelvin)      0.00723     0.00723     0.00405
 Rotational constants (GHZ):           0.15067     0.15057     0.08440
 Zero-point vibrational energy     643740.3 (Joules/Mol)
                                  153.85761 (Kcal/Mol)
 Warning -- explicit consideration of  30 degrees of freedom as
           vibrations may cause significant error
 Vibrational temperatures:     31.50    32.92    42.20    42.48    54.91
          (Kelvin)             57.61   157.12   169.04   169.57   260.47
                              269.67   269.74   379.85   422.33   422.64
                              447.22   472.86   473.16   552.42   552.54
                              596.46   596.68   599.50   614.28   718.73
                              732.79   733.11   764.86   789.56   789.62
                              927.06   927.07   928.42  1033.28  1033.46
                             1034.10  1073.50  1081.41  1081.50  1199.43
                             1200.13  1200.29  1216.91  1217.06  1221.44
                             1394.86  1395.06  1395.61  1400.24  1400.50
                             1405.14  1478.97  1479.05  1481.40  1579.39
                             1579.53  1584.85  1608.80  1609.21  1613.30
                             1639.11  1639.39  1639.69  1753.89  1754.62
                             1756.68  1896.75  1902.41  1902.57  1923.92
                             1924.38  1925.05  2056.84  2057.37  2057.62
                             2197.13  2197.23  2197.40  2317.91  2318.23
                             2318.33  2350.14  2350.20  2351.69  4586.82
                             4587.05  4587.10  4612.06  4612.16  4613.02
                             4636.57  4636.61  4636.80  4638.10  4638.17
                             4638.50

 Zero-point correction=                           0.245188 (Hartree/Particle)
 Thermal correction to Energy=                    0.264841
 Thermal correction to Enthalpy=                  0.265785
 Thermal correction to Gibbs Free Energy=         0.192256
 Sum of electronic and zero-point Energies=          -2414.841056
 Sum of electronic and thermal Energies=             -2414.821403
 Sum of electronic and thermal Enthalpies=           -2414.820459
 Sum of electronic and thermal Free Energies=        -2414.893988

                     E (Thermal)             CV                S
                      KCal/Mol        Cal/Mol-Kelvin    Cal/Mol-Kelvin
 Total                  166.190             74.125            154.755
 Electronic               0.000              0.000              0.000
 Translational            0.889              2.981             43.569
 Rotational               0.889              2.981             36.372
 Vibrational            164.413             68.163             74.814
 Vibration     1          0.593              1.985              6.455
 Vibration     2          0.593              1.985              6.367
 Vibration     3          0.593              1.984              5.874
 Vibration     4          0.593              1.984              5.861
 Vibration     5          0.594              1.982              5.352
 Vibration     6          0.594              1.981              5.257
 Vibration     7          0.606              1.942              3.283
 Vibration     8          0.608              1.935              3.141
 Vibration     9          0.608              1.934              3.135
 Vibration    10          0.630              1.865              2.318
 Vibration    11          0.632              1.857              2.253
 Vibration    12          0.632              1.857              2.253
 Vibration    13          0.671              1.739              1.635
 Vibration    14          0.688              1.686              1.453
 Vibration    15          0.689              1.685              1.452
 Vibration    16          0.700              1.653              1.358
 Vibration    17          0.712              1.618              1.267
 Vibration    18          0.712              1.618              1.266
 Vibration    19          0.753              1.504              1.024
 Vibration    20          0.753              1.504              1.023
 Vibration    21          0.778              1.439              0.911
 Vibration    22          0.778              1.438              0.910
 Vibration    23          0.780              1.434              0.903
 Vibration    24          0.789              1.412              0.869
 Vibration    25          0.855              1.251              0.659
 Vibration    26          0.864              1.229              0.635
 Vibration    27          0.865              1.229              0.635
 Vibration    28          0.887              1.180              0.584
 Vibration    29          0.904              1.142              0.547
 Vibration    30          0.904              1.142              0.547

 Optimization completed on the basis of negligible forces.
    -- Stationary point found.
 Normal termination of Gaussian 16 at Sun Aug 23 01:26:28 2020.
 Gaussian 16:  ES64L-G16RevA.03 25-Dec-2016

 ----------------------------------------------------------------------
 # TD(NStates=10, Root=1) B3LYP/6-31G* scf=qc volume pop=NPA density=cu
 rrent Geom=AllCheck Guess=Read
 ----------------------------------------------------------------------

 Structure from the checkpoint file:  "phosphine_11_conf143.chk"
 -------------------
 Title Card Required
 -------------------
 Charge =  0 Multiplicity = 1

                         Standard orientation:
 ---------------------------------------------------------------------
 Center     Atomic      Atomic             Coordinates (Angstroms)
 Number     Number       Type             X           Y           Z
 ---------------------------------------------------------------------
      1          6           0       -0.583391    4.008487    0.853636
      2          6           0       -0.599200    2.715406    1.373275
      3          6           0        0.089891    1.665908    0.742826
      4          6           0        0.820122    1.954295   -0.419791
      5          6           0        0.855949    3.246215   -0.946582
      6          6           0        0.148857    4.262288   -0.305907
      7         17           0        0.188075    5.891354   -0.964193
      8         15           0       -0.000021   -0.000653    1.547714
      9          6           0       -1.488232   -0.755789    0.742560
     10          6           0       -2.101939   -0.268302   -0.420975
     11          6           0       -3.239014   -0.882672   -0.947677
     12          6           0       -3.766976   -2.001750   -0.305966
     13          6           0       -3.182203   -2.508298    0.854451
     14          6           0       -2.054055   -1.876026    1.373960
     15         17           0       -5.197918   -2.781447   -0.964118
     16          6           0        1.398490   -0.911346    0.742632
     17          6           0        2.652774   -0.835726    1.371044
     18          6           0        3.764954   -1.495635    0.851577
     19          6           0        3.618099   -2.260143   -0.305633
     20          6           0        2.383825   -2.368134   -0.944142
     21          6           0        1.282616   -1.691354   -0.417633
     22         17           0        5.009629   -3.108320   -0.963617
     23          1           0       -1.121488    4.811876    1.345514
     24          1           0       -1.154302    2.522908    2.288236
     25          1           0        1.373654    1.167571   -0.923124
     26          1           0        1.425107    3.462182   -1.844767
     27          1           0       -1.696278    0.603456   -0.925125
     28          1           0       -3.709754   -0.498292   -1.846548
     29          1           0       -3.610067   -3.374979    1.347124
     30          1           0       -1.610667   -2.259895    2.289600
     31          1           0        2.764143   -0.256064    2.284250
     32          1           0        4.730380   -1.428447    1.341848
     33          1           0        2.285839   -2.971702   -1.840480
     34          1           0        0.323981   -1.780347   -0.919396
 ---------------------------------------------------------------------

 SCF Done:  E(RB3LYP) =  -2415.08624374     a.u. after    1 cycles

 Excitation energies and oscillator strengths:

 Excited State   1:      Singlet-A      4.4053 eV  281.44 nm  f=0.1828  <S**2>=0.000
      93 -> 94         0.69576
 This state for optimization and/or second-order correction.
 Total Energy, E(TD-HF/TD-DFT) =  -2414.92435240
 Copying the excited state density for this state as the 1-particle RhoCI density.

 Excited State   2:      Singlet-A      4.4074 eV  281.31 nm  f=0.1841  <S**2>=0.000
      93 -> 95         0.69574

 Excited State   3:      Singlet-A      4.6122 eV  268.82 nm  f=0.0036  <S**2>=0.000
      89 -> 94        -0.10987
      90 -> 95        -0.11029
      93 -> 96         0.67969

 Excited State   4:      Singlet-A      4.9175 eV  252.13 nm  f=0.0001  <S**2>=0.000
      88 -> 94        -0.11608
      89 -> 97        -0.10026
      93 -> 98         0.64531

 Excited State   5:      Singlet-A      4.9183 eV  252.09 nm  f=0.0001  <S**2>=0.000
      88 -> 95         0.11588
      90 -> 97         0.10101
      93 -> 99         0.64492

 Excited State   6:      Singlet-A      5.0224 eV  246.86 nm  f=0.0089  <S**2>=0.000
      91 -> 94        -0.11544
      92 -> 95        -0.11580
      93 -> 97         0.66873

 Excited State   7:      Singlet-A      5.2594 eV  235.74 nm  f=0.0017  <S**2>=0.000
      89 -> 94         0.13275
      90 -> 95         0.12987
      91 -> 94         0.24959
      91 -> 95        -0.36575
      91 -> 98        -0.12544
      92 -> 94         0.37041
      92 -> 95         0.24861
      92 -> 99         0.12331
      93 -> 96         0.10402

 Excited State   8:      Singlet-A      5.3612 eV  231.26 nm  f=0.0051  <S**2>=0.000
      87 -> 94         0.10071
      88 -> 94        -0.19116
      89 -> 94        -0.15917
      89 -> 95         0.10934
      89 -> 97        -0.11221
      90 -> 94         0.10997
      90 -> 95         0.15816
      91 -> 95         0.14081
      91 -> 96         0.38241
      91 -> 99         0.14692
      92 -> 94         0.14525
      92 -> 96        -0.22099
      92 -> 98        -0.14928
      93 -> 98        -0.22764

 Excited State   9:      Singlet-A      5.3620 eV  231.23 nm  f=0.0050  <S**2>=0.000
      88 -> 95        -0.18928
      89 -> 94         0.10975
      89 -> 95         0.15832
      90 -> 94         0.15834
      90 -> 95        -0.10954
      90 -> 97        -0.11225
      91 -> 94         0.14043
      91 -> 96         0.21946
      91 -> 98        -0.14732
      92 -> 95        -0.14316
      92 -> 96         0.38482
      92 -> 99        -0.14745
      93 -> 99         0.22850

 Excited State  10:      Singlet-A      5.4211 eV  228.71 nm  f=0.1610  <S**2>=0.000
      91 -> 94         0.46435
      92 -> 95        -0.46382
      92 -> 96        -0.13627

 The electronic state is 1-A.
 Alpha  occ. eigenvalues -- -101.55494-101.55492-101.55491 -77.10094 -10.26330
 Alpha  occ. eigenvalues --  -10.26328 -10.26326 -10.21418 -10.21417 -10.21417
 Alpha  occ. eigenvalues --  -10.21368 -10.21366 -10.21365 -10.21347 -10.21346
 Alpha  occ. eigenvalues --  -10.21344 -10.21314 -10.21312 -10.21311 -10.21249
 Alpha  occ. eigenvalues --  -10.21248 -10.21246  -9.47126  -9.47124  -9.47123
 Alpha  occ. eigenvalues --   -7.23521  -7.23519  -7.23517  -7.22556  -7.22554
 Alpha  occ. eigenvalues --   -7.22553  -7.22519  -7.22517  -7.22515  -6.56809
 Alpha  occ. eigenvalues --   -4.73069  -4.73069  -4.72564  -0.89964  -0.89792
 Alpha  occ. eigenvalues --   -0.89790  -0.85153  -0.84237  -0.84235  -0.76898
 Alpha  occ. eigenvalues --   -0.76780  -0.76779  -0.76742  -0.73907  -0.73905
 Alpha  occ. eigenvalues --   -0.65058  -0.63151  -0.62987  -0.62985  -0.60497
 Alpha  occ. eigenvalues --   -0.60496  -0.57615  -0.52432  -0.52430  -0.49747
 Alpha  occ. eigenvalues --   -0.48088  -0.47999  -0.47998  -0.47167  -0.47166
 Alpha  occ. eigenvalues --   -0.46321  -0.44340  -0.44246  -0.44245  -0.42726
 Alpha  occ. eigenvalues --   -0.42723  -0.40319  -0.40238  -0.40236  -0.39581
 Alpha  occ. eigenvalues --   -0.37219  -0.37218  -0.37129  -0.35190  -0.35186
 Alpha  occ. eigenvalues --   -0.34134  -0.33461  -0.33458  -0.31867  -0.31863
 Alpha  occ. eigenvalues --   -0.31861  -0.27683  -0.27413  -0.27144  -0.27141
 Alpha  occ. eigenvalues --   -0.25831  -0.25826  -0.22678
 Alpha virt. eigenvalues --   -0.03960  -0.03954  -0.03032  -0.01964  -0.01788
 Alpha virt. eigenvalues --   -0.01784   0.02242   0.02244   0.02402   0.05589
 Alpha virt. eigenvalues --    0.05597   0.10344   0.12153   0.12345   0.12346

 Mulliken charges:
               1
     1  C   -0.124131
     2  C   -0.153642
     3  C   -0.095982
     4  C   -0.166502
     5  C   -0.112898
     6  C   -0.081947
     7  Cl  -0.014409
     8  P    0.446556
     9  C   -0.132179
    10  C   -0.170281
    11  C   -0.120383
    12  C   -0.102148
    13  C   -0.121561
    14  C   -0.173274
    15  Cl  -0.046241
    16  C   -0.087551
    17  C   -0.162302
    18  C   -0.113977
    19  C   -0.066852
    20  C   -0.119044
    21  C   -0.147441
    22  Cl   0.011404
    23  H    0.158204
    24  H    0.149191
    25  H    0.148238
    26  H    0.160072
    27  H    0.139920
    28  H    0.146625
    29  H    0.142993
    30  H    0.126285
    31  H    0.157297
    32  H    0.167943
    33  H    0.172355
    34  H    0.185659
 Sum of Mulliken charges =  -0.00000

 Dipole moment (field-independent basis, Debye):
    X=              4.2049    Y=              0.0821    Z=              1.9742  Tot=              4.6460
 Quadrupole moment (field-independent basis, Debye-Ang):
   XX=           -168.7701   YY=           -166.3416   ZZ=           -145.0312
   XY=             -8.8911   XZ=             -0.7666   YZ=              0.7130

 Summary of Natural Population Analysis:

                                       Natural Population
                Natural  -----------------------------------------------
    Atom  No    Charge         Core      Valence    Rydberg      Total
 -----------------------------------------------------------------------
      C    1   -0.26120      1.99893     4.24594    0.01632     6.26120
      C    2   -0.19070      1.99901     4.17632    0.01537     6.19070
      C    3   -0.41678      1.99888     4.39391    0.02399     6.41678
      C    4   -0.23630      1.99899     4.22025    0.01705     6.23630
      C    5   -0.23428      1.99893     4.22007    0.01528     6.23428
      C    6   -0.05323      1.99855     4.03245    0.02223     6.05323
     Cl    7    0.00530      9.99967     6.97512    0.01992    16.99470
      P    8    1.21204      9.99758     3.74054    0.04985    13.78796
      C    9   -0.48685      1.99887     4.46225    0.02574     6.48685
      C   10   -0.24150      1.99899     4.22489    0.01763     6.24150
      C   11   -0.24760      1.99893     4.23265    0.01601     6.24760
      C   12   -0.09444      1.99854     4.07368    0.02222     6.09444
      C   13   -0.25670      1.99894     4.24146    0.01630     6.25670
      C   14   -0.22474      1.99901     4.20953    0.01620     6.22474
     Cl   15   -0.01837      9.99967     6.99816    0.02053    17.01837
      C   16   -0.39131      1.99891     4.36692    0.02548     6.39131
      C   17   -0.20114      1.99902     4.18677    0.01535     6.20114
      C   18   -0.24248      1.99893     4.22829    0.01526     6.24248
      C   19   -0.02195      1.99855     4.00112    0.02229     6.02195
      C   20   -0.24518      1.99892     4.23079    0.01547     6.24518
      C   21   -0.19141      1.99900     4.17637    0.01605     6.19141
     Cl   22    0.02498      9.99967     6.95594    0.01941    16.97502
      H   23    0.25611      0.00000     0.74286    0.00103     0.74389
      H   24    0.24444      0.00000     0.75439    0.00117     0.75556
      H   25    0.24673      0.00000     0.75198    0.00129     0.75327
      H   26    0.25682      0.00000     0.74213    0.00106     0.74318
      H   27    0.24163      0.00000     0.75686    0.00151     0.75837
      H   28    0.25074      0.00000     0.74821    0.00105     0.74926
      H   29    0.24845      0.00000     0.75049    0.00107     0.75155
      H   30    0.23131      0.00000     0.76778    0.00091     0.76869
      H   31    0.24748      0.00000     0.75141    0.00112     0.75252
      H   32    0.25994      0.00000     0.73898    0.00108     0.74006
      H   33    0.26280      0.00000     0.73615    0.00105     0.73720
      H   34    0.26741      0.00000     0.73135    0.00124     0.73259
 =======================================================================
   * Total *   -0.00000     75.97648   109.56602    0.45750   186.00000

 Normal termination of Gaussian 16 at Sun Aug 23 01:42:04 2020.
