 Gaussian 16, Revision A.03,

 ---------------------------------
 # opt=CalcAll B3LYP/6-31G* scf=qc
 ---------------------------------

 -------------------
 Title Card Required
 -------------------
 Symbolic Z-matrix:
 Charge =  0 Multiplicity = 1

 SCF Done:  E(RB3LYP) =  -814.891721602     a.u. after    6 cycles
 SCF Done:  E(RB3LYP) =  -814.893634827     a.u. after   13 cycles
 SCF Done:  E(RB3LYP) =  -814.905935367     a.u. after   13 cycles
 SCF Done:  E(RB3LYP) =  -814.908326907     a.u. after   11 cycles
 SCF Done:  E(RB3LYP) =  -814.909364855     a.u. after   13 cycles
 SCF Done:  E(RB3LYP) =  -814.909573777     a.u. after   11 cycles
 SCF Done:  E(RB3LYP) =  -814.909644248     a.u. after    7 cycles
 SCF Done:  E(RB3LYP) =  -814.909650679     a.u. after    4 cycles
 SCF Done:  E(RB3LYP) =  -814.909653853     a.u. after    3 cycles
 SCF Done:  E(RB3LYP) =  -814.909655086     a.u. after    3 cycles
 SCF Done:  E(RB3LYP) =  -814.909655687     a.u. after    5 cycles
 Optimization completed.
    -- Stationary point found.
 Normal termination of Gaussian 16 at Sun Aug 23 09:38:43 2020.

 ----------------------------------------------------------------------
 # freq B3LYP/6-31G* scf=qc volume NMR pop=NPA density=current Geom=All
 Check Guess=Read
 ----------------------------------------------------------------------

 Structure from the checkpoint file:  "phosphine_2_conf252.chk"
 -------------------
 Title Card Required
 -------------------
 Charge =  0 Multiplicity = 1

 SCF Done:  E(RB3LYP) =  -814.909655687     a.u. after    1 cycles

      1  C    Isotropic =   176.3445   Anisotropy =    19.2347

      2  C    Isotropic =   167.8758   Anisotropy =    12.0886

      3  C    Isotropic =   162.2435   Anisotropy =    15.2784

      4  C    Isotropic =   160.7383   Anisotropy =    28.4095

      5  H    Isotropic =    30.9176   Anisotropy =     6.3887

      6  H    Isotropic =    30.7331   Anisotropy =     6.2434

      7  P    Isotropic =   414.5184   Anisotropy =    43.6327

      8  C    Isotropic =   155.0723   Anisotropy =    31.1707

      9  H    Isotropic =    30.7161   Anisotropy =     4.7457

     10  H    Isotropic =    30.9943   Anisotropy =     4.3744

     11  C    Isotropic =   155.8485   Anisotropy =    34.5844

     12  C    Isotropic =   161.3923   Anisotropy =    24.4117

     13  C    Isotropic =   173.6778   Anisotropy =    24.2651

     14  C    Isotropic =   156.0640   Anisotropy =    32.3872

     15  H    Isotropic =    30.8061   Anisotropy =     5.9130

     16  H    Isotropic =    30.4920   Anisotropy =     6.0984

     17  C    Isotropic =   160.9871   Anisotropy =    12.5481

     18  C    Isotropic =   167.9576   Anisotropy =    11.1392

     19  C    Isotropic =   176.4377   Anisotropy =    18.9480

     20  H    Isotropic =    31.1744   Anisotropy =    10.1209

     21  H    Isotropic =    31.5592   Anisotropy =     9.2085

     22  H    Isotropic =    30.9824   Anisotropy =     5.9429

     23  H    Isotropic =    30.8153   Anisotropy =     9.3344

     24  H    Isotropic =    30.1321   Anisotropy =     5.8137

     25  H    Isotropic =    30.6354   Anisotropy =     9.0922

     26  H    Isotropic =    30.5620   Anisotropy =     6.3197

     27  H    Isotropic =    30.4947   Anisotropy =     4.3861

     28  H    Isotropic =    30.5878   Anisotropy =     6.3301

     29  H    Isotropic =    30.6886   Anisotropy =     5.7726

     30  H    Isotropic =    30.7476   Anisotropy =     6.0094

     31  H    Isotropic =    31.2524   Anisotropy =     7.5057

     32  H    Isotropic =    31.0703   Anisotropy =    10.4592

     33  H    Isotropic =    31.2094   Anisotropy =     7.7706

     34  H    Isotropic =    30.5165   Anisotropy =     8.9542

     35  H    Isotropic =    30.3434   Anisotropy =     6.4152

     36  H    Isotropic =    30.7955   Anisotropy =     9.0836

     37  H    Isotropic =    30.1165   Anisotropy =     5.7661

     38  H    Isotropic =    31.5384   Anisotropy =     9.2115

     39  H    Isotropic =    31.1498   Anisotropy =    10.1567

     40  H    Isotropic =    30.9001   Anisotropy =     6.1046

  Exact polarizability: 170.903  -2.212 159.372   0.287   0.052 129.180
 Approx polarizability: 213.062  -2.740 213.033   1.191   2.784 196.251

                      1                      2                      3
                      A                      A                      A
 Frequencies --     18.5588                23.4071                33.4467
 Red. masses --      3.0813                 3.0126                 2.8060
 Frc consts  --      0.0006                 0.0010                 0.0018
 IR Inten    --      0.0068                 0.0004                 0.0286

                      4                      5                      6
                      A                      A                      A
 Frequencies --     47.4007                49.8408                73.6557
 Red. masses --      2.7463                 1.8933                 2.3110
 Frc consts  --      0.0036                 0.0028                 0.0074
 IR Inten    --      0.0238                 0.0564                 0.0538

                      7                      8                      9
                      A                      A                      A
 Frequencies --     87.8725               112.8742               132.0560
 Red. masses --      2.4464                 2.9470                 2.1438
 Frc consts  --      0.0111                 0.0221                 0.0220
 IR Inten    --      0.0292                 0.1602                 0.1503

                     10                     11                     12
                      A                      A                      A
 Frequencies --    153.5059               161.4317               170.4387
 Red. masses --      1.9621                 1.7435                 2.5645
 Frc consts  --      0.0272                 0.0268                 0.0439
 IR Inten    --      0.4758                 0.5192                 0.0035

                     13                     14                     15
                      A                      A                      A
 Frequencies --    213.9620               240.6745               248.5524
 Red. masses --      2.9600                 1.3463                 1.2202
 Frc consts  --      0.0798                 0.0459                 0.0444
 IR Inten    --      0.0966                 0.0573                 0.0494

                     16                     17                     18
                      A                      A                      A
 Frequencies --    260.6467               283.4179               294.7779
 Red. masses --      1.4117                 2.3266                 2.4381
 Frc consts  --      0.0565                 0.1101                 0.1248
 IR Inten    --      0.1539                 0.1571                 0.0621

                     19                     20                     21
                      A                      A                      A
 Frequencies --    323.7188               364.9482               370.8173
 Red. masses --      2.4518                 2.0011                 2.1158
 Frc consts  --      0.1514                 0.1570                 0.1714
 IR Inten    --      0.1748                 0.2899                 0.2944

                     22                     23                     24
                      A                      A                      A
 Frequencies --    418.7508               459.7193               467.2885
 Red. masses --      2.6282                 2.2788                 2.2587
 Frc consts  --      0.2715                 0.2838                 0.2906
 IR Inten    --      0.9933                 0.6194                 0.3336

                     25                     26                     27
                      A                      A                      A
 Frequencies --    626.0543               646.2077               708.8038
 Red. masses --      3.4549                 2.8909                 1.7540
 Frc consts  --      0.7978                 0.7113                 0.5192
 IR Inten    --      9.1629                 8.6203                10.4839

                     28                     29                     30
                      A                      A                      A
 Frequencies --    730.8984               750.2785               762.3811
 Red. masses --      1.5727                 1.4365                 1.3296
 Frc consts  --      0.4950                 0.4764                 0.4553
 IR Inten    --      4.5405                 2.1584                 4.4736

                     31                     32                     33
                      A                      A                      A
 Frequencies --    775.4907               790.1143               808.7358
 Red. masses --      1.2167                 1.7586                 2.1413
 Frc consts  --      0.4311                 0.6468                 0.8252
 IR Inten    --      1.5839                 3.8656                 3.7745

                     34                     35                     36
                      A                      A                      A
 Frequencies --    879.2607               890.4430               897.6116
 Red. masses --      1.6400                 1.6120                 1.4140
 Frc consts  --      0.7470                 0.7531                 0.6712
 IR Inten    --      1.6769                 2.9692                 0.1271

                     37                     38                     39
                      A                      A                      A
 Frequencies --    904.5189               914.3669               930.8381
 Red. masses --      1.4287                 1.6973                 1.5701
 Frc consts  --      0.6887                 0.8361                 0.8015
 IR Inten    --      3.2515                 6.9135                 9.6419

                     40                     41                     42
                      A                      A                      A
 Frequencies --    980.6071               990.5684              1023.4430
 Red. masses --      1.8819                 1.7814                 3.4998
 Frc consts  --      1.0662                 1.0299                 2.1599
 IR Inten    --      5.9342                 2.2029                 0.7706

                     43                     44                     45
                      A                      A                      A
 Frequencies --   1052.7842              1062.1291              1068.3322
 Red. masses --      1.3222                 1.8023                 2.2353
 Frc consts  --      0.8634                 1.1979                 1.5032
 IR Inten    --      1.0664                 1.1020                 1.4796

                     46                     47                     48
                      A                      A                      A
 Frequencies --   1081.9572              1089.8383              1099.4457
 Red. masses --      1.6083                 1.2189                 1.3760
 Frc consts  --      1.1093                 0.8530                 0.9799
 IR Inten    --      4.4609                 0.4622                 2.9002

                     49                     50                     51
                      A                      A                      A
 Frequencies --   1108.6328              1122.5803              1125.5855
 Red. masses --      1.8437                 1.9647                 1.8998
 Frc consts  --      1.3351                 1.4588                 1.4182
 IR Inten    --      1.8101                 3.7148                 0.9553

                     52                     53                     54
                      A                      A                      A
 Frequencies --   1201.8845              1211.4696              1243.4061
 Red. masses --      1.3786                 1.3669                 1.4219
 Frc consts  --      1.1733                 1.1820                 1.2952
 IR Inten    --      2.5069                 0.5824                 5.6361

                     55                     56                     57
                      A                      A                      A
 Frequencies --   1248.8557              1250.5914              1267.3548
 Red. masses --      1.4463                 1.4303                 1.3684
 Frc consts  --      1.3290                 1.3180                 1.2950
 IR Inten    --      2.1827                 0.3758                 0.3086

                     58                     59                     60
                      A                      A                      A
 Frequencies --   1315.8843              1322.7973              1325.1225
 Red. masses --      1.2746                 1.2058                 1.2503
 Frc consts  --      1.3004                 1.2431                 1.2936
 IR Inten    --      8.3498                 2.1243                 2.0975

                     61                     62                     63
                      A                      A                      A
 Frequencies --   1337.1613              1343.8191              1347.5378
 Red. masses --      1.1492                 1.1694                 1.1149
 Frc consts  --      1.2106                 1.2442                 1.1928
 IR Inten    --      5.7812                 0.9212                 0.9369

                     64                     65                     66
                      A                      A                      A
 Frequencies --   1350.6908              1395.8338              1398.7283
 Red. masses --      1.2836                 1.3220                 1.3199
 Frc consts  --      1.3797                 1.5176                 1.5215
 IR Inten    --      2.5926                15.1909                 7.9392

                     67                     68                     69
                      A                      A                      A
 Frequencies --   1402.8172              1405.3539              1411.6841
 Red. masses --      1.4511                 1.4548                 1.5176
 Frc consts  --      1.6825                 1.6929                 1.7819
 IR Inten    --      8.1432                 0.1243                 1.2795

                     70                     71                     72
                      A                      A                      A
 Frequencies --   1440.6168              1441.4712              1442.1178
 Red. masses --      1.2421                 1.2629                 1.2645
 Frc consts  --      1.5188                 1.5461                 1.5494
 IR Inten    --      1.6153                 2.1483                10.4411

                     73                     74                     75
                      A                      A                      A
 Frequencies --   1483.6713              1493.6259              1496.5789
 Red. masses --      1.0856                 1.0847                 1.0822
 Frc consts  --      1.4080                 1.4258                 1.4281
 IR Inten    --      0.9474                 4.2237                 6.2052

                     76                     77                     78
                      A                      A                      A
 Frequencies --   1514.6152              1516.4401              1517.7627
 Red. masses --      1.0721                 1.0681                 1.0683
 Frc consts  --      1.4491                 1.4472                 1.4499
 IR Inten    --      0.8365                 1.6976                 5.0943

                     79                     80                     81
                      A                      A                      A
 Frequencies --   1520.1378              1521.2253              1526.6252
 Red. masses --      1.0758                 1.0768                 1.0684
 Frc consts  --      1.4647                 1.4682                 1.4670
 IR Inten    --      0.4457                 1.6362                 0.3197

                     82                     83                     84
                      A                      A                      A
 Frequencies --   1529.7046              1532.5604              1532.8794
 Red. masses --      1.0410                 1.0633                 1.0616
 Frc consts  --      1.4352                 1.4714                 1.4697
 IR Inten    --      6.2504                10.8445                 2.3335

                     85                     86                     87
                      A                      A                      A
 Frequencies --   1538.6587              1539.4969              1540.6503
 Red. masses --      1.0553                 1.0558                 1.0811
 Frc consts  --      1.4720                 1.4743                 1.5119
 IR Inten    --      1.1964                 8.3118                 2.4617

                     88                     89                     90
                      A                      A                      A
 Frequencies --   3013.3123              3014.3958              3015.5072
 Red. masses --      1.0614                 1.0635                 1.0639
 Frc consts  --      5.6784                 5.6938                 5.7002
 IR Inten    --     10.0963                17.0197                12.2591

                     91                     92                     93
                      A                      A                      A
 Frequencies --   3022.3058              3025.3791              3027.8580
 Red. masses --      1.0590                 1.0620                 1.0619
 Frc consts  --      5.6994                 5.7272                 5.7360
 IR Inten    --      8.8367                17.3296                77.8151

                     94                     95                     96
                      A                      A                      A
 Frequencies --   3034.0987              3036.2404              3037.1567
 Red. masses --      1.0595                 1.0650                 1.0673
 Frc consts  --      5.7469                 5.7848                 5.8008
 IR Inten    --     44.5354                18.3156                17.9365

                     97                     98                     99
                      A                      A                      A
 Frequencies --   3041.8249              3041.9197              3042.1775
 Red. masses --      1.0387                 1.0378                 1.0391
 Frc consts  --      5.6627                 5.6581                 5.6658
 IR Inten    --     15.5027                52.7952                27.9877

                    100                    101                    102
                      A                      A                      A
 Frequencies --   3045.5428              3051.9522              3057.2389
 Red. masses --      1.1001                 1.0962                 1.0978
 Frc consts  --      6.0120                 6.0158                 6.0456
 IR Inten    --      5.1442                32.6482                14.4589

                    103                    104                    105
                      A                      A                      A
 Frequencies --   3058.9367              3071.2802              3074.2513
 Red. masses --      1.0985                 1.0996                 1.0994
 Frc consts  --      6.0563                 6.1111                 6.1217
 IR Inten    --     11.0040                14.2937                 7.6375

                    106                    107                    108
                      A                      A                      A
 Frequencies --   3075.8735              3080.7878              3081.3002
 Red. masses --      1.1002                 1.1004                 1.1008
 Frc consts  --      6.1329                 6.1538                 6.1577
 IR Inten    --     64.3486                40.6874                60.4953

                    109                    110                    111
                      A                      A                      A
 Frequencies --   3106.4010              3106.6466              3106.9102
 Red. masses --      1.1010                 1.1027                 1.1010
 Frc consts  --      6.2596                 6.2705                 6.2619
 IR Inten    --     21.1179                79.7554                57.5304

                    112                    113                    114
                      A                      A                      A
 Frequencies --   3110.7931              3114.0316              3115.5403
 Red. masses --      1.1020                 1.1017                 1.1019
 Frc consts  --      6.2829                 6.2947                 6.3015
 IR Inten    --     44.9763                69.2085                41.9418

 - Thermochemistry -
 -------------------
 Temperature   298.150 Kelvin.  Pressure   1.00000 Atm.
 Atom     1 has atomic number  6 and mass  12.00000

 Molecular mass:   202.18504 amu.
 Principal axes and moments of inertia in atomic units:
                           1         2         3
     Eigenvalues --  3235.085444666.940657030.42496
           X            0.99993   0.01212   0.00086
           Y           -0.01212   0.99993  -0.00165
           Z           -0.00088   0.00164   1.00000
 This molecule is an asymmetric top.
 Rotational symmetry number  1.
 Warning -- assumption of classical behavior for rotation
           may cause significant error
 Rotational temperatures (Kelvin)      0.02677     0.01856     0.01232
 Rotational constants (GHZ):           0.55787     0.38671     0.25670
 Zero-point vibrational energy     977068.9 (Joules/Mol)
                                  233.52507 (Kcal/Mol)
 Warning -- explicit consideration of  24 degrees of freedom as
           vibrations may cause significant error
 Vibrational temperatures:     26.70    33.68    48.12    68.20    71.71
          (Kelvin)            105.97   126.43   162.40   190.00   220.86
                              232.26   245.22   307.84   346.28   357.61
                              375.01   407.78   424.12   465.76   525.08
                              533.52   602.49   661.43   672.32   900.75
                              929.75  1019.81  1051.60  1079.48  1096.90
                             1115.76  1136.80  1163.59  1265.06  1281.15
                             1291.46  1301.40  1315.57  1339.27  1410.87
                             1425.21  1472.51  1514.72  1528.17  1537.09
                             1556.70  1568.03  1581.86  1595.08  1615.14
                             1619.47  1729.24  1743.03  1788.98  1796.82
                             1799.32  1823.44  1893.26  1903.21  1906.56
                             1923.88  1933.46  1938.81  1943.34  2008.29
                             2012.46  2018.34  2021.99  2031.10  2072.73
                             2073.96  2074.89  2134.67  2148.99  2153.24
                             2179.19  2181.82  2183.72  2187.14  2188.70
                             2196.47  2200.90  2205.01  2205.47  2213.79
                             2214.99  2216.65  4335.48  4337.04  4338.64
                             4348.42  4352.85  4356.41  4365.39  4368.47
                             4369.79  4376.51  4376.64  4377.01  4381.86
                             4391.08  4398.68  4401.13  4418.89  4423.16
                             4425.50  4432.57  4433.30  4469.42  4469.77
                             4470.15  4475.74  4480.40  4482.57

 Zero-point correction=                           0.372146 (Hartree/Particle)
 Thermal correction to Energy=                    0.390722
 Thermal correction to Enthalpy=                  0.391666
 Thermal correction to Gibbs Free Energy=         0.322438
 Sum of electronic and zero-point Energies=           -814.537510
 Sum of electronic and thermal Energies=              -814.518934
 Sum of electronic and thermal Enthalpies=            -814.517990
 Sum of electronic and thermal Free Energies=         -814.587218

                     E (Thermal)             CV                S
                      KCal/Mol        Cal/Mol-Kelvin    Cal/Mol-Kelvin
 Total                  245.182             66.148            145.702
 Electronic               0.000              0.000              0.000
 Translational            0.889              2.981             41.817
 Rotational               0.889              2.981             33.029
 Vibrational            243.404             60.186             70.857
 Vibration     1          0.593              1.986              6.783
 Vibration     2          0.593              1.985              6.322
 Vibration     3          0.594              1.983              5.614
 Vibration     4          0.595              1.979              4.923
 Vibration     5          0.595              1.978              4.824
 Vibration     6          0.599              1.966              4.053
 Vibration     7          0.601              1.958              3.707
 Vibration     8          0.607              1.939              3.219
 Vibration     9          0.612              1.921              2.916
 Vibration    10          0.619              1.899              2.628
 Vibration    11          0.622              1.890              2.533
 Vibration    12          0.626              1.879              2.431
 Vibration    13          0.644              1.820              2.010
 Vibration    14          0.658              1.778              1.798
 Vibration    15          0.662              1.765              1.741
 Vibration    16          0.669              1.745              1.657
 Vibration    17          0.682              1.704              1.513
 Vibration    18          0.689              1.683              1.446
 Vibration    19          0.708              1.628              1.291
 Vibration    20          0.738              1.544              1.101
 Vibration    21          0.743              1.532              1.076
 Vibration    22          0.782              1.429              0.896
 Vibration    23          0.818              1.339              0.767
 Vibration    24          0.825              1.323              0.745

 Optimization completed.
    -- Stationary point found.
 Normal termination of Gaussian 16 at Sun Aug 23 09:46:38 2020.
 Gaussian 16:  ES64L-G16RevA.03 25-Dec-2016

 ----------------------------------------------------------------------
 # TD(NStates=10, Root=1) B3LYP/6-31G* scf=qc volume pop=NPA density=cu
 rrent Geom=AllCheck Guess=Read
 ----------------------------------------------------------------------

 Structure from the checkpoint file:  "phosphine_2_conf253.chk"
 -------------------
 Title Card Required
 -------------------
 Charge =  0 Multiplicity = 1

                         Standard orientation:
 ---------------------------------------------------------------------
 Center     Atomic      Atomic             Coordinates (Angstroms)
 Number     Number       Type             X           Y           Z
 ---------------------------------------------------------------------
      1          6           0        4.448454   -0.807615   -0.786695
      2          6           0        3.221191   -1.721278   -0.884252
      3          6           0        2.484014   -1.936605    0.449167
      4          6           0        1.835673   -0.681967    1.064064
      5          1           0        1.472901   -0.913540    2.075576
      6          1           0        2.588637    0.107565    1.181773
      7         15           0        0.428928    0.058710    0.053515
      8          6           0       -0.953569   -1.109357    0.572062
      9          1           0       -0.539984   -2.125603    0.511955
     10          1           0       -1.209993   -0.941149    1.628716
     11          6           0       -2.212592   -1.037438   -0.305982
     12          6           0       -3.289200   -2.052895    0.102997
     13          6           0       -4.542012   -1.989402   -0.776852
     14          6           0        0.103588    1.538987    1.172097
     15          1           0       -0.035517    1.185792    2.203989
     16          1           0        1.030207    2.127888    1.170662
     17          6           0       -1.082311    2.440012    0.779736
     18          6           0       -1.001653    3.089901   -0.612419
     19          6           0        0.185768    4.041648   -0.796091
     20          1           0        4.971283   -0.750092   -1.748214
     21          1           0        5.162837   -1.180167   -0.041237
     22          1           0        4.176254    0.215634   -0.503910
     23          1           0        3.538052   -2.702873   -1.261930
     24          1           0        2.522760   -1.315560   -1.627077
     25          1           0        3.192387   -2.351950    1.181300
     26          1           0        1.716764   -2.710671    0.308044
     27          1           0       -1.931689   -1.206451   -1.354713
     28          1           0       -2.642356   -0.026913   -0.268969
     29          1           0       -3.568662   -1.882767    1.152591
     30          1           0       -2.863235   -3.065711    0.062803
     31          1           0       -5.009551   -0.998078   -0.730234
     32          1           0       -5.290509   -2.725364   -0.461591
     33          1           0       -4.298868   -2.190214   -1.827483
     34          1           0       -1.168026    3.235765    1.534808
     35          1           0       -2.014302    1.863738    0.849917
     36          1           0       -1.934355    3.644191   -0.784310
     37          1           0       -0.961204    2.308423   -1.381943
     38          1           0        0.189954    4.825058   -0.027163
     39          1           0        0.144365    4.535654   -1.773514
     40          1           0        1.143821    3.512801   -0.739569
 ---------------------------------------------------------------------

 SCF Done:  E(RB3LYP) =  -814.909655687     a.u. after    1 cycles

 Excitation energies and oscillator strengths:

 Excited State   1:      Singlet-A      6.4707 eV  191.61 nm  f=0.1293  <S**2>=0.000
      57 -> 58         0.69566
 This state for optimization and/or second-order correction.
 Total Energy, E(TD-HF/TD-DFT) =  -814.671861515
 Copying the excited state density for this state as the 1-particle RhoCI density.

 Excited State   2:      Singlet-A      6.6075 eV  187.64 nm  f=0.1306  <S**2>=0.000
      57 -> 59         0.69502

 Excited State   3:      Singlet-A      6.9657 eV  177.99 nm  f=0.0043  <S**2>=0.000
      57 -> 60         0.69968

 Excited State   4:      Singlet-A      7.5989 eV  163.16 nm  f=0.0152  <S**2>=0.000
      57 -> 61         0.67061
      57 -> 63        -0.16876

 Excited State   5:      Singlet-A      7.7880 eV  159.20 nm  f=0.0025  <S**2>=0.000
      57 -> 62         0.64785
      57 -> 63         0.24515

 Excited State   6:      Singlet-A      7.9602 eV  155.76 nm  f=0.0303  <S**2>=0.000
      57 -> 61         0.18184
      57 -> 62        -0.21473
      57 -> 63         0.63073
      57 -> 66        -0.10996

 Excited State   7:      Singlet-A      8.2266 eV  150.71 nm  f=0.0010  <S**2>=0.000
      55 -> 58         0.40688
      55 -> 59         0.22502
      56 -> 58         0.34180
      56 -> 59        -0.38606

 Excited State   8:      Singlet-A      8.2412 eV  150.44 nm  f=0.0407  <S**2>=0.000
      56 -> 59         0.10797
      57 -> 64         0.65839
      57 -> 65        -0.14610
      57 -> 66        -0.11064

 Excited State   9:      Singlet-A      8.3561 eV  148.38 nm  f=0.0055  <S**2>=0.000
      55 -> 58        -0.16176
      55 -> 59        -0.12564
      57 -> 64         0.17423
      57 -> 65         0.62166

 Excited State  10:      Singlet-A      8.4303 eV  147.07 nm  f=0.0254  <S**2>=0.000
      55 -> 58         0.16247
      56 -> 58         0.26319
      56 -> 59         0.36085
      57 -> 66         0.46253
      57 -> 67         0.15085

 The electronic state is 1-A.
 Alpha  occ. eigenvalues --  -77.06308 -10.18054 -10.18046 -10.18034 -10.18025
 Alpha  occ. eigenvalues --  -10.18004 -10.17858 -10.17826 -10.17419 -10.17377
 Alpha  occ. eigenvalues --  -10.17144 -10.16870 -10.16814  -6.53077  -4.69334
 Alpha  occ. eigenvalues --   -4.69321  -4.68835  -0.79861  -0.78735  -0.78642
 Alpha  occ. eigenvalues --   -0.73970  -0.71396  -0.71146  -0.65905  -0.62944
 Alpha  occ. eigenvalues --   -0.62599  -0.57954  -0.57229  -0.55470  -0.51073
 Alpha  occ. eigenvalues --   -0.47202  -0.45695  -0.45189  -0.44824  -0.44618
 Alpha  occ. eigenvalues --   -0.42216  -0.41477  -0.40432  -0.39882  -0.38876
 Alpha  occ. eigenvalues --   -0.38506  -0.37976  -0.37740  -0.37633  -0.35679
 Alpha  occ. eigenvalues --   -0.35238  -0.33468  -0.33127  -0.32949  -0.32670
 Alpha  occ. eigenvalues --   -0.32442  -0.32065  -0.31744  -0.31602  -0.28932
 Alpha  occ. eigenvalues --   -0.28629  -0.21279
 Alpha virt. eigenvalues --    0.05456   0.05785   0.07439   0.09568   0.10507
 Alpha virt. eigenvalues --    0.10930   0.11995   0.12263   0.12867   0.14392
 Alpha virt. eigenvalues --    0.14421   0.14685   0.15076   0.15356   0.15912

 Mulliken charges:
               1
     1  C   -0.436998
     2  C   -0.245513
     3  C   -0.266916
     4  C   -0.406740
     5  H    0.134902
     6  H    0.144410
     7  P    0.326723
     8  C   -0.423335
     9  H    0.137346
    10  H    0.171227
    11  C   -0.206745
    12  C   -0.253110
    13  C   -0.440765
    14  C   -0.428203
    15  H    0.180997
    16  H    0.171729
    17  C   -0.228672
    18  C   -0.228429
    19  C   -0.448626
    20  H    0.140802
    21  H    0.138018
    22  H    0.135898
    23  H    0.131350
    24  H    0.143606
    25  H    0.137988
    26  H    0.136403
    27  H    0.119552
    28  H    0.108548
    29  H    0.121465
    30  H    0.124868
    31  H    0.142842
    32  H    0.139205
    33  H    0.141084
    34  H    0.108649
    35  H    0.116076
    36  H    0.124518
    37  H    0.116647
    38  H    0.137835
    39  H    0.140555
    40  H    0.140808
 Sum of Mulliken charges =  -0.00000

 Dipole moment (field-independent basis, Debye):
    X=              0.8140    Y=             -0.6042    Z=              1.3023  Tot=              1.6504
 Quadrupole moment (field-independent basis, Debye-Ang):
   XX=            -98.2549   YY=            -96.1085   ZZ=            -93.6648
   XY=             -0.8052   XZ=             -0.5608   YZ=              1.1386

 Summary of Natural Population Analysis:

                                       Natural Population
                Natural  -----------------------------------------------
    Atom  No    Charge         Core      Valence    Rydberg      Total
 -----------------------------------------------------------------------
      C    1   -0.67891      1.99946     4.67154    0.00791     6.67891
      C    2   -0.45499      1.99935     4.44475    0.01090     6.45499
      C    3   -0.46094      1.99933     4.44892    0.01269     6.46094
      C    4   -0.84763      1.99932     4.82563    0.02267     6.84763
      H    5    0.24252      0.00000     0.75112    0.00636     0.75748
      H    6    0.24264      0.00000     0.75375    0.00361     0.75736
      P    7    0.99751      9.99764     3.89500    0.10986    14.00249
      C    8   -0.80081      1.99930     4.77766    0.02385     6.80081
      H    9    0.22465      0.00000     0.76872    0.00663     0.77535
      H   10    0.25872      0.00000     0.73918    0.00210     0.74128
      C   11   -0.46450      1.99932     4.45003    0.01515     6.46450
      C   12   -0.45702      1.99934     4.44594    0.01174     6.45702
      C   13   -0.67283      1.99946     4.66574    0.00762     6.67283
      C   14   -0.75242      1.99930     4.73622    0.01690     6.75242
      H   15    0.27203      0.00000     0.72591    0.00206     0.72797
      H   16    0.25134      0.00000     0.74656    0.00209     0.74866
      C   17   -0.46344      1.99931     4.44834    0.01579     6.46344
      C   18   -0.46095      1.99934     4.44890    0.01271     6.46095
      C   19   -0.68007      1.99946     4.67227    0.00833     6.68007
      H   20    0.23144      0.00000     0.76720    0.00136     0.76856
      H   21    0.22253      0.00000     0.77608    0.00139     0.77747
      H   22    0.21609      0.00000     0.77860    0.00531     0.78391
      H   23    0.23240      0.00000     0.76561    0.00199     0.76760
      H   24    0.22811      0.00000     0.77034    0.00155     0.77189
      H   25    0.23853      0.00000     0.75962    0.00185     0.76147
      H   26    0.23013      0.00000     0.76832    0.00155     0.76987
      H   27    0.22126      0.00000     0.77404    0.00470     0.77874
      H   28    0.20684      0.00000     0.77752    0.01564     0.79316
      H   29    0.22097      0.00000     0.77635    0.00268     0.77903
      H   30    0.22351      0.00000     0.77380    0.00268     0.77649
      H   31    0.22505      0.00000     0.77379    0.00115     0.77495
      H   32    0.22982      0.00000     0.76932    0.00086     0.77018
      H   33    0.22411      0.00000     0.77470    0.00119     0.77589
      H   34    0.22100      0.00000     0.77137    0.00762     0.77900
      H   35    0.21769      0.00000     0.77162    0.01069     0.78231
      H   36    0.23080      0.00000     0.76637    0.00283     0.76920
      H   37    0.21234      0.00000     0.77538    0.01228     0.78766
      H   38    0.22237      0.00000     0.77632    0.00131     0.77763
      H   39    0.23080      0.00000     0.76788    0.00132     0.76920
      H   40    0.21930      0.00000     0.77924    0.00146     0.78070
 =======================================================================
   * Total *   -0.00000     33.98993    79.62968    0.38040   114.00000

 Normal termination of Gaussian 16 at Sun Aug 23 09:57:00 2020.
