 Gaussian 16, Revision A.03,

 ---------------------------------
 # opt=CalcAll B3LYP/6-31G* scf=qc
 ---------------------------------

 -------------------
 Title Card Required
 -------------------
 Symbolic Z-matrix:
 Charge =  0 Multiplicity = 1

 SCF Done:  E(RB3LYP) =  -1036.24969548     a.u. after    8 cycles
 SCF Done:  E(RB3LYP) =  -1036.26371150     a.u. after   15 cycles
 SCF Done:  E(RB3LYP) =  -1036.28098487     a.u. after   17 cycles
 SCF Done:  E(RB3LYP) =  -1036.29122198     a.u. after   17 cycles
 SCF Done:  E(RB3LYP) =  -1036.29497810     a.u. after   17 cycles
 SCF Done:  E(RB3LYP) =  -1036.29708107     a.u. after   15 cycles
 SCF Done:  E(RB3LYP) =  -1036.29784073     a.u. after   15 cycles
 SCF Done:  E(RB3LYP) =  -1036.29799673     a.u. after   11 cycles
 SCF Done:  E(RB3LYP) =  -1036.29804109     a.u. after    7 cycles
 SCF Done:  E(RB3LYP) =  -1036.29811192     a.u. after    9 cycles
 SCF Done:  E(RB3LYP) =  -1036.29823219     a.u. after    7 cycles
 SCF Done:  E(RB3LYP) =  -1036.29823908     a.u. after    5 cycles
 SCF Done:  E(RB3LYP) =  -1036.29823553     a.u. after    2 cycles
 SCF Done:  E(RB3LYP) =  -1036.29822934     a.u. after    3 cycles
 SCF Done:  E(RB3LYP) =  -1036.29823221     a.u. after    2 cycles
 SCF Done:  E(RB3LYP) =  -1036.29823672     a.u. after    4 cycles
 SCF Done:  E(RB3LYP) =  -1036.29822849     a.u. after    3 cycles
 SCF Done:  E(RB3LYP) =  -1036.29823565     a.u. after    4 cycles
 Optimization completed.
    -- Stationary point found.
 Normal termination of Gaussian 16 at Sun Aug 23 07:01:22 2020.

 ----------------------------------------------------------------------
 # freq B3LYP/6-31G* scf=qc volume NMR pop=NPA density=current Geom=All
 Check Guess=Read
 ----------------------------------------------------------------------

 Structure from the checkpoint file:  "phosphine_1_conf222.chk"
 -------------------
 Title Card Required
 -------------------
 Charge =  0 Multiplicity = 1

 SCF Done:  E(RB3LYP) =  -1036.29823565     a.u. after    1 cycles

      1  C    Isotropic =    68.1580   Anisotropy =   167.3577

      2  C    Isotropic =    68.7231   Anisotropy =   164.1239

      3  C    Isotropic =    60.9899   Anisotropy =   164.0833

      4  C    Isotropic =    56.1322   Anisotropy =   179.4305

      5  C    Isotropic =    62.5601   Anisotropy =   174.0671

      6  C    Isotropic =    68.6865   Anisotropy =   163.8960

      7  P    Isotropic =   361.4788   Anisotropy =    39.7746

      8  C    Isotropic =    56.1313   Anisotropy =   179.4118

      9  C    Isotropic =    62.5824   Anisotropy =   174.0561

     10  C    Isotropic =    68.6783   Anisotropy =   163.8878

     11  C    Isotropic =    68.1749   Anisotropy =   167.3445

     12  C    Isotropic =    68.7249   Anisotropy =   164.1339

     13  C    Isotropic =    61.0083   Anisotropy =   164.1233

     14  C    Isotropic =    56.0926   Anisotropy =   179.4492

     15  C    Isotropic =    61.0276   Anisotropy =   164.1167

     16  C    Isotropic =    68.7265   Anisotropy =   164.1106

     17  C    Isotropic =    68.1726   Anisotropy =   167.3243

     18  C    Isotropic =    68.6848   Anisotropy =   163.8878

     19  C    Isotropic =    62.5957   Anisotropy =   174.0337

     20  H    Isotropic =    25.0188   Anisotropy =     3.6444

     21  H    Isotropic =    24.9261   Anisotropy =     4.5878

     22  H    Isotropic =    24.6118   Anisotropy =     9.2441

     23  H    Isotropic =    25.3985   Anisotropy =    12.2167

     24  H    Isotropic =    25.0478   Anisotropy =     6.0851

     25  H    Isotropic =    25.3995   Anisotropy =    12.2332

     26  H    Isotropic =    25.0479   Anisotropy =     6.0869

     27  H    Isotropic =    25.0193   Anisotropy =     3.6431

     28  H    Isotropic =    24.9257   Anisotropy =     4.5906

     29  H    Isotropic =    24.6132   Anisotropy =     9.2554

     30  H    Isotropic =    24.6154   Anisotropy =     9.2536

     31  H    Isotropic =    24.9298   Anisotropy =     4.5869

     32  H    Isotropic =    25.0209   Anisotropy =     3.6408

     33  H    Isotropic =    25.0478   Anisotropy =     6.0874

     34  H    Isotropic =    25.4018   Anisotropy =    12.2304

  Exact polarizability: 224.165   0.052 224.028  -0.074  -0.007 165.109
 Approx polarizability: 330.960   0.121 330.678  -0.171  -0.019 308.176

                      1                      2                      3
                      A                      A                      A
 Frequencies --     23.8499                24.7768                39.1515
 Red. masses --      3.7989                 3.8007                 3.6899
 Frc consts  --      0.0013                 0.0014                 0.0033
 IR Inten    --      0.2817                 0.2827                 0.0021

                      4                      5                      6
                      A                      A                      A
 Frequencies --     53.2752                53.4105                70.6369
 Red. masses --      5.2496                 5.2490                 5.1672
 Frc consts  --      0.0088                 0.0088                 0.0152
 IR Inten    --      0.0865                 0.0854                 0.3100

                      7                      8                      9
                      A                      A                      A
 Frequencies --    181.6778               202.4362               202.8470
 Red. masses --      4.5629                 4.6418                 4.6420
 Frc consts  --      0.0887                 0.1121                 0.1125
 IR Inten    --      0.3515                 1.1306                 1.1347

                     10                     11                     12
                      A                      A                      A
 Frequencies --    245.5509               259.7878               259.8700
 Red. masses --      5.7388                 4.7216                 4.7221
 Frc consts  --      0.2039                 0.1877                 0.1879
 IR Inten    --      0.4822                 0.2259                 0.2265

                     13                     14                     15
                      A                      A                      A
 Frequencies --    408.8422               408.9522               412.4157
 Red. masses --      3.0789                 3.0817                 3.5986
 Frc consts  --      0.3032                 0.3037                 0.3606
 IR Inten    --      1.9556                 1.9845                 0.1601

                     16                     17                     18
                      A                      A                      A
 Frequencies --    417.2443               429.4816               429.5479
 Red. masses --      4.6100                 7.3149                 7.3132
 Frc consts  --      0.4729                 0.7950                 0.7950
 IR Inten    --      0.5635                 7.7090                 7.7254

                     19                     20                     21
                      A                      A                      A
 Frequencies --    509.4833               509.6608               516.5344
 Red. masses --      4.2461                 4.2443                 4.5907
 Frc consts  --      0.6494                 0.6496                 0.7216
 IR Inten    --     26.0978                26.0975                11.9542

                     22                     23                     24
                      A                      A                      A
 Frequencies --    632.7052               632.7373               633.3561
 Red. masses --      6.4276                 6.4271                 6.4371
 Frc consts  --      1.5160                 1.5161                 1.5214
 IR Inten    --      0.1801                 0.1802                 0.0162

                     25                     26                     27
                      A                      A                      A
 Frequencies --    691.8705               705.1761               705.1849
 Red. masses --      6.5797                 5.7159                 5.7792
 Frc consts  --      1.8557                 1.6747                 1.6933
 IR Inten    --      0.8014                 1.1376                 1.0675

                     28                     29                     30
                      A                      A                      A
 Frequencies --    712.3294               712.4045               713.4325
 Red. masses --      2.2017                 2.1919                 2.1366
 Frc consts  --      0.6582                 0.6554                 0.6407
 IR Inten    --     26.4033                26.4293                16.6374

                     31                     32                     33
                      A                      A                      A
 Frequencies --    761.4572               762.8913               762.9845
 Red. masses --      1.6146                 1.6484                 1.6489
 Frc consts  --      0.5516                 0.5653                 0.5656
 IR Inten    --     19.1787                24.9389                24.9053

                     34                     35                     36
                      A                      A                      A
 Frequencies --    866.2462               866.3598               868.9027
 Red. masses --      1.2477                 1.2476                 1.2462
 Frc consts  --      0.5516                 0.5517                 0.5543
 IR Inten    --      0.2215                 0.2202                 0.1292

                     37                     38                     39
                      A                      A                      A
 Frequencies --    932.9741               933.0852               934.4247
 Red. masses --      1.3441                 1.3440                 1.3382
 Frc consts  --      0.6893                 0.6894                 0.6884
 IR Inten    --      1.2654                 1.2563                 0.0419

                     40                     41                     42
                      A                      A                      A
 Frequencies --    975.8624               975.9811               977.8168
 Red. masses --      1.3612                 1.3610                 1.3552
 Frc consts  --      0.7638                 0.7638                 0.7634
 IR Inten    --      0.0153                 0.0163                 0.1366

                     43                     44                     45
                      A                      A                      A
 Frequencies --   1000.3781              1000.4314              1001.1947
 Red. masses --      1.2542                 1.2541                 1.2523
 Frc consts  --      0.7395                 0.7395                 0.7396
 IR Inten    --      0.0814                 0.0792                 0.0012

                     46                     47                     48
                      A                      A                      A
 Frequencies --   1015.3605              1015.3654              1015.7503
 Red. masses --      6.3122                 6.3110                 6.3100
 Frc consts  --      3.8342                 3.8335                 3.8358
 IR Inten    --      4.3639                 4.3666                 0.0454

                     49                     50                     51
                      A                      A                      A
 Frequencies --   1052.7245              1052.7490              1052.9265
 Red. masses --      3.3144                 3.3184                 3.2536
 Frc consts  --      2.1641                 2.1668                 2.1252
 IR Inten    --      2.0939                 2.0572                 0.0459

                     52                     53                     54
                      A                      A                      A
 Frequencies --   1107.8694              1108.1731              1109.4484
 Red. masses --      1.8877                 1.8617                 1.6547
 Frc consts  --      1.3651                 1.3470                 1.2000
 IR Inten    --      4.3423                 3.8475                 2.9334

                     55                     56                     57
                      A                      A                      A
 Frequencies --   1110.7989              1110.8388              1115.9985
 Red. masses --      2.1895                 2.2175                 2.6136
 Frc consts  --      1.5917                 1.6122                 1.9179
 IR Inten    --      9.3760                 9.6922                 1.1742

                     58                     59                     60
                      A                      A                      A
 Frequencies --   1193.5256              1193.9258              1194.0199
 Red. masses --      1.1034                 1.1000                 1.1002
 Frc consts  --      0.9260                 0.9238                 0.9242
 IR Inten    --      0.0028                 0.1302                 0.1239

                     61                     62                     63
                      A                      A                      A
 Frequencies --   1219.2763              1219.6090              1220.8306
 Red. masses --      1.1476                 1.1479                 1.1473
 Frc consts  --      1.0052                 1.0060                 1.0075
 IR Inten    --      6.0303                 6.0596                 0.3878

                     64                     65                     66
                      A                      A                      A
 Frequencies --   1325.0707              1328.7932              1328.8842
 Red. masses --      3.4967                 3.4978                 3.5237
 Frc consts  --      3.6173                 3.6388                 3.6663
 IR Inten    --      2.6336                 2.4477                 2.4432

                     67                     68                     69
                      A                      A                      A
 Frequencies --   1365.1819              1365.4593              1365.7486
 Red. masses --      1.6558                 1.6474                 1.6411
 Frc consts  --      1.8182                 1.8097                 1.8035
 IR Inten    --      0.3589                 1.0018                 2.0459

                     70                     71                     72
                      A                      A                      A
 Frequencies --   1480.5384              1480.9959              1481.0274
 Red. masses --      2.1104                 2.1153                 2.1153
 Frc consts  --      2.7255                 2.7335                 2.7337
 IR Inten    --     16.7035                 6.6010                 6.5803

                     73                     74                     75
                      A                      A                      A
 Frequencies --   1531.1055              1531.6054              1531.7348
 Red. masses --      2.0150                 1.9984                 1.9965
 Frc consts  --      2.7832                 2.7620                 2.7599
 IR Inten    --      2.0489                10.1649                10.1198

                     76                     77                     78
                      A                      A                      A
 Frequencies --   1630.1892              1630.4525              1630.4944
 Red. masses --      5.1011                 5.1128                 5.1097
 Frc consts  --      7.9871                 8.0081                 8.0035
 IR Inten    --      0.3978                 0.0446                 0.0460

                     79                     80                     81
                      A                      A                      A
 Frequencies --   1646.1880              1646.2068              1647.9886
 Red. masses --      5.2708                 5.2675                 5.2813
 Frc consts  --      8.4157                 8.4106                 8.4508
 IR Inten    --      3.5244                 3.5033                 0.3201

                     82                     83                     84
                      A                      A                      A
 Frequencies --   3176.1025              3176.1276              3176.2211
 Red. masses --      1.0854                 1.0853                 1.0853
 Frc consts  --      6.4508                 6.4507                 6.4511
 IR Inten    --      2.1429                 1.8816                 1.9360

                     85                     86                     87
                      A                      A                      A
 Frequencies --   3182.6672              3182.7038              3182.7868
 Red. masses --      1.0875                 1.0875                 1.0876
 Frc consts  --      6.4902                 6.4905                 6.4912
 IR Inten    --      0.7637                 0.6830                 0.2448

                     88                     89                     90
                      A                      A                      A
 Frequencies --   3192.8381              3192.8793              3193.0084
 Red. masses --      1.0916                 1.0916                 1.0917
 Frc consts  --      6.5566                 6.5568                 6.5578
 IR Inten    --     10.2524                13.3068                44.2846

                     91                     92                     93
                      A                      A                      A
 Frequencies --   3203.8503              3203.8928              3204.2727
 Red. masses --      1.0941                 1.0941                 1.0942
 Frc consts  --      6.6166                 6.6169                 6.6191
 IR Inten    --     40.8159                41.0044                 4.8338

                     94                     95                     96
                      A                      A                      A
 Frequencies --   3209.9862              3210.0416              3210.9093
 Red. masses --      1.0958                 1.0957                 1.0957
 Frc consts  --      6.6524                 6.6523                 6.6558
 IR Inten    --     20.6396                20.5186                16.2392

 - Thermochemistry -
 -------------------
 Temperature   298.150 Kelvin.  Pressure   1.00000 Atm.
 Atom     1 has atomic number  6 and mass  12.00000

 Molecular mass:   262.09114 amu.
 Principal axes and moments of inertia in atomic units:
                           1         2         3
     Eigenvalues --  5162.175015164.093748679.93505
           X            0.99958   0.02883  -0.00002
           Y           -0.02883   0.99958   0.00000
           Z            0.00002   0.00000   1.00000
 This molecule is an asymmetric top.
 Rotational symmetry number  1.
 Warning -- assumption of classical behavior for rotation
           may cause significant error
 Rotational temperatures (Kelvin)      0.01678     0.01677     0.00998
 Rotational constants (GHZ):           0.34961     0.34948     0.20792
 Zero-point vibrational energy     720001.0 (Joules/Mol)
                                  172.08436 (Kcal/Mol)
 Warning -- explicit consideration of  21 degrees of freedom as
           vibrations may cause significant error
 Vibrational temperatures:     34.31    35.65    56.33    76.65    76.85
          (Kelvin)            101.63   261.39   291.26   291.85   353.29
                              373.78   373.90   588.23   588.39   593.37
                              600.32   617.93   618.02   733.03   733.29
                              743.18   910.32   910.37   911.26   995.45
                             1014.59  1014.60  1024.88  1024.99  1026.47
                             1095.57  1097.63  1097.76  1246.34  1246.50
                             1250.16  1342.34  1342.50  1344.43  1404.05
                             1404.22  1406.86  1439.32  1439.40  1440.50
                             1460.88  1460.88  1461.44  1514.64  1514.67
                             1514.93  1593.98  1594.41  1596.25  1598.19
                             1598.25  1605.67  1717.22  1717.79  1717.93
                             1754.27  1754.75  1756.50  1906.48  1911.84
                             1911.97  1964.19  1964.59  1965.01  2130.16
                             2130.82  2130.87  2202.92  2203.64  2203.82
                             2345.48  2345.86  2345.92  2368.50  2368.52
                             2371.09  4569.70  4569.74  4569.87  4579.15
                             4579.20  4579.32  4593.78  4593.84  4594.03
                             4609.63  4609.69  4610.23  4618.45  4618.53
                             4619.78

 Zero-point correction=                           0.274234 (Hartree/Particle)
 Thermal correction to Energy=                    0.290148
 Thermal correction to Enthalpy=                  0.291092
 Thermal correction to Gibbs Free Energy=         0.227864
 Sum of electronic and zero-point Energies=          -1036.024002
 Sum of electronic and thermal Energies=             -1036.008088
 Sum of electronic and thermal Enthalpies=           -1036.007144
 Sum of electronic and thermal Free Energies=        -1036.070371

                     E (Thermal)             CV                S
                      KCal/Mol        Cal/Mol-Kelvin    Cal/Mol-Kelvin
 Total                  182.070             62.532            133.073
 Electronic               0.000              0.000              0.000
 Translational            0.889              2.981             42.590
 Rotational               0.889              2.981             33.803
 Vibrational            180.293             56.570             56.680
 Vibration     1          0.593              1.985              6.285
 Vibration     2          0.593              1.985              6.209
 Vibration     3          0.594              1.981              5.302
 Vibration     4          0.596              1.976              4.692
 Vibration     5          0.596              1.976              4.687
 Vibration     6          0.598              1.968              4.136
 Vibration     7          0.630              1.865              2.311
 Vibration     8          0.639              1.836              2.111
 Vibration     9          0.639              1.836              2.107
 Vibration    10          0.660              1.770              1.762
 Vibration    11          0.668              1.746              1.663
 Vibration    12          0.668              1.746              1.663
 Vibration    13          0.773              1.451              0.931
 Vibration    14          0.773              1.451              0.930
 Vibration    15          0.776              1.443              0.918
 Vibration    16          0.780              1.433              0.901
 Vibration    17          0.791              1.406              0.860
 Vibration    18          0.791              1.406              0.860
 Vibration    19          0.865              1.229              0.635
 Vibration    20          0.865              1.229              0.634
 Vibration    21          0.872              1.213              0.618

                           ! Non-Optimized Parameters !
 Normal termination of Gaussian 16 at Sun Aug 23 07:12:50 2020.
 Gaussian 16:  ES64L-G16RevA.03 25-Dec-2016

 ----------------------------------------------------------------------
 # TD(NStates=10, Root=1) B3LYP/6-31G* scf=qc volume pop=NPA density=cu
 rrent Geom=AllCheck Guess=Read
 ----------------------------------------------------------------------

 Structure from the checkpoint file:  "phosphine_1_conf223.chk"
 -------------------
 Title Card Required
 -------------------
 Charge =  0 Multiplicity = 1

                         Standard orientation:
 ---------------------------------------------------------------------
 Center     Atomic      Atomic             Coordinates (Angstroms)
 Number     Number       Type             X           Y           Z
 ---------------------------------------------------------------------
      1          6           0       -3.706470   -2.140392   -0.652532
      2          6           0       -3.091237   -2.615105    0.507774
      3          6           0       -1.985539   -1.947864    1.034455
      4          6           0       -1.463107   -0.806665    0.402503
      5          6           0       -2.092263   -0.338376   -0.761125
      6          6           0       -3.206533   -0.999607   -1.282433
      7         15           0       -0.000014   -0.000177    1.206657
      8          6           0        1.430284   -0.863790    0.402835
      9          6           0        1.338956   -1.646818   -0.758040
     10          6           0        2.469059   -2.281098   -1.278805
     11          6           0        3.707635   -2.139526   -0.651165
     12          6           0        3.811498   -1.365303    0.506426
     13          6           0        2.680530   -0.741519    1.032641
     14          6           0        0.032902    1.670277    0.402753
     15          6           0       -0.698951    2.691728    1.031835
     16          6           0       -0.724373    3.982940    0.505322
     17          6           0       -0.001243    4.280170   -0.651814
     18          6           0        0.741515    3.278491   -1.278706
     19          6           0        0.757391    1.982763   -0.757665
     20          1           0       -4.574353   -2.652861   -1.059283
     21          1           0       -3.478693   -3.498458    1.008860
     22          1           0       -1.523783   -2.312259    1.949394
     23          1           0       -1.713439    0.548469   -1.260226
     24          1           0       -3.683497   -0.621804   -2.183393
     25          1           0        0.381023   -1.765427   -1.255425
     26          1           0        2.380041   -2.886248   -2.177596
     27          1           0        4.585628   -2.634817   -1.057499
     28          1           0        4.770763   -1.255895    1.005792
     29          1           0        2.765647   -0.156214    1.945492
     30          1           0       -1.248933    2.472791    1.944365
     31          1           0       -1.299433    4.758857    1.004104
     32          1           0       -0.011442    5.288084   -1.058382
     33          1           0        1.310639    3.504003   -2.177150
     34          1           0        1.339724    1.212585   -1.254449
 ---------------------------------------------------------------------

 SCF Done:  E(RB3LYP) =  -1036.29823565     a.u. after    1 cycles

 Excitation energies and oscillator strengths:

 Excited State   1:      Singlet-A      4.5096 eV  274.93 nm  f=0.1274  <S**2>=0.000
      69 -> 70         0.69699
 This state for optimization and/or second-order correction.
 Total Energy, E(TD-HF/TD-DFT) =  -1036.13250934
 Copying the excited state density for this state as the 1-particle RhoCI density.

 Excited State   2:      Singlet-A      4.5117 eV  274.81 nm  f=0.1282  <S**2>=0.000
      69 -> 71         0.69696

 Excited State   3:      Singlet-A      4.7576 eV  260.60 nm  f=0.0022  <S**2>=0.000
      67 -> 70        -0.12429
      68 -> 71         0.12472
      69 -> 72         0.67462

 Excited State   4:      Singlet-A      5.0578 eV  245.13 nm  f=0.0002  <S**2>=0.000
      66 -> 70        -0.16582
      67 -> 70         0.11834
      68 -> 71         0.11839
      69 -> 74         0.62957

 Excited State   5:      Singlet-A      5.0586 eV  245.09 nm  f=0.0002  <S**2>=0.000
      66 -> 71         0.16637
      67 -> 71         0.11879
      68 -> 70        -0.11882
      69 -> 75         0.62903

 Excited State   6:      Singlet-A      5.1512 eV  240.69 nm  f=0.0085  <S**2>=0.000
      69 -> 73         0.67912

 Excited State   7:      Singlet-A      5.4273 eV  228.44 nm  f=0.0147  <S**2>=0.000
      63 -> 72         0.16613
      64 -> 74         0.14445
      65 -> 75         0.14240
      67 -> 70         0.42399
      68 -> 71        -0.41772
      69 -> 72         0.16532

 Excited State   8:      Singlet-A      5.5139 eV  224.86 nm  f=0.0005  <S**2>=0.000
      63 -> 74         0.14344
      64 -> 71         0.12225
      64 -> 72         0.22288
      64 -> 74        -0.11186
      65 -> 70        -0.12537
      65 -> 72        -0.17370
      65 -> 75         0.11372
      66 -> 70         0.22653
      67 -> 70        -0.21122
      67 -> 71         0.16395
      68 -> 70        -0.16623
      68 -> 71        -0.22012
      68 -> 72         0.16241
      69 -> 74         0.28626

 Excited State   9:      Singlet-A      5.5149 eV  224.82 nm  f=0.0004  <S**2>=0.000
      63 -> 75         0.14384
      64 -> 70        -0.12237
      64 -> 72         0.17400
      64 -> 75         0.11259
      65 -> 71        -0.12112
      65 -> 72         0.22298
      65 -> 74         0.11214
      66 -> 71        -0.22529
      67 -> 70        -0.16413
      67 -> 71        -0.21397
      67 -> 72        -0.16306
      68 -> 70         0.21864
      68 -> 71        -0.16815
      69 -> 75         0.28715

 Excited State  10:      Singlet-A      5.6180 eV  220.69 nm  f=0.0009  <S**2>=0.000
      67 -> 71         0.47864
      68 -> 70         0.48641

 The electronic state is 1-A.
 Alpha  occ. eigenvalues --  -77.08112 -10.19447 -10.19447 -10.19446 -10.19149
 Alpha  occ. eigenvalues --  -10.19146 -10.19144 -10.19118 -10.19117 -10.19115
 Alpha  occ. eigenvalues --  -10.19032 -10.19030 -10.19029 -10.19009 -10.19007
 Alpha  occ. eigenvalues --  -10.19006 -10.18963 -10.18961 -10.18960  -6.54843
 Alpha  occ. eigenvalues --   -4.71102  -4.71102  -4.70601  -0.85560  -0.84846
 Alpha  occ. eigenvalues --   -0.84844  -0.76669  -0.74366  -0.74365  -0.74329
 Alpha  occ. eigenvalues --   -0.73821  -0.73820  -0.64436  -0.60337  -0.60307
 Alpha  occ. eigenvalues --   -0.60305  -0.59207  -0.59206  -0.55448  -0.51435
 Alpha  occ. eigenvalues --   -0.51434  -0.49296  -0.45440  -0.45439  -0.44774
 Alpha  occ. eigenvalues --   -0.44344  -0.44344  -0.44068  -0.41946  -0.41869
 Alpha  occ. eigenvalues --   -0.41867  -0.40379  -0.40376  -0.36843  -0.36352
 Alpha  occ. eigenvalues --   -0.36350  -0.35898  -0.34252  -0.34251  -0.34224
 Alpha  occ. eigenvalues --   -0.31884  -0.31883  -0.26774  -0.25450  -0.25445
 Alpha  occ. eigenvalues --   -0.25242  -0.24704  -0.24703  -0.21146
 Alpha virt. eigenvalues --   -0.01882  -0.01877  -0.00829   0.00173   0.00426
 Alpha virt. eigenvalues --    0.00431   0.06879   0.06889   0.09493   0.11039
 Alpha virt. eigenvalues --    0.11040   0.13902   0.14528   0.14530   0.15165

 Mulliken charges:
               1
     1  C   -0.168542
     2  C   -0.124462
     3  C   -0.167928
     4  C   -0.128876
     5  C   -0.176521
     6  C   -0.117450
     7  P    0.450623
     8  C   -0.110209
     9  C   -0.154294
    10  C   -0.123414
    11  C   -0.141581
    12  C   -0.116730
    13  C   -0.171949
    14  C   -0.081980
    15  C   -0.152375
    16  C   -0.121890
    17  C   -0.126027
    18  C   -0.117200
    19  C   -0.154812
    20  H    0.107226
    21  H    0.113380
    22  H    0.114852
    23  H    0.121325
    24  H    0.116351
    25  H    0.165776
    26  H    0.134924
    27  H    0.129935
    28  H    0.129724
    29  H    0.130587
    30  H    0.148635
    31  H    0.141427
    32  H    0.143384
    33  H    0.144404
    34  H    0.163687
 Sum of Mulliken charges =  -0.00000

 Dipole moment (field-independent basis, Debye):
    X=              2.3931    Y=              2.9108    Z=              0.1970  Tot=              3.7734
 Quadrupole moment (field-independent basis, Debye-Ang):
   XX=           -119.0432   YY=           -108.0320   ZZ=           -110.6556
   XY=             -4.3737   XZ=             -1.3150   YZ=             -0.3435

 Summary of Natural Population Analysis:

                                       Natural Population
                Natural  -----------------------------------------------
    Atom  No    Charge         Core      Valence    Rydberg      Total
 -----------------------------------------------------------------------
      C    1   -0.29734      1.99910     4.28156    0.01668     6.29734
      C    2   -0.24768      1.99910     4.23345    0.01513     6.24768
      C    3   -0.22831      1.99901     4.21305    0.01625     6.22831
      C    4   -0.48066      1.99886     4.45675    0.02505     6.48066
      C    5   -0.26688      1.99899     4.24979    0.01810     6.26688
      C    6   -0.22771      1.99909     4.21408    0.01454     6.22771
      P    7    1.24224      9.99750     3.71002    0.05025    13.75776
      C    8   -0.43455      1.99889     4.40941    0.02624     6.43455
      C    9   -0.21550      1.99899     4.19965    0.01686     6.21550
      C   10   -0.23704      1.99909     4.22348    0.01447     6.23704
      C   11   -0.24004      1.99909     4.22583    0.01512     6.24004
      C   12   -0.23237      1.99910     4.21893    0.01435     6.23237
      C   13   -0.22885      1.99902     4.21393    0.01590     6.22885
      C   14   -0.38136      1.99890     4.35824    0.02422     6.38136
      C   15   -0.19713      1.99902     4.18303    0.01508     6.19713
      C   16   -0.24059      1.99910     4.22700    0.01449     6.24059
      C   17   -0.20717      1.99909     4.19405    0.01403     6.20717
      C   18   -0.22529      1.99909     4.21220    0.01400     6.22529
      C   19   -0.22060      1.99899     4.20518    0.01643     6.22060
      H   20    0.22529      0.00000     0.77382    0.00089     0.77471
      H   21    0.22964      0.00000     0.76946    0.00090     0.77036
      H   22    0.22481      0.00000     0.77415    0.00104     0.77519
      H   23    0.23096      0.00000     0.76758    0.00145     0.76904
      H   24    0.23149      0.00000     0.76764    0.00088     0.76851
      H   25    0.25546      0.00000     0.74308    0.00146     0.74454
      H   26    0.24021      0.00000     0.75890    0.00088     0.75979
      H   27    0.23504      0.00000     0.76407    0.00089     0.76496
      H   28    0.23667      0.00000     0.76238    0.00096     0.76333
      H   29    0.23181      0.00000     0.76715    0.00104     0.76819
      H   30    0.24253      0.00000     0.75623    0.00125     0.75747
      H   31    0.24275      0.00000     0.75638    0.00087     0.75725
      H   32    0.24093      0.00000     0.75824    0.00083     0.75907
      H   33    0.24446      0.00000     0.75467    0.00086     0.75554
      H   34    0.25476      0.00000     0.74402    0.00121     0.74524
 =======================================================================
   * Total *   -0.00000     45.98001    91.64740    0.37260   138.00000

 Normal termination of Gaussian 16 at Sun Aug 23 07:24:38 2020.
