 Gaussian 16, Revision A.03,

 ---------------------------------
 # opt=CalcAll B3LYP/6-31G* scf=qc
 ---------------------------------

 -------------------
 Title Card Required
 -------------------
 Symbolic Z-matrix:
 Charge =  0 Multiplicity = 1

 SCF Done:  E(RB3LYP) =  -1075.59679414     a.u. after    8 cycles
 SCF Done:  E(RB3LYP) =  -1075.60045277     a.u. after   15 cycles
 SCF Done:  E(RB3LYP) =  -1075.61347983     a.u. after   17 cycles
 SCF Done:  E(RB3LYP) =  -1075.61378515     a.u. after   17 cycles
 SCF Done:  E(RB3LYP) =  -1075.61570408     a.u. after   17 cycles
 SCF Done:  E(RB3LYP) =  -1075.61628115     a.u. after   15 cycles
 SCF Done:  E(RB3LYP) =  -1075.61642629     a.u. after   15 cycles
 SCF Done:  E(RB3LYP) =  -1075.61654302     a.u. after    9 cycles
 SCF Done:  E(RB3LYP) =  -1075.61651948     a.u. after   11 cycles
 SCF Done:  E(RB3LYP) =  -1075.61655275     a.u. after    9 cycles
 SCF Done:  E(RB3LYP) =  -1075.61655263     a.u. after    4 cycles
 SCF Done:  E(RB3LYP) =  -1075.61655307     a.u. after    3 cycles
 SCF Done:  E(RB3LYP) =  -1075.61655314     a.u. after    2 cycles
 Optimization completed.
    -- Stationary point found.
 Normal termination of Gaussian 16 at Sat Aug 22 21:23:41 2020.

 ----------------------------------------------------------------------
 # freq B3LYP/6-31G* scf=qc volume NMR pop=NPA density=current Geom=All
 Check Guess=Read
 ----------------------------------------------------------------------

 Structure from the checkpoint file:  "phosphine_10_conf182.chk"
 -------------------
 Title Card Required
 -------------------
 Charge =  0 Multiplicity = 1

 SCF Done:  E(RB3LYP) =  -1075.61655314     a.u. after    1 cycles

      1  C    Isotropic =   167.7457   Anisotropy =    35.1332

      2  C    Isotropic =    57.9706   Anisotropy =   180.9633

      3  C    Isotropic =    67.5468   Anisotropy =   146.7022

      4  C    Isotropic =    62.1247   Anisotropy =   171.0459

      5  C    Isotropic =    59.3362   Anisotropy =   175.8011

      6  C    Isotropic =    60.6884   Anisotropy =   160.9523

      7  C    Isotropic =    67.6910   Anisotropy =   148.9634

      8  P    Isotropic =   362.7050   Anisotropy =    38.8345

      9  C    Isotropic =    55.6495   Anisotropy =   180.0634

     10  C    Isotropic =    62.6933   Anisotropy =   173.7817

     11  C    Isotropic =    68.7484   Anisotropy =   163.7352

     12  C    Isotropic =    68.3369   Anisotropy =   167.0555

     13  C    Isotropic =    68.7797   Anisotropy =   163.9922

     14  C    Isotropic =    61.1348   Anisotropy =   164.0959

     15  C    Isotropic =    56.0137   Anisotropy =   179.6694

     16  C    Isotropic =    61.1443   Anisotropy =   164.2514

     17  C    Isotropic =    68.7874   Anisotropy =   163.9366

     18  C    Isotropic =    68.2870   Anisotropy =   166.9928

     19  C    Isotropic =    68.7453   Anisotropy =   163.7074

     20  C    Isotropic =    62.7793   Anisotropy =   174.1695

     21  H    Isotropic =    30.1939   Anisotropy =     7.2072

     22  H    Isotropic =    30.0274   Anisotropy =     7.6707

     23  H    Isotropic =    29.7522   Anisotropy =     8.6536

     24  H    Isotropic =    25.2206   Anisotropy =     7.8204

     25  H    Isotropic =    25.4520   Anisotropy =    12.2705

     26  H    Isotropic =    24.6765   Anisotropy =     9.0744

     27  H    Isotropic =    25.0761   Anisotropy =     6.4389

     28  H    Isotropic =    25.4315   Anisotropy =    12.2135

     29  H    Isotropic =    25.0651   Anisotropy =     6.0855

     30  H    Isotropic =    25.0373   Anisotropy =     3.6113

     31  H    Isotropic =    24.9409   Anisotropy =     4.5908

     32  H    Isotropic =    24.6284   Anisotropy =     9.2979

     33  H    Isotropic =    24.6321   Anisotropy =     9.3143

     34  H    Isotropic =    24.9398   Anisotropy =     4.5744

     35  H    Isotropic =    25.0339   Anisotropy =     3.6536

     36  H    Isotropic =    25.0566   Anisotropy =     6.1749

     37  H    Isotropic =    25.4024   Anisotropy =    12.1811

  Exact polarizability: 251.233  -0.907 231.629   1.194  -1.121 174.231
 Approx polarizability: 354.251  -0.827 342.630   1.268  -1.205 322.775

                      1                      2                      3
                      A                      A                      A
 Frequencies --     22.5134                23.4238                35.2607
 Red. masses --      3.6817                 2.9129                 1.3383
 Frc consts  --      0.0011                 0.0009                 0.0010
 IR Inten    --      0.3082                 0.2550                 0.1506

                      4                      5                      6
                      A                      A                      A
 Frequencies --     41.6024                43.0845                52.1148
 Red. masses --      2.5231                 4.0494                 5.1155
 Frc consts  --      0.0026                 0.0044                 0.0082
 IR Inten    --      0.0754                 0.2227                 0.0731

                      7                      8                      9
                      A                      A                      A
 Frequencies --     64.0617               138.2657               178.0794
 Red. masses --      4.9808                 4.2655                 4.5056
 Frc consts  --      0.0120                 0.0480                 0.0842
 IR Inten    --      0.3254                 0.6276                 0.4472

                     10                     11                     12
                      A                      A                      A
 Frequencies --    199.4153               230.3905               237.3476
 Red. masses --      4.6408                 5.1877                 4.4821
 Frc consts  --      0.1087                 0.1622                 0.1488
 IR Inten    --      1.0553                 0.4429                 0.4739

                     13                     14                     15
                      A                      A                      A
 Frequencies --    255.6547               309.0070               355.5771
 Red. masses --      4.9014                 4.5873                 2.9361
 Frc consts  --      0.1887                 0.2581                 0.2187
 IR Inten    --      0.2008                 0.6968                 0.7241

                     16                     17                     18
                      A                      A                      A
 Frequencies --    405.9966               409.3225               413.2173
 Red. masses --      4.4237                 3.0353                 3.2181
 Frc consts  --      0.4296                 0.2996                 0.3237
 IR Inten    --      7.2798                 1.4495                 0.3485

                     19                     20                     21
                      A                      A                      A
 Frequencies --    417.7959               424.3616               439.2268
 Red. masses --      3.7705                 5.6452                 7.5073
 Frc consts  --      0.3878                 0.5990                 0.8533
 IR Inten    --      2.1904                 1.8075                 8.2687

                     22                     23                     24
                      A                      A                      A
 Frequencies --    506.6226               514.9167               524.3965
 Red. masses --      4.0449                 4.3386                 3.1876
 Frc consts  --      0.6117                 0.6778                 0.5165
 IR Inten    --     20.8129                18.4858                21.7563

                     25                     26                     27
                      A                      A                      A
 Frequencies --    621.6362               632.9162               634.2984
 Red. masses --      5.6279                 6.4278                 6.3805
 Frc consts  --      1.2814                 1.5171                 1.5125
 IR Inten    --      9.5569                 0.1570                 1.7391

                     28                     29                     30
                      A                      A                      A
 Frequencies --    654.1314               697.2356               705.1436
 Red. masses --      6.9624                 6.6146                 5.9160
 Frc consts  --      1.7553                 1.8946                 1.7331
 IR Inten    --      0.0816                 1.1089                 1.7721

                     31                     32                     33
                      A                      A                      A
 Frequencies --    711.8688               712.9206               727.7474
 Red. masses --      2.1516                 2.1325                 3.8501
 Frc consts  --      0.6424                 0.6386                 1.2014
 IR Inten    --     24.8059                20.8066                 3.2393

                     34                     35                     36
                      A                      A                      A
 Frequencies --    761.8224               762.4363               813.4676
 Red. masses --      1.6351                 1.6389                 4.2166
 Frc consts  --      0.5591                 0.5613                 1.6439
 IR Inten    --     21.7493                24.5977                 1.7272

                     37                     38                     39
                      A                      A                      A
 Frequencies --    827.2708               863.0712               866.1305
 Red. masses --      1.4297                 1.2484                 1.2477
 Frc consts  --      0.5765                 0.5479                 0.5515
 IR Inten    --     18.9361                 0.2427                 0.2381

                     40                     41                     42
                      A                      A                      A
 Frequencies --    868.1427               932.5015               933.3710
 Red. masses --      1.2466                 1.3446                 1.3416
 Frc consts  --      0.5536                 0.6889                 0.6886
 IR Inten    --      0.1238                 1.2612                 0.5144

                     43                     44                     45
                      A                      A                      A
 Frequencies --    971.3824               973.8446               975.6967
 Red. masses --      1.2949                 1.3237                 1.3605
 Frc consts  --      0.7199                 0.7397                 0.7631
 IR Inten    --      0.3301                 0.3035                 0.0237

                     46                     47                     48
                      A                      A                      A
 Frequencies --    977.4359               999.9344              1000.4475
 Red. masses --      1.3440                 1.2532                 1.2522
 Frc consts  --      0.7565                 0.7382                 0.7384
 IR Inten    --      0.2040                 0.0926                 0.0273

                     49                     50                     51
                      A                      A                      A
 Frequencies --   1015.3367              1015.5698              1018.8987
 Red. masses --      6.2752                 6.2864                 1.4231
 Frc consts  --      3.8115                 3.8201                 0.8704
 IR Inten    --      4.2451                 1.6691                 0.3445

                     52                     53                     54
                      A                      A                      A
 Frequencies --   1037.3388              1052.7482              1052.9147
 Red. masses --      3.6998                 3.3152                 3.2749
 Frc consts  --      2.3457                 2.1647                 2.1391
 IR Inten    --      3.5223                 2.1790                 0.8252

                     55                     56                     57
                      A                      A                      A
 Frequencies --   1074.9829              1108.0321              1108.8710
 Red. masses --      1.5342                 1.8782                 1.9197
 Frc consts  --      1.0446                 1.3586                 1.3907
 IR Inten    --     15.9420                 3.8305                 5.5235

                     58                     59                     60
                      A                      A                      A
 Frequencies --   1110.1957              1110.6978              1116.0824
 Red. masses --      2.5269                 2.2292                 2.8593
 Frc consts  --      1.8350                 1.6203                 2.0985
 IR Inten    --     11.3043                 9.3355                 1.1590

                     61                     62                     63
                      A                      A                      A
 Frequencies --   1150.4882              1193.5047              1193.7793
 Red. masses --      1.3572                 1.1021                 1.0999
 Frc consts  --      1.0584                 0.9249                 0.9235
 IR Inten    --      1.7451                 0.0485                 0.1304

                     64                     65                     66
                      A                      A                      A
 Frequencies --   1219.3135              1220.4039              1226.1149
 Red. masses --      1.1477                 1.1477                 1.1413
 Frc consts  --      1.0053                 1.0071                 1.0109
 IR Inten    --      5.9180                 3.9998                 7.5464

                     67                     68                     69
                      A                      A                      A
 Frequencies --   1241.7949              1324.4703              1327.9708
 Red. masses --      2.9473                 3.8992                 3.9279
 Frc consts  --      2.6778                 4.0300                 4.0812
 IR Inten    --      1.8786                 2.9417                 2.8135

                     70                     71                     72
                      A                      A                      A
 Frequencies --   1328.8350              1352.7282              1365.2477
 Red. masses --      3.5050                 1.5069                 1.6558
 Frc consts  --      3.6465                 1.6246                 1.8184
 IR Inten    --      2.5965                 0.4306                 0.5107

                     73                     74                     75
                      A                      A                      A
 Frequencies --   1365.7100              1441.9841              1442.4906
 Red. masses --      1.6395                 2.3263                 1.2882
 Frc consts  --      1.8017                 2.8499                 1.5793
 IR Inten    --      1.6543                 5.4570                 0.6751

                     76                     77                     78
                      A                      A                      A
 Frequencies --   1480.5513              1480.9854              1517.5445
 Red. masses --      2.1126                 2.1167                 1.0535
 Frc consts  --      2.7285                 2.7353                 1.4294
 IR Inten    --     12.8959                 6.9605                 5.8346

                     79                     80                     81
                      A                      A                      A
 Frequencies --   1519.8230              1531.3051              1531.6315
 Red. masses --      1.0947                 2.0065                 1.9978
 Frc consts  --      1.4898                 2.7721                 2.7613
 IR Inten    --      8.5558                 5.0698                10.4797

                     82                     83                     84
                      A                      A                      A
 Frequencies --   1547.1775              1614.0613              1630.2123
 Red. masses --      2.2407                 5.1522                 5.1026
 Frc consts  --      3.1602                 7.9083                 7.9897
 IR Inten    --     13.5432                 0.2753                 0.2797

                     85                     86                     87
                      A                      A                      A
 Frequencies --   1630.4674              1646.1839              1647.3506
 Red. masses --      5.1152                 5.2707                 5.2780
 Frc consts  --      8.0119                 8.4155                 8.4391
 IR Inten    --      0.1387                 3.8403                 1.4345

                     88                     89                     90
                      A                      A                      A
 Frequencies --   1659.4056              3040.3571              3097.1237
 Red. masses --      5.5389                 1.0406                 1.0955
 Frc consts  --      8.9863                 5.6674                 6.1915
 IR Inten    --      5.8370                37.8201                20.2081

                     91                     92                     93
                      A                      A                      A
 Frequencies --   3124.1984              3171.1819              3173.9380
 Red. masses --      1.1027                 1.0868                 1.0886
 Frc consts  --      6.3414                 6.4392                 6.4609
 IR Inten    --     15.7298                11.7032                18.8250

                     94                     95                     96
                      A                      A                      A
 Frequencies --   3175.5879              3175.6453              3182.1358
 Red. masses --      1.0853                 1.0853                 1.0875
 Frc consts  --      6.4486                 6.4486                 6.4881
 IR Inten    --      2.2038                 2.2331                 0.6978

                     97                     98                     99
                      A                      A                      A
 Frequencies --   3182.2280              3188.5882              3192.4145
 Red. masses --      1.0875                 1.0941                 1.0917
 Frc consts  --      6.4887                 6.5539                 6.5550
 IR Inten    --      0.4777                23.1186                10.7980

                    100                    101                    102
                      A                      A                      A
 Frequencies --   3192.4968              3203.6200              3203.8595
 Red. masses --      1.0917                 1.0942                 1.0942
 Frc consts  --      6.5558                 6.6166                 6.6175
 IR Inten    --     36.0235                42.1130                17.2769

                    103                    104                    105
                      A                      A                      A
 Frequencies --   3205.5083              3209.8595              3210.4874
 Red. masses --      1.0921                 1.0955                 1.0955
 Frc consts  --      6.6113                 6.6502                 6.6525
 IR Inten    --      6.5000                19.2093                17.9985

 - Thermochemistry -
 -------------------
 Temperature   298.150 Kelvin.  Pressure   1.00000 Atm.
 Atom     1 has atomic number  6 and mass  12.00000

 Molecular mass:   276.10679 amu.
 Principal axes and moments of inertia in atomic units:
                           1         2         3
     Eigenvalues --  5217.152546874.51412**********
           X            1.00000   0.00020  -0.00284
           Y           -0.00020   1.00000  -0.00013
           Z            0.00284   0.00013   1.00000
 This molecule is an asymmetric top.
 Rotational symmetry number  1.
 Warning -- assumption of classical behavior for rotation
           may cause significant error
 Rotational temperatures (Kelvin)      0.01660     0.01260     0.00839
 Rotational constants (GHZ):           0.34592     0.26253     0.17473
 Zero-point vibrational energy     792220.6 (Joules/Mol)
                                  189.34527 (Kcal/Mol)
 Warning -- explicit consideration of  24 degrees of freedom as
           vibrations may cause significant error
 Vibrational temperatures:     32.39    33.70    50.73    59.86    61.99
          (Kelvin)             74.98    92.17   198.93   256.22   286.91
                              331.48   341.49   367.83   444.59   511.60
                              584.14   588.92   594.53   601.12   610.56
                              631.95   728.92   740.85   754.49   894.40
                              910.63   912.61   941.15  1003.17  1014.54
                             1024.22  1025.73  1047.07  1096.09  1096.98
                             1170.40  1190.26  1241.77  1246.17  1249.06
                             1341.66  1342.91  1397.60  1401.15  1403.81
                             1406.31  1438.68  1439.42  1460.84  1461.18
                             1465.97  1492.50  1514.67  1514.91  1546.66
                             1594.21  1595.42  1597.32  1598.05  1605.79
                             1655.30  1717.19  1717.58  1754.32  1755.89
                             1764.11  1786.67  1905.62  1910.65  1911.90
                             1946.27  1964.29  1964.95  2074.69  2075.42
                             2130.18  2130.81  2183.41  2186.69  2203.21
                             2203.68  2226.04  2322.27  2345.51  2345.88
                             2368.49  2370.17  2387.51  4374.40  4456.07
                             4495.02  4562.62  4566.59  4568.96  4569.05
                             4578.38  4578.52  4587.67  4593.17  4593.29
                             4609.29  4609.64  4612.01  4618.27  4619.18

 Zero-point correction=                           0.301741 (Hartree/Particle)
 Thermal correction to Energy=                    0.319563
 Thermal correction to Enthalpy=                  0.320507
 Thermal correction to Gibbs Free Energy=         0.252219
 Sum of electronic and zero-point Energies=          -1075.314812
 Sum of electronic and thermal Energies=             -1075.296990
 Sum of electronic and thermal Enthalpies=           -1075.296046
 Sum of electronic and thermal Free Energies=        -1075.364335

                     E (Thermal)             CV                S
                      KCal/Mol        Cal/Mol-Kelvin    Cal/Mol-Kelvin
 Total                  200.529             68.558            143.725
 Electronic               0.000              0.000              0.000
 Translational            0.889              2.981             42.745
 Rotational               0.889              2.981             34.270
 Vibrational            198.751             62.597             66.710
 Vibration     1          0.593              1.985              6.399
 Vibration     2          0.593              1.985              6.320
 Vibration     3          0.594              1.982              5.509
 Vibration     4          0.594              1.981              5.181
 Vibration     5          0.595              1.980              5.112
 Vibration     6          0.596              1.977              4.735
 Vibration     7          0.597              1.971              4.328
 Vibration     8          0.614              1.915              2.828
 Vibration     9          0.629              1.869              2.348
 Vibration    10          0.638              1.841              2.138
 Vibration    11          0.652              1.795              1.876
 Vibration    12          0.656              1.784              1.823
 Vibration    13          0.666              1.753              1.691
 Vibration    14          0.698              1.657              1.368
 Vibration    15          0.731              1.564              1.141
 Vibration    16          0.771              1.457              0.941
 Vibration    17          0.774              1.450              0.929
 Vibration    18          0.777              1.442              0.915
 Vibration    19          0.781              1.432              0.899
 Vibration    20          0.786              1.417              0.877
 Vibration    21          0.799              1.385              0.829
 Vibration    22          0.862              1.235              0.642
 Vibration    23          0.870              1.217              0.622
 Vibration    24          0.879              1.196              0.600

 Optimization completed.
    -- Stationary point found.
 Normal termination of Gaussian 16 at Sat Aug 22 21:37:12 2020.
 Gaussian 16:  ES64L-G16RevA.03 25-Dec-2016

 ----------------------------------------------------------------------
 # TD(NStates=10, Root=1) B3LYP/6-31G* scf=qc volume pop=NPA density=cu
 rrent Geom=AllCheck Guess=Read
 ----------------------------------------------------------------------

 Structure from the checkpoint file:  "phosphine_10_conf183.chk"
 -------------------
 Title Card Required
 -------------------
 Charge =  0 Multiplicity = 1

                         Standard orientation:
 ---------------------------------------------------------------------
 Center     Atomic      Atomic             Coordinates (Angstroms)
 Number     Number       Type             X           Y           Z
 ---------------------------------------------------------------------
      1          6           0       -5.452620   -0.035759    0.752206
      2          6           0       -4.009754   -0.033045    0.304788
      3          6           0       -3.033959    0.680158    1.012100
      4          6           0       -1.705494    0.708763    0.585905
      5          6           0       -1.308201    0.021026   -0.570079
      6          6           0       -2.288443   -0.686337   -1.285583
      7          6           0       -3.611237   -0.720692   -0.849593
      8         15           0        0.413713    0.000992   -1.251168
      9          6           0        1.203867    1.438626   -0.386304
     10          6           0        1.912111    1.351196    0.821895
     11          6           0        2.495512    2.486817    1.388374
     12          6           0        2.376793    3.727177    0.759687
     13          6           0        1.676857    3.827291   -0.444663
     14          6           0        1.104382    2.691075   -1.015799
     15          6           0        1.178561   -1.454006   -0.392837
     16          6           0        2.377674   -1.950834   -0.931547
     17          6           0        3.018207   -3.050219   -0.360534
     18          6           0        2.459229   -3.685342    0.750566
     19          6           0        1.261074   -3.211255    1.286841
     20          6           0        0.626029   -2.103007    0.721745
     21          1           0       -5.539182    0.147451    1.828380
     22          1           0       -5.940082   -0.991380    0.530210
     23          1           0       -6.028640    0.747516    0.241224
     24          1           0       -3.316486    1.221364    1.912913
     25          1           0       -0.974712    1.272222    1.158548
     26          1           0       -2.011940   -1.215476   -2.194889
     27          1           0       -4.348391   -1.282698   -1.419400
     28          1           0        2.012214    0.391981    1.320858
     29          1           0        3.042882    2.400585    2.323768
     30          1           0        2.832363    4.609483    1.201633
     31          1           0        1.585910    4.788048   -0.944926
     32          1           0        0.577476    2.773815   -1.963786
     33          1           0        2.809111   -1.473785   -1.808754
     34          1           0        3.947165   -3.417403   -0.789244
     35          1           0        2.951290   -4.548496    1.191213
     36          1           0        0.817761   -3.703749    2.148786
     37          1           0       -0.305968   -1.744161    1.147983
 ---------------------------------------------------------------------

 SCF Done:  E(RB3LYP) =  -1075.61655314     a.u. after    1 cycles

 Excitation energies and oscillator strengths:

 Excited State   1:      Singlet-A      4.4885 eV  276.23 nm  f=0.1266  <S**2>=0.000
      73 -> 74         0.68918
      73 -> 75        -0.10723
 This state for optimization and/or second-order correction.
 Total Energy, E(TD-HF/TD-DFT) =  -1075.45160303
 Copying the excited state density for this state as the 1-particle RhoCI density.

 Excited State   2:      Singlet-A      4.5023 eV  275.38 nm  f=0.1585  <S**2>=0.000
      73 -> 74         0.10670
      73 -> 75         0.68788

 Excited State   3:      Singlet-A      4.7316 eV  262.03 nm  f=0.0033  <S**2>=0.000
      71 -> 75         0.11812
      73 -> 76         0.67532

 Excited State   4:      Singlet-A      5.0193 eV  247.01 nm  f=0.0002  <S**2>=0.000
      69 -> 75         0.15978
      70 -> 74         0.10401
      71 -> 75         0.15585
      73 -> 77        -0.19920
      73 -> 78         0.59059
      73 -> 79        -0.10247

 Excited State   5:      Singlet-A      5.0387 eV  246.07 nm  f=0.0003  <S**2>=0.000
      69 -> 74         0.16394
      70 -> 75         0.11175
      71 -> 74        -0.11968
      73 -> 78         0.13551
      73 -> 79         0.61908

 Excited State   6:      Singlet-A      5.1378 eV  241.32 nm  f=0.0090  <S**2>=0.000
      72 -> 75         0.11552
      73 -> 77         0.64094
      73 -> 78         0.18283
      73 -> 79        -0.11427

 Excited State   7:      Singlet-A      5.3912 eV  229.97 nm  f=0.0106  <S**2>=0.000
      67 -> 76        -0.13804
      68 -> 79         0.12456
      70 -> 78         0.11381
      71 -> 74         0.11525
      71 -> 75         0.37890
      72 -> 74         0.45176
      72 -> 78         0.16118
      73 -> 76        -0.14850

 Excited State   8:      Singlet-A      5.4727 eV  226.55 nm  f=0.0008  <S**2>=0.000
      67 -> 78        -0.11771
      68 -> 75         0.11558
      68 -> 79        -0.11328
      69 -> 75         0.21810
      70 -> 74         0.20063
      70 -> 76         0.17978
      71 -> 75         0.18596
      72 -> 74        -0.24857
      72 -> 76         0.30982
      72 -> 78         0.12516
      73 -> 78        -0.27164

 Excited State   9:      Singlet-A      5.5079 eV  225.10 nm  f=0.0004  <S**2>=0.000
      67 -> 79        -0.16017
      68 -> 74        -0.11757
      68 -> 76         0.28849
      68 -> 78        -0.10177
      69 -> 74         0.22272
      70 -> 75         0.22989
      71 -> 74        -0.26168
      71 -> 76        -0.15719
      72 -> 75        -0.19225
      72 -> 79        -0.10261
      73 -> 79        -0.27173

 Excited State  10:      Singlet-A      5.5959 eV  221.56 nm  f=0.0289  <S**2>=0.000
      67 -> 76         0.11842
      68 -> 79        -0.12520
      69 -> 75         0.12541
      70 -> 74         0.39165
      70 -> 75        -0.13524
      71 -> 74        -0.18638
      71 -> 75        -0.19544
      72 -> 74         0.37718
      72 -> 78        -0.12980

 The electronic state is 1-A.
 Alpha  occ. eigenvalues --  -77.07948 -10.19773 -10.19316 -10.19302 -10.19070
 Alpha  occ. eigenvalues --  -10.19034 -10.19026 -10.18996 -10.18989 -10.18917
 Alpha  occ. eigenvalues --  -10.18913 -10.18905 -10.18897 -10.18892 -10.18833
 Alpha  occ. eigenvalues --  -10.18833 -10.18776 -10.18561 -10.18554 -10.18476
 Alpha  occ. eigenvalues --   -6.54674  -4.70935  -4.70932  -4.70433  -0.85538
 Alpha  occ. eigenvalues --   -0.84932  -0.84723  -0.77633  -0.75297  -0.74227
 Alpha  occ. eigenvalues --   -0.74180  -0.74073  -0.73692  -0.68847  -0.63430
 Alpha  occ. eigenvalues --   -0.60390  -0.60194  -0.60053  -0.59113  -0.58030
 Alpha  occ. eigenvalues --   -0.55276  -0.51321  -0.50558  -0.47949  -0.45993
 Alpha  occ. eigenvalues --   -0.45196  -0.45021  -0.44439  -0.44216  -0.43860
 Alpha  occ. eigenvalues --   -0.41967  -0.41778  -0.41721  -0.41518  -0.40311
 Alpha  occ. eigenvalues --   -0.39426  -0.38517  -0.36528  -0.36177  -0.35829
 Alpha  occ. eigenvalues --   -0.35178  -0.34114  -0.34084  -0.33603  -0.31728
 Alpha  occ. eigenvalues --   -0.31688  -0.26506  -0.25314  -0.25096  -0.24904
 Alpha  occ. eigenvalues --   -0.24539  -0.24338  -0.20884
 Alpha virt. eigenvalues --   -0.01731  -0.01697  -0.00694   0.00328   0.00536
 Alpha virt. eigenvalues --    0.00563   0.07021   0.07062   0.09619   0.11028
 Alpha virt. eigenvalues --    0.11122   0.12821   0.13615   0.14027   0.14585

 Mulliken charges:
               1
     1  C   -0.532754
     2  C    0.180237
     3  C   -0.168016
     4  C   -0.146568
     5  C   -0.080283
     6  C   -0.155526
     7  C   -0.166026
     8  P    0.442282
     9  C   -0.123761
    10  C   -0.163712
    11  C   -0.122815
    12  C   -0.155755
    13  C   -0.118605
    14  C   -0.175315
    15  C   -0.116530
    16  C   -0.162061
    17  C   -0.125089
    18  C   -0.160803
    19  C   -0.116486
    20  C   -0.173522
    21  H    0.166679
    22  H    0.168309
    23  H    0.178232
    24  H    0.140254
    25  H    0.174446
    26  H    0.150141
    27  H    0.136256
    28  H    0.149451
    29  H    0.124367
    30  H    0.116882
    31  H    0.119336
    32  H    0.119204
    33  H    0.122471
    34  H    0.118364
    35  H    0.113120
    36  H    0.119976
    37  H    0.123621
 Sum of Mulliken charges =  -0.00000

 Dipole moment (field-independent basis, Debye):
    X=             -4.6661    Y=              0.4479    Z=             -0.2945  Tot=              4.6968
 Quadrupole moment (field-independent basis, Debye-Ang):
   XX=           -110.6253   YY=           -127.8381   ZZ=           -117.4780
   XY=              0.6697   XZ=             -1.1927   YZ=              0.6646

 Summary of Natural Population Analysis:

                                       Natural Population
                Natural  -----------------------------------------------
    Atom  No    Charge         Core      Valence    Rydberg      Total
 -----------------------------------------------------------------------
      C    1   -0.69525      1.99939     4.68837    0.00749     6.69525
      C    2    0.01013      1.99903     3.97686    0.01397     5.98987
      C    3   -0.22611      1.99902     4.21407    0.01302     6.22611
      C    4   -0.19962      1.99900     4.18431    0.01632     6.19962
      C    5   -0.37647      1.99890     4.35303    0.02453     6.37647
      C    6   -0.19494      1.99902     4.18057    0.01535     6.19494
      C    7   -0.23238      1.99902     4.22012    0.01324     6.23238
      P    8    1.22869      9.99753     3.72343    0.05035    13.77131
      C    9   -0.46403      1.99888     4.43880    0.02635     6.46403
      C   10   -0.23436      1.99899     4.21793    0.01744     6.23436
      C   11   -0.23652      1.99909     4.22283    0.01460     6.23652
      C   12   -0.27059      1.99909     4.25552    0.01598     6.27059
      C   13   -0.23685      1.99910     4.22315    0.01460     6.23685
      C   14   -0.23602      1.99902     4.22084    0.01617     6.23602
      C   15   -0.45572      1.99886     4.43227    0.02459     6.45572
      C   16   -0.21871      1.99901     4.20372    0.01598     6.21871
      C   17   -0.24818      1.99910     4.23402    0.01507     6.24818
      C   18   -0.28140      1.99909     4.26609    0.01621     6.28140
      C   19   -0.22612      1.99909     4.21264    0.01438     6.22612
      C   20   -0.26113      1.99899     4.24443    0.01771     6.26113
      H   21    0.24458      0.00000     0.75460    0.00083     0.75542
      H   22    0.24629      0.00000     0.75290    0.00081     0.75371
      H   23    0.25352      0.00000     0.74563    0.00085     0.74648
      H   24    0.24249      0.00000     0.75649    0.00102     0.75751
      H   25    0.26150      0.00000     0.73729    0.00121     0.73850
      H   26    0.24372      0.00000     0.75510    0.00118     0.75628
      H   27    0.24007      0.00000     0.75888    0.00105     0.75993
      H   28    0.24635      0.00000     0.75211    0.00154     0.75365
      H   29    0.23517      0.00000     0.76394    0.00090     0.76483
      H   30    0.22934      0.00000     0.76975    0.00091     0.77066
      H   31    0.23179      0.00000     0.76724    0.00096     0.76821
      H   32    0.22606      0.00000     0.77295    0.00099     0.77394
      H   33    0.22932      0.00000     0.76953    0.00115     0.77068
      H   34    0.23209      0.00000     0.76702    0.00089     0.76791
      H   35    0.22784      0.00000     0.77126    0.00089     0.77216
      H   36    0.23304      0.00000     0.76608    0.00089     0.76696
      H   37    0.23240      0.00000     0.76622    0.00138     0.76760
 =======================================================================
   * Total *   -0.00000     47.97921    97.63998    0.38081   146.00000

 Normal termination of Gaussian 16 at Sat Aug 22 21:50:17 2020.
