 Gaussian 16, Revision A.03,

 ---------------------------------
 # opt=CalcAll B3LYP/6-31G* scf=qc
 ---------------------------------

 -------------------
 Title Card Required
 -------------------
 Symbolic Z-matrix:
 Charge =  0 Multiplicity = 1

 SCF Done:  E(RB3LYP) =  -814.856243674     a.u. after    6 cycles
 SCF Done:  E(RB3LYP) =  -814.864510312     a.u. after   13 cycles
 SCF Done:  E(RB3LYP) =  -814.894531564     a.u. after   13 cycles
 SCF Done:  E(RB3LYP) =  -814.897384407     a.u. after   15 cycles
 SCF Done:  E(RB3LYP) =  -814.904214421     a.u. after   15 cycles
 SCF Done:  E(RB3LYP) =  -814.905721577     a.u. after   11 cycles
 SCF Done:  E(RB3LYP) =  -814.906258074     a.u. after   13 cycles
 SCF Done:  E(RB3LYP) =  -814.906267408     a.u. after   13 cycles
 SCF Done:  E(RB3LYP) =  -814.906418945     a.u. after   11 cycles
 SCF Done:  E(RB3LYP) =  -814.906432525     a.u. after    5 cycles
 SCF Done:  E(RB3LYP) =  -814.906432067     a.u. after    2 cycles
 SCF Done:  E(RB3LYP) =  -814.906431949     a.u. after    2 cycles
 Optimization completed.
    -- Stationary point found.
 Normal termination of Gaussian 16 at Sun Aug 23 10:56:46 2020.

 ----------------------------------------------------------------------
 # freq B3LYP/6-31G* scf=qc volume NMR pop=NPA density=current Geom=All
 Check Guess=Read
 ----------------------------------------------------------------------

 Structure from the checkpoint file:  "phosphine_2_conf92.chk"
 -------------------
 Title Card Required
 -------------------
 Charge =  0 Multiplicity = 1

 SCF Done:  E(RB3LYP) =  -814.906431949     a.u. after    1 cycles

      1  C    Isotropic =   173.5438   Anisotropy =    24.8056

      2  C    Isotropic =   164.6153   Anisotropy =    15.9239

      3  C    Isotropic =   160.5584   Anisotropy =    25.1449

      4  C    Isotropic =   161.9562   Anisotropy =    29.1055

      5  H    Isotropic =    30.4387   Anisotropy =     5.2298

      6  H    Isotropic =    30.8137   Anisotropy =     5.8276

      7  P    Isotropic =   397.5266   Anisotropy =    55.0882

      8  C    Isotropic =   165.0047   Anisotropy =    22.8800

      9  H    Isotropic =    31.1238   Anisotropy =     6.9982

     10  H    Isotropic =    30.3141   Anisotropy =     6.3108

     11  C    Isotropic =   166.6528   Anisotropy =    16.8242

     12  C    Isotropic =   164.2558   Anisotropy =    17.0855

     13  C    Isotropic =   175.9589   Anisotropy =    18.7466

     14  C    Isotropic =   160.9840   Anisotropy =    15.4449

     15  H    Isotropic =    31.0979   Anisotropy =     5.7948

     16  H    Isotropic =    30.3456   Anisotropy =     5.8360

     17  C    Isotropic =   163.4819   Anisotropy =    14.1908

     18  C    Isotropic =   161.9121   Anisotropy =    19.3224

     19  C    Isotropic =   173.9823   Anisotropy =    11.9867

     20  H    Isotropic =    31.0590   Anisotropy =    10.1927

     21  H    Isotropic =    31.3279   Anisotropy =     7.6443

     22  H    Isotropic =    31.2979   Anisotropy =     8.5385

     23  H    Isotropic =    30.1194   Anisotropy =     5.9880

     24  H    Isotropic =    30.8848   Anisotropy =     6.4426

     25  H    Isotropic =    30.5286   Anisotropy =     7.7845

     26  H    Isotropic =    30.6648   Anisotropy =     4.8230

     27  H    Isotropic =    30.6328   Anisotropy =     6.8718

     28  H    Isotropic =    30.7818   Anisotropy =     4.7891

     29  H    Isotropic =    30.8489   Anisotropy =     7.3452

     30  H    Isotropic =    30.4744   Anisotropy =     9.2391

     31  H    Isotropic =    30.9467   Anisotropy =     5.9126

     32  H    Isotropic =    31.1540   Anisotropy =    10.5372

     33  H    Isotropic =    31.5014   Anisotropy =     7.6989

     34  H    Isotropic =    30.9355   Anisotropy =     4.7971

     35  H    Isotropic =    30.4163   Anisotropy =     9.1026

     36  H    Isotropic =    30.5261   Anisotropy =     9.6623

     37  H    Isotropic =    30.7434   Anisotropy =     7.5620

     38  H    Isotropic =    31.4057   Anisotropy =     6.9837

     39  H    Isotropic =    31.2248   Anisotropy =    10.2936

     40  H    Isotropic =    30.6760   Anisotropy =     5.6602

  Exact polarizability: 171.507   1.481 157.211  -1.530   0.815 129.892
 Approx polarizability: 213.374   1.038 209.874  -3.250   6.213 199.583

                      1                      2                      3
                      A                      A                      A
 Frequencies --     18.6069                20.1663                27.4523
 Red. masses --      3.0710                 3.3439                 2.2689
 Frc consts  --      0.0006                 0.0008                 0.0010
 IR Inten    --      0.0056                 0.0223                 0.0207

                      4                      5                      6
                      A                      A                      A
 Frequencies --     54.4499                61.0572                72.6119
 Red. masses --      2.8734                 2.4878                 1.7672
 Frc consts  --      0.0050                 0.0055                 0.0055
 IR Inten    --      0.0481                 0.0381                 0.0477

                      7                      8                      9
                      A                      A                      A
 Frequencies --     85.4909               110.1447               123.7587
 Red. masses --      2.6469                 2.5173                 1.9375
 Frc consts  --      0.0114                 0.0180                 0.0175
 IR Inten    --      0.1743                 0.1066                 0.0022

                     10                     11                     12
                      A                      A                      A
 Frequencies --    142.9325               170.5551               191.8776
 Red. masses --      3.0005                 2.3474                 2.1860
 Frc consts  --      0.0361                 0.0402                 0.0474
 IR Inten    --      0.2585                 0.0931                 0.0664

                     13                     14                     15
                      A                      A                      A
 Frequencies --    209.6055               238.1790               246.6076
 Red. masses --      1.6358                 1.3130                 1.1148
 Frc consts  --      0.0423                 0.0439                 0.0399
 IR Inten    --      0.0359                 0.1923                 0.0097

                     16                     17                     18
                      A                      A                      A
 Frequencies --    261.8089               276.5549               285.9765
 Red. masses --      2.8091                 1.7086                 2.5073
 Frc consts  --      0.1134                 0.0770                 0.1208
 IR Inten    --      0.1691                 0.0177                 0.1035

                     19                     20                     21
                      A                      A                      A
 Frequencies --    297.0736               316.9388               369.2489
 Red. masses --      1.9048                 1.8845                 2.9820
 Frc consts  --      0.0990                 0.1115                 0.2396
 IR Inten    --      0.2757                 0.0347                 0.3688

                     22                     23                     24
                      A                      A                      A
 Frequencies --    430.3425               458.9610               484.9056
 Red. masses --      2.3691                 1.9362                 2.9029
 Frc consts  --      0.2585                 0.2403                 0.4022
 IR Inten    --      2.0747                 0.9744                 1.2726

                     25                     26                     27
                      A                      A                      A
 Frequencies --    617.7576               645.8009               698.8237
 Red. masses --      3.1821                 2.9269                 2.6283
 Frc consts  --      0.7155                 0.7192                 0.7562
 IR Inten    --      2.4494                 6.4088                 7.1277

                     28                     29                     30
                      A                      A                      A
 Frequencies --    721.7461               750.8603               775.7747
 Red. masses --      1.4611                 1.1962                 1.2622
 Frc consts  --      0.4484                 0.3974                 0.4476
 IR Inten    --     11.7097                 2.2610                 0.2892

                     31                     32                     33
                      A                      A                      A
 Frequencies --    782.2088               793.5507               809.6703
 Red. masses --      1.3881                 1.5879                 1.9044
 Frc consts  --      0.5004                 0.5892                 0.7356
 IR Inten    --      5.3516                 3.3508                 4.5126

                     34                     35                     36
                      A                      A                      A
 Frequencies --    871.5037               878.5687               893.4975
 Red. masses --      2.1177                 1.9552                 1.4201
 Frc consts  --      0.9477                 0.8892                 0.6680
 IR Inten    --      0.5400                 0.3210                 2.1804

                     37                     38                     39
                      A                      A                      A
 Frequencies --    900.8070               910.7913               936.6510
 Red. masses --      1.5315                 1.3949                 1.3975
 Frc consts  --      0.7322                 0.6817                 0.7224
 IR Inten    --      5.3551                 3.3740                 9.2933

                     40                     41                     42
                      A                      A                      A
 Frequencies --    982.3357               987.1069              1013.5315
 Red. masses --      2.1954                 2.0667                 2.7693
 Frc consts  --      1.2482                 1.1865                 1.6761
 IR Inten    --      1.1756                 7.8936                 2.0186

                     43                     44                     45
                      A                      A                      A
 Frequencies --   1060.9908              1068.8221              1076.4068
 Red. masses --      1.2846                 2.1130                 1.9936
 Frc consts  --      0.8520                 1.4222                 1.3609
 IR Inten    --      0.7746                 0.7022                 3.1630

                     46                     47                     48
                      A                      A                      A
 Frequencies --   1079.2894              1089.8139              1105.4585
 Red. masses --      1.5852                 1.7295                 1.4545
 Frc consts  --      1.0880                 1.2103                 1.0472
 IR Inten    --      1.4052                 6.9683                 1.0729

                     49                     50                     51
                      A                      A                      A
 Frequencies --   1109.6757              1117.0543              1122.5754
 Red. masses --      1.6644                 1.6911                 1.6878
 Frc consts  --      1.2075                 1.2433                 1.2531
 IR Inten    --      1.7166                 1.0860                 5.8500

                     52                     53                     54
                      A                      A                      A
 Frequencies --   1222.5833              1230.3965              1235.5564
 Red. masses --      1.4320                 1.4858                 1.3841
 Frc consts  --      1.2611                 1.3252                 1.2449
 IR Inten    --      0.4798                 3.3583                 3.1916

                     55                     56                     57
                      A                      A                      A
 Frequencies --   1246.4646              1263.0665              1266.9675
 Red. masses --      1.3140                 1.3538                 1.3525
 Frc consts  --      1.2028                 1.2725                 1.2791
 IR Inten    --      6.0654                 0.7286                 1.3966

                     58                     59                     60
                      A                      A                      A
 Frequencies --   1313.2767              1316.4595              1322.9598
 Red. masses --      1.2388                 1.2426                 1.2249
 Frc consts  --      1.2589                 1.2688                 1.2632
 IR Inten    --      1.7084                 2.6475                 0.1910

                     61                     62                     63
                      A                      A                      A
 Frequencies --   1334.1292              1340.4318              1344.4606
 Red. masses --      1.1705                 1.1445                 1.2793
 Frc consts  --      1.2275                 1.2115                 1.3624
 IR Inten    --      1.6964                 3.5766                 8.4688

                     64                     65                     66
                      A                      A                      A
 Frequencies --   1350.4131              1391.1241              1395.4200
 Red. masses --      1.1140                 1.3959                 1.3418
 Frc consts  --      1.1969                 1.5916                 1.5393
 IR Inten    --      0.5247                 0.8787                13.6211

                     67                     68                     69
                      A                      A                      A
 Frequencies --   1398.2830              1402.1535              1417.7496
 Red. masses --      1.3296                 1.4104                 1.5304
 Frc consts  --      1.5317                 1.6338                 1.8124
 IR Inten    --      6.3988                 5.6568                 2.7801

                     70                     71                     72
                      A                      A                      A
 Frequencies --   1440.7001              1442.7194              1447.5192
 Red. masses --      1.2419                 1.2593                 1.2556
 Frc consts  --      1.5187                 1.5443                 1.5500
 IR Inten    --      1.0788                 5.7533                 5.1661

                     73                     74                     75
                      A                      A                      A
 Frequencies --   1490.2445              1492.6386              1496.8906
 Red. masses --      1.0858                 1.0855                 1.0863
 Frc consts  --      1.4208                 1.4249                 1.4341
 IR Inten    --      1.6280                 2.2742                10.2469

                     76                     77                     78
                      A                      A                      A
 Frequencies --   1515.6768              1516.8812              1518.7083
 Red. masses --      1.0595                 1.0726                 1.0689
 Frc consts  --      1.4341                 1.4541                 1.4525
 IR Inten    --      2.5939                 1.7990                 0.2413

                     79                     80                     81
                      A                      A                      A
 Frequencies --   1519.8438              1520.1813              1526.9972
 Red. masses --      1.0721                 1.0746                 1.0684
 Frc consts  --      1.4592                 1.4632                 1.4678
 IR Inten    --      0.9157                 3.3946                 1.2592

                     82                     83                     84
                      A                      A                      A
 Frequencies --   1529.8517              1530.2169              1532.3132
 Red. masses --      1.0412                 1.0461                 1.0543
 Frc consts  --      1.4357                 1.4432                 1.4585
 IR Inten    --      6.0055                11.3090                 4.5064

                     85                     86                     87
                      A                      A                      A
 Frequencies --   1533.2075              1538.8535              1541.5994
 Red. masses --      1.0798                 1.0594                 1.0843
 Frc consts  --      1.4955                 1.4781                 1.5182
 IR Inten    --      9.5856                 6.5186                 3.5513

                     88                     89                     90
                      A                      A                      A
 Frequencies --   3014.9391              3019.4401              3020.7799
 Red. masses --      1.0595                 1.0610                 1.0651
 Frc consts  --      5.6742                 5.6990                 5.7266
 IR Inten    --     19.6755                26.3938                17.5956

                     91                     92                     93
                      A                      A                      A
 Frequencies --   3024.3453              3026.4835              3027.0671
 Red. masses --      1.0610                 1.0615                 1.0652
 Frc consts  --      5.7176                 5.7287                 5.7507
 IR Inten    --     31.9573                 5.9861                12.5793

                     94                     95                     96
                      A                      A                      A
 Frequencies --   3029.1533              3030.4695              3036.4093
 Red. masses --      1.0700                 1.0625                 1.0658
 Frc consts  --      5.7845                 5.7490                 5.7898
 IR Inten    --     19.1693                16.4881                17.6887

                     97                     98                     99
                      A                      A                      A
 Frequencies --   3039.4584              3043.3984              3045.9833
 Red. masses --      1.0369                 1.0386                 1.0424
 Frc consts  --      5.6438                 5.6678                 5.6985
 IR Inten    --     39.4057                23.9334                22.4896

                    100                    101                    102
                      A                      A                      A
 Frequencies --   3046.6214              3053.6986              3059.2743
 Red. masses --      1.0894                 1.0921                 1.0975
 Frc consts  --      5.9577                 6.0004                 6.0518
 IR Inten    --     39.8287                42.0388                16.1087

                    103                    104                    105
                      A                      A                      A
 Frequencies --   3059.7148              3065.0365              3072.0015
 Red. masses --      1.1002                 1.0981                 1.1006
 Frc consts  --      6.0686                 6.0780                 6.1199
 IR Inten    --     56.4993                12.6044                30.9585

                    106                    107                    108
                      A                      A                      A
 Frequencies --   3073.3731              3075.8006              3086.4035
 Red. masses --      1.1017                 1.1011                 1.1019
 Frc consts  --      6.1309                 6.1375                 6.1845
 IR Inten    --     26.7275                30.0005                53.8945

                    109                    110                    111
                      A                      A                      A
 Frequencies --   3104.7377              3106.4225              3107.1485
 Red. masses --      1.1028                 1.1022                 1.1013
 Frc consts  --      6.2634                 6.2666                 6.2644
 IR Inten    --     70.1361                47.9284                52.0241

                    112                    113                    114
                      A                      A                      A
 Frequencies --   3110.4147              3115.5997              3127.5457
 Red. masses --      1.1014                 1.1017                 1.1005
 Frc consts  --      6.2783                 6.3010                 6.3422
 IR Inten    --     40.3488                50.2813                42.4100

 - Thermochemistry -
 -------------------
 Temperature   298.150 Kelvin.  Pressure   1.00000 Atm.
 Atom     1 has atomic number  6 and mass  12.00000

 Molecular mass:   202.18504 amu.
 Principal axes and moments of inertia in atomic units:
                           1         2         3
     Eigenvalues --  3330.647784495.898986966.35857
           X            1.00000   0.00208  -0.00026
           Y           -0.00208   1.00000  -0.00168
           Z            0.00026   0.00168   1.00000
 This molecule is an asymmetric top.
 Rotational symmetry number  1.
 Warning -- assumption of classical behavior for rotation
           may cause significant error
 Rotational temperatures (Kelvin)      0.02601     0.01927     0.01243
 Rotational constants (GHZ):           0.54186     0.40142     0.25907
 Zero-point vibrational energy     976781.0 (Joules/Mol)
                                  233.45627 (Kcal/Mol)
 Warning -- explicit consideration of  25 degrees of freedom as
           vibrations may cause significant error
 Vibrational temperatures:     26.77    29.01    39.50    78.34    87.85
          (Kelvin)            104.47   123.00   158.47   178.06   205.65
                              245.39   276.07   301.58   342.69   354.81
                              376.68   397.90   411.46   427.42   456.00
                              531.27   619.17   660.34   697.67   888.82
                              929.16  1005.45  1038.43  1080.32  1116.17
                             1125.42  1141.74  1164.94  1253.90  1264.06
                             1285.54  1296.06  1310.43  1347.63  1413.36
                             1420.23  1458.25  1526.53  1537.80  1548.71
                             1552.86  1568.00  1590.51  1596.58  1607.19
                             1615.14  1759.02  1770.27  1777.69  1793.38
                             1817.27  1822.88  1889.51  1894.09  1903.44
                             1919.51  1928.58  1934.38  1942.94  2001.52
                             2007.70  2011.82  2017.39  2039.83  2072.85
                             2075.75  2082.66  2144.13  2147.57  2153.69
                             2180.72  2182.45  2185.08  2186.72  2187.20
                             2197.01  2201.12  2201.64  2204.66  2205.94
                             2214.07  2218.02  4337.82  4344.30  4346.23
                             4351.36  4354.43  4355.27  4358.28  4360.17
                             4368.72  4373.10  4378.77  4382.49  4383.41
                             4393.59  4401.61  4402.25  4409.90  4419.92
                             4421.90  4425.39  4440.65  4467.03  4469.45
                             4470.49  4475.19  4482.65  4499.84

 Zero-point correction=                           0.372036 (Hartree/Particle)
 Thermal correction to Energy=                    0.390693
 Thermal correction to Enthalpy=                  0.391637
 Thermal correction to Gibbs Free Energy=         0.322161
 Sum of electronic and zero-point Energies=           -814.534396
 Sum of electronic and thermal Energies=              -814.515739
 Sum of electronic and thermal Enthalpies=            -814.514795
 Sum of electronic and thermal Free Energies=         -814.584271

                     E (Thermal)             CV                S
                      KCal/Mol        Cal/Mol-Kelvin    Cal/Mol-Kelvin
 Total                  245.163             66.283            146.224
 Electronic               0.000              0.000              0.000
 Translational            0.889              2.981             41.817
 Rotational               0.889              2.981             33.011
 Vibrational            243.386             60.321             71.397
 Vibration     1          0.593              1.986              6.778
 Vibration     2          0.593              1.986              6.618
 Vibration     3          0.593              1.984              6.006
 Vibration     4          0.596              1.976              4.649
 Vibration     5          0.597              1.973              4.423
 Vibration     6          0.599              1.967              4.081
 Vibration     7          0.601              1.959              3.761
 Vibration     8          0.606              1.941              3.266
 Vibration     9          0.610              1.929              3.041
 Vibration    10          0.616              1.910              2.764
 Vibration    11          0.626              1.879              2.429
 Vibration    12          0.634              1.851              2.210
 Vibration    13          0.642              1.826              2.047
 Vibration    14          0.656              1.782              1.816
 Vibration    15          0.661              1.768              1.755
 Vibration    16          0.669              1.743              1.650
 Vibration    17          0.678              1.717              1.555
 Vibration    18          0.684              1.700              1.498
 Vibration    19          0.691              1.679              1.433
 Vibration    20          0.704              1.641              1.326
 Vibration    21          0.742              1.535              1.083
 Vibration    22          0.792              1.404              0.858
 Vibration    23          0.817              1.341              0.769
 Vibration    24          0.841              1.284              0.697
 Vibration    25          0.978              0.994              0.420

 Optimization completed.
    -- Stationary point found.
 Normal termination of Gaussian 16 at Sun Aug 23 11:03:51 2020.
 Gaussian 16:  ES64L-G16RevA.03 25-Dec-2016

 ----------------------------------------------------------------------
 # TD(NStates=10, Root=1) B3LYP/6-31G* scf=qc volume pop=NPA density=cu
 rrent Geom=AllCheck Guess=Read
 ----------------------------------------------------------------------

 Structure from the checkpoint file:  "phosphine_2_conf93.chk"
 -------------------
 Title Card Required
 -------------------
 Charge =  0 Multiplicity = 1

                         Standard orientation:
 ---------------------------------------------------------------------
 Center     Atomic      Atomic             Coordinates (Angstroms)
 Number     Number       Type             X           Y           Z
 ---------------------------------------------------------------------
      1          6           0        1.639574    4.324235   -0.474952
      2          6           0        0.600851    3.249914   -0.137555
      3          6           0        1.169686    2.125171    0.738787
      4          6           0        0.151183    1.038338    1.128867
      5          1           0        0.574425    0.391238    1.908268
      6          1           0       -0.733751    1.515887    1.571925
      7         15           0       -0.476341   -0.007258   -0.305184
      8          6           0        1.011696   -1.103405   -0.670002
      9          1           0        0.667505   -1.810041   -1.439200
     10          1           0        1.737792   -0.455369   -1.177207
     11          6           0        1.691832   -1.876763    0.470429
     12          6           0        2.842331   -2.789716    0.004665
     13          6           0        4.055700   -2.045416   -0.564802
     14          6           0       -1.571893   -1.196150    0.658973
     15          1           0       -1.664915   -2.112678    0.059700
     16          1           0       -1.061408   -1.485741    1.586250
     17          6           0       -2.982197   -0.654623    0.995969
     18          6           0       -4.076941   -0.955461   -0.043017
     19          6           0       -3.925219   -0.250369   -1.395148
     20          1           0        1.206288    5.118886   -1.092971
     21          1           0        2.486114    3.898145   -1.027821
     22          1           0        2.040662    4.790319    0.433901
     23          1           0        0.193380    2.825269   -1.063535
     24          1           0       -0.249669    3.712609    0.383642
     25          1           0        1.575701    2.567361    1.660540
     26          1           0        2.028819    1.665984    0.228094
     27          1           0        0.947923   -2.495547    0.987947
     28          1           0        2.081481   -1.173639    1.219290
     29          1           0        2.460555   -3.496510   -0.746040
     30          1           0        3.168425   -3.399891    0.858173
     31          1           0        3.803900   -1.482992   -1.470874
     32          1           0        4.858217   -2.744518   -0.826384
     33          1           0        4.460376   -1.333915    0.166232
     34          1           0       -2.943062    0.429634    1.175961
     35          1           0       -3.297983   -1.099651    1.949183
     36          1           0       -5.045466   -0.675991    0.394478
     37          1           0       -4.121286   -2.043176   -0.200656
     38          1           0       -3.892226    0.838785   -1.271255
     39          1           0       -4.770870   -0.487747   -2.051862
     40          1           0       -3.005424   -0.542372   -1.911309
 ---------------------------------------------------------------------

 SCF Done:  E(RB3LYP) =  -814.906431949     a.u. after    1 cycles

 Excitation energies and oscillator strengths:

 Excited State   1:      Singlet-A      6.4040 eV  193.60 nm  f=0.1032  <S**2>=0.000
      57 -> 58         0.69508
 This state for optimization and/or second-order correction.
 Total Energy, E(TD-HF/TD-DFT) =  -814.671087656
 Copying the excited state density for this state as the 1-particle RhoCI density.

 Excited State   2:      Singlet-A      6.6279 eV  187.06 nm  f=0.1234  <S**2>=0.000
      57 -> 59         0.69466

 Excited State   3:      Singlet-A      6.9657 eV  177.99 nm  f=0.0161  <S**2>=0.000
      57 -> 60         0.69959

 Excited State   4:      Singlet-A      7.5302 eV  164.65 nm  f=0.0078  <S**2>=0.000
      57 -> 61         0.68086
      57 -> 62         0.13393

 Excited State   5:      Singlet-A      7.7868 eV  159.22 nm  f=0.0273  <S**2>=0.000
      57 -> 62        -0.19490
      57 -> 63         0.65651
      57 -> 66         0.12616

 Excited State   6:      Singlet-A      7.8756 eV  157.43 nm  f=0.0434  <S**2>=0.000
      57 -> 61        -0.15061
      57 -> 62         0.60679
      57 -> 63         0.16483
      57 -> 64         0.24181

 Excited State   7:      Singlet-A      7.9172 eV  156.60 nm  f=0.0145  <S**2>=0.000
      57 -> 62        -0.23011
      57 -> 64         0.65265

 Excited State   8:      Singlet-A      8.2279 eV  150.69 nm  f=0.0018  <S**2>=0.000
      57 -> 65         0.65153
      57 -> 66         0.19487
      57 -> 67         0.11568

 Excited State   9:      Singlet-A      8.2889 eV  149.58 nm  f=0.0017  <S**2>=0.000
      55 -> 58         0.17043
      57 -> 63        -0.13253
      57 -> 65        -0.17828
      57 -> 66         0.63700

 Excited State  10:      Singlet-A      8.3436 eV  148.60 nm  f=0.0056  <S**2>=0.000
      55 -> 58         0.49683
      56 -> 58         0.17606
      56 -> 59        -0.44250

 The electronic state is 1-A.
 Alpha  occ. eigenvalues --  -77.06239 -10.18095 -10.18057 -10.18049 -10.18034
 Alpha  occ. eigenvalues --  -10.18002 -10.17993 -10.17928 -10.17578 -10.17351
 Alpha  occ. eigenvalues --  -10.17275 -10.16911 -10.16262  -6.52998  -4.69261
 Alpha  occ. eigenvalues --   -4.69243  -4.68744  -0.79886  -0.78758  -0.78532
 Alpha  occ. eigenvalues --   -0.73913  -0.71338  -0.71071  -0.65680  -0.63431
 Alpha  occ. eigenvalues --   -0.62357  -0.57851  -0.57031  -0.56403  -0.51433
 Alpha  occ. eigenvalues --   -0.46427  -0.45504  -0.45101  -0.44451  -0.43261
 Alpha  occ. eigenvalues --   -0.42903  -0.41957  -0.41033  -0.40672  -0.39232
 Alpha  occ. eigenvalues --   -0.38539  -0.38209  -0.37067  -0.36284  -0.35970
 Alpha  occ. eigenvalues --   -0.34957  -0.33927  -0.33068  -0.32785  -0.32630
 Alpha  occ. eigenvalues --   -0.32501  -0.32224  -0.31957  -0.31420  -0.29077
 Alpha  occ. eigenvalues --   -0.28709  -0.20879
 Alpha virt. eigenvalues --    0.05610   0.06277   0.07780   0.09768   0.10964
 Alpha virt. eigenvalues --    0.11080   0.11558   0.12164   0.12313   0.13552
 Alpha virt. eigenvalues --    0.14252   0.14753   0.15184   0.15590   0.16023

 Mulliken charges:
               1
     1  C   -0.435547
     2  C   -0.232891
     3  C   -0.223102
     4  C   -0.435030
     5  H    0.187791
     6  H    0.182629
     7  P    0.336054
     8  C   -0.381175
     9  H    0.129151
    10  H    0.134724
    11  C   -0.267529
    12  C   -0.242655
    13  C   -0.435669
    14  C   -0.432896
    15  H    0.150399
    16  H    0.161483
    17  C   -0.219704
    18  C   -0.241562
    19  C   -0.435304
    20  H    0.137070
    21  H    0.135686
    22  H    0.135977
    23  H    0.120257
    24  H    0.118923
    25  H    0.101888
    26  H    0.104350
    27  H    0.139168
    28  H    0.134948
    29  H    0.131601
    30  H    0.131353
    31  H    0.141226
    32  H    0.139792
    33  H    0.137372
    34  H    0.106284
    35  H    0.111604
    36  H    0.128594
    37  H    0.121932
    38  H    0.141433
    39  H    0.135641
    40  H    0.145736
 Sum of Mulliken charges =  -0.00000

 Dipole moment (field-independent basis, Debye):
    X=             -0.0656    Y=             -1.2923    Z=              1.0714  Tot=              1.6800
 Quadrupole moment (field-independent basis, Debye-Ang):
   XX=            -98.8867   YY=            -96.9786   ZZ=            -95.0394
   XY=             -1.5472   XZ=              1.2220   YZ=              0.9171

 Summary of Natural Population Analysis:

                                       Natural Population
                Natural  -----------------------------------------------
    Atom  No    Charge         Core      Valence    Rydberg      Total
 -----------------------------------------------------------------------
      C    1   -0.67356      1.99946     4.66622    0.00788     6.67356
      C    2   -0.45792      1.99935     4.44673    0.01184     6.45792
      C    3   -0.46654      1.99931     4.45188    0.01535     6.46654
      C    4   -0.74672      1.99929     4.73116    0.01627     6.74672
      H    5    0.27297      0.00000     0.72545    0.00158     0.72703
      H    6    0.26050      0.00000     0.73782    0.00168     0.73950
      P    7    1.02564      9.99766     3.86282    0.11388    13.97436
      C    8   -0.84378      1.99930     4.82358    0.02089     6.84378
      H    9    0.23479      0.00000     0.75949    0.00571     0.76521
      H   10    0.24010      0.00000     0.74555    0.01435     0.75990
      C   11   -0.45466      1.99930     4.44252    0.01284     6.45466
      C   12   -0.45007      1.99934     4.43936    0.01137     6.45007
      C   13   -0.68021      1.99946     4.67288    0.00788     6.68021
      C   14   -0.83581      1.99932     4.81188    0.02461     6.83581
      H   15    0.24364      0.00000     0.75372    0.00265     0.75636
      H   16    0.25698      0.00000     0.73885    0.00418     0.74302
      C   17   -0.46397      1.99932     4.45103    0.01361     6.46397
      C   18   -0.45453      1.99935     4.44442    0.01076     6.45453
      C   19   -0.67637      1.99945     4.66887    0.00805     6.67637
      H   20    0.22874      0.00000     0.76961    0.00165     0.77126
      H   21    0.21988      0.00000     0.77592    0.00420     0.78012
      H   22    0.22168      0.00000     0.77578    0.00254     0.77832
      H   23    0.21253      0.00000     0.77757    0.00990     0.78747
      H   24    0.21923      0.00000     0.77689    0.00388     0.78077
      H   25    0.21423      0.00000     0.77533    0.01044     0.78577
      H   26    0.20690      0.00000     0.77774    0.01536     0.79310
      H   27    0.23260      0.00000     0.76563    0.00177     0.76740
      H   28    0.22192      0.00000     0.77462    0.00346     0.77808
      H   29    0.22758      0.00000     0.76936    0.00306     0.77242
      H   30    0.23293      0.00000     0.76422    0.00285     0.76707
      H   31    0.22061      0.00000     0.77525    0.00415     0.77939
      H   32    0.23109      0.00000     0.76724    0.00168     0.76891
      H   33    0.22134      0.00000     0.77573    0.00293     0.77866
      H   34    0.20976      0.00000     0.78062    0.00962     0.79024
      H   35    0.22628      0.00000     0.76671    0.00701     0.77372
      H   36    0.23056      0.00000     0.76666    0.00277     0.76944
      H   37    0.22113      0.00000     0.77500    0.00388     0.77887
      H   38    0.22535      0.00000     0.77123    0.00342     0.77465
      H   39    0.22700      0.00000     0.77066    0.00234     0.77300
      H   40    0.21821      0.00000     0.78078    0.00101     0.78179
 =======================================================================
   * Total *    0.00000     33.98991    79.60681    0.40328   114.00000

 Normal termination of Gaussian 16 at Sun Aug 23 11:11:54 2020.
