 Gaussian 16, Revision A.03,

 ---------------------------------
 # opt=CalcAll B3LYP/6-31G* scf=qc
 ---------------------------------

 -------------------
 Title Card Required
 -------------------
 Symbolic Z-matrix:
 Charge =  0 Multiplicity = 1

 SCF Done:  E(RB3LYP) =  -2415.04144888     a.u. after    8 cycles
 SCF Done:  E(RB3LYP) =  -2415.05796732     a.u. after   17 cycles
 SCF Done:  E(RB3LYP) =  -2415.06308150     a.u. after   17 cycles
 SCF Done:  E(RB3LYP) =  -2415.07739626     a.u. after   17 cycles
 SCF Done:  E(RB3LYP) =  -2415.08217186     a.u. after   17 cycles
 SCF Done:  E(RB3LYP) =  -2415.08496224     a.u. after   17 cycles
 SCF Done:  E(RB3LYP) =  -2415.08564889     a.u. after   15 cycles
 SCF Done:  E(RB3LYP) =  -2415.08549553     a.u. after   11 cycles
 SCF Done:  E(RB3LYP) =  -2415.08617339     a.u. after   15 cycles
 SCF Done:  E(RB3LYP) =  -2415.08619656     a.u. after   11 cycles
 SCF Done:  E(RB3LYP) =  -2415.08623995     a.u. after    9 cycles
 SCF Done:  E(RB3LYP) =  -2415.08623631     a.u. after    2 cycles
 SCF Done:  E(RB3LYP) =  -2415.08623943     a.u. after    7 cycles
 SCF Done:  E(RB3LYP) =  -2415.08623859     a.u. after    5 cycles
 SCF Done:  E(RB3LYP) =  -2415.08624239     a.u. after    4 cycles
 SCF Done:  E(RB3LYP) =  -2415.08624708     a.u. after    8 cycles
 SCF Done:  E(RB3LYP) =  -2415.08624809     a.u. after    2 cycles
 Optimization completed.
    -- Stationary point found.
 Normal termination of Gaussian 16 at Sun Aug 23 04:39:45 2020.

 ----------------------------------------------------------------------
 # freq B3LYP/6-31G* scf=qc volume NMR pop=NPA density=current Geom=All
 Check Guess=Read
 ----------------------------------------------------------------------

 Structure from the checkpoint file:  "phosphine_11_conf282.chk"
 -------------------
 Title Card Required
 -------------------
 Charge =  0 Multiplicity = 1

 SCF Done:  E(RB3LYP) =  -2415.08624809     a.u. after    1 cycles

      1  C    Isotropic =    67.5378   Anisotropy =   140.1065

      2  C    Isotropic =    61.8846   Anisotropy =   168.6012

      3  C    Isotropic =    58.7297   Anisotropy =   177.4296

      4  C    Isotropic =    60.2196   Anisotropy =   160.2777

      5  C    Isotropic =    67.5473   Anisotropy =   140.5890

      6  C    Isotropic =    51.5945   Anisotropy =   109.1514

      7  Cl   Isotropic =   720.9545   Anisotropy =   452.9333

      8  P    Isotropic =   364.8655   Anisotropy =    37.8992

      9  C    Isotropic =    58.7393   Anisotropy =   177.4372

     10  C    Isotropic =    61.9189   Anisotropy =   168.6048

     11  C    Isotropic =    67.5391   Anisotropy =   140.1166

     12  C    Isotropic =    51.6026   Anisotropy =   109.1287

     13  C    Isotropic =    67.5489   Anisotropy =   140.5698

     14  C    Isotropic =    60.2482   Anisotropy =   160.3195

     15  Cl   Isotropic =   720.9200   Anisotropy =   453.0508

     16  C    Isotropic =    58.7671   Anisotropy =   177.4461

     17  C    Isotropic =    60.2107   Anisotropy =   160.2911

     18  C    Isotropic =    67.5488   Anisotropy =   140.5519

     19  C    Isotropic =    51.5968   Anisotropy =   109.1388

     20  C    Isotropic =    67.5385   Anisotropy =   140.1274

     21  C    Isotropic =    61.8775   Anisotropy =   168.6567

     22  Cl   Isotropic =   720.9171   Anisotropy =   452.9492

     23  H    Isotropic =    25.2096   Anisotropy =     8.1401

     24  H    Isotropic =    25.5827   Anisotropy =    12.1130

     25  H    Isotropic =    24.7782   Anisotropy =     8.9682

     26  H    Isotropic =    25.0908   Anisotropy =     6.6364

     27  H    Isotropic =    25.5842   Anisotropy =    12.1259

     28  H    Isotropic =    25.2088   Anisotropy =     8.1442

     29  H    Isotropic =    25.0938   Anisotropy =     6.6323

     30  H    Isotropic =    24.7788   Anisotropy =     8.9746

     31  H    Isotropic =    24.7761   Anisotropy =     8.9666

     32  H    Isotropic =    25.0941   Anisotropy =     6.6279

     33  H    Isotropic =    25.2068   Anisotropy =     8.1428

     34  H    Isotropic =    25.5772   Anisotropy =    12.1173

  Exact polarizability: 280.650  -0.067 280.537   0.036   0.054 185.122
 Approx polarizability: 393.508  -0.156 393.335   0.083   0.125 343.172

                      1                      2                      3
                      A                      A                      A
 Frequencies --     22.8994                23.5184                29.6814
 Red. masses --      4.8649                 5.1861                 8.3107
 Frc consts  --      0.0015                 0.0017                 0.0043
 IR Inten    --      0.2632                 0.2568                 0.1933

                      4                      5                      6
                      A                      A                      A
 Frequencies --     30.1403                38.3742                40.3134
 Red. masses --      7.4660                 7.3372                 4.8508
 Frc consts  --      0.0040                 0.0064                 0.0046
 IR Inten    --      0.2141                 0.1823                 0.0455

                      7                      8                      9
                      A                      A                      A
 Frequencies --    109.3709               117.6647               117.7319
 Red. masses --      8.8644                 8.8321                 8.8330
 Frc consts  --      0.0625                 0.0720                 0.0721
 IR Inten    --      0.0246                 0.3527                 0.3495

                     10                     11                     12
                      A                      A                      A
 Frequencies --    181.0471               187.3075               187.7187
 Red. masses --     10.0354                 8.7823                 8.7996
 Frc consts  --      0.1938                 0.1815                 0.1827
 IR Inten    --      0.3326                 0.5727                 0.5688

                     13                     14                     15
                      A                      A                      A
 Frequencies --    264.0752               293.7211               293.8234
 Red. masses --      8.9818                 8.4124                 8.4149
 Frc consts  --      0.3690                 0.4276                 0.4280
 IR Inten    --      0.2155                 0.9120                 0.9077

                     16                     17                     18
                      A                      A                      A
 Frequencies --    310.9152               328.7607               328.8240
 Red. masses --      6.0403                 5.9766                 5.9846
 Frc consts  --      0.3440                 0.3806                 0.3813
 IR Inten    --      0.0032                 1.8717                 1.8845

                     19                     20                     21
                      A                      A                      A
 Frequencies --    384.0070               384.1758               414.7865
 Red. masses --      8.0387                 8.0166                 3.0463
 Frc consts  --      0.6984                 0.6971                 0.3088
 IR Inten    --     20.9850                21.0069                 0.0534

                     22                     23                     24
                      A                      A                      A
 Frequencies --    414.8187               416.7971               426.8492
 Red. masses --      3.0464                 3.2119                 6.6081
 Frc consts  --      0.3089                 0.3287                 0.7094
 IR Inten    --      0.0462                 0.1629                 2.9412

                     25                     26                     27
                      A                      A                      A
 Frequencies --    499.5187               509.4880               509.5545
 Red. masses --      5.5258                 3.6462                 3.6534
 Frc consts  --      0.8124                 0.5576                 0.5589
 IR Inten    --      6.8271                19.8873                19.8078

                     28                     29                     30
                      A                      A                      A
 Frequencies --    531.6548               548.8343               548.9172
 Red. masses --      4.5688                 7.4335                 7.4218
 Frc consts  --      0.7609                 1.3193                 1.3176
 IR Inten    --      9.8730                 5.4534                 5.4661

                     31                     32                     33
                      A                      A                      A
 Frequencies --    644.3723               644.3950               645.3286
 Red. masses --      7.1599                 7.1603                 7.1686
 Frc consts  --      1.7516                 1.7518                 1.7589
 IR Inten    --      0.0372                 0.0365                 0.0954

                     34                     35                     36
                      A                      A                      A
 Frequencies --    718.2892               718.3750               718.7352
 Red. masses --      4.5903                 4.5957                 4.6080
 Frc consts  --      1.3954                 1.3973                 1.4025
 IR Inten    --      1.6852                 1.6787                 0.2871

                     37                     38                     39
                      A                      A                      A
 Frequencies --    746.0913               751.6181               751.6941
 Red. masses --      7.2605                 7.2733                 7.2735
 Frc consts  --      2.3812                 2.4209                 2.4214
 IR Inten    --     14.6386                54.3140                54.4251

                     40                     41                     42
                      A                      A                      A
 Frequencies --    833.7514               834.2145               834.3348
 Red. masses --      1.4164                 1.4318                 1.4314
 Frc consts  --      0.5801                 0.5871                 0.5871
 IR Inten    --     23.2970                32.9453                32.8585

                     43                     44                     45
                      A                      A                      A
 Frequencies --    845.9442               846.0547               849.0199
 Red. masses --      1.2466                 1.2465                 1.2500
 Frc consts  --      0.5256                 0.5257                 0.5309
 IR Inten    --      0.6363                 0.6328                 0.2996

                     46                     47                     48
                      A                      A                      A
 Frequencies --    969.6387               969.7508               970.0664
 Red. masses --      1.2761                 1.2767                 1.2877
 Frc consts  --      0.7069                 0.7074                 0.7140
 IR Inten    --      0.1507                 0.1401                 0.2167

                     49                     50                     51
                      A                      A                      A
 Frequencies --    973.4626               973.6238               976.7373
 Red. masses --      1.3451                 1.3440                 1.3219
 Frc consts  --      0.7510                 0.7506                 0.7430
 IR Inten    --      0.0125                 0.0102                 0.4172

                     52                     53                     54
                      A                      A                      A
 Frequencies --   1027.9691              1028.0148              1029.6300
 Red. masses --      4.7551                 4.7665                 4.6996
 Frc consts  --      2.9605                 2.9679                 2.9355
 IR Inten    --     62.7204                62.7286                 5.1224

                     55                     56                     57
                      A                      A                      A
 Frequencies --   1097.7107              1097.7860              1101.4790
 Red. masses --      7.8875                 7.9247                 8.0772
 Frc consts  --      5.5997                 5.6269                 5.7738
 IR Inten    --     80.7560                81.3736                13.6825

                     58                     59                     60
                      A                      A                      A
 Frequencies --   1118.1652              1118.3779              1121.1372
 Red. masses --      2.1240                 2.1207                 2.1012
 Frc consts  --      1.5647                 1.5628                 1.5561
 IR Inten    --     33.3043                32.7482                 6.4787

                     61                     62                     63
                      A                      A                      A
 Frequencies --   1139.3041              1139.5069              1139.5482
 Red. masses --      1.4011                 1.4018                 1.4021
 Frc consts  --      1.0715                 1.0725                 1.0728
 IR Inten    --      0.8243                 0.1746                 3.1532

                     64                     65                     66
                      A                      A                      A
 Frequencies --   1219.0410              1219.4947              1220.8130
 Red. masses --      1.1568                 1.1574                 1.1518
 Frc consts  --      1.0128                 1.0142                 1.0114
 IR Inten    --      4.7410                 4.8138                 0.9623

                     67                     68                     69
                      A                      A                      A
 Frequencies --   1318.3250              1322.2329              1322.4007
 Red. masses --      6.8819                 7.5135                 7.7834
 Frc consts  --      7.0470                 7.7394                 8.0194
 IR Inten    --      1.3246                 2.6566                 2.6626

                     70                     71                     72
                      A                      A                      A
 Frequencies --   1337.1501              1337.6037              1337.7359
 Red. masses --      1.3434                 1.3302                 1.3453
 Frc consts  --      1.4152                 1.4022                 1.4184
 IR Inten    --      0.5534                 0.4339                 1.3033

                     73                     74                     75
                      A                      A                      A
 Frequencies --   1429.5256              1429.9505              1430.1293
 Red. masses --      2.6373                 2.6428                 2.6400
 Frc consts  --      3.1753                 3.1839                 3.1814
 IR Inten    --     18.9915                 6.8023                 6.1434

                     76                     77                     78
                      A                      A                      A
 Frequencies --   1527.0809              1527.1617              1527.2290
 Red. masses --      2.0844                 2.0885                 2.0759
 Frc consts  --      2.8639                 2.8699                 2.8528
 IR Inten    --     47.3827                30.5269                64.1187

                     79                     80                     81
                      A                      A                      A
 Frequencies --   1611.0397              1611.2818              1611.3086
 Red. masses --      6.6449                 6.6637                 6.6621
 Frc consts  --     10.1614                10.1932                10.1911
 IR Inten    --      3.8729                 3.7936                 3.8356

                     82                     83                     84
                      A                      A                      A
 Frequencies --   1633.4325              1633.4647              1634.4960
 Red. masses --      5.4302                 5.4252                 5.4931
 Frc consts  --      8.5363                 8.5288                 8.6464
 IR Inten    --     29.8009                29.6301                13.1266

                     85                     86                     87
                      A                      A                      A
 Frequencies --   3188.0376              3188.1219              3188.1869
 Red. masses --      1.0892                 1.0892                 1.0892
 Frc consts  --      6.5226                 6.5228                 6.5229
 IR Inten    --      5.6718                 3.9712                 3.0545

                     88                     89                     90
                      A                      A                      A
 Frequencies --   3205.6754              3206.0039              3206.5607
 Red. masses --      1.0879                 1.0878                 1.0878
 Frc consts  --      6.5866                 6.5876                 6.5901
 IR Inten    --      0.8505                 0.8631                 0.6505

                     91                     92                     93
                      A                      A                      A
 Frequencies --   3222.6358              3222.6569              3222.7840
 Red. masses --      1.0937                 1.0937                 1.0937
 Frc consts  --      6.6924                 6.6925                 6.6926
 IR Inten    --      2.3539                 2.3864                 9.9225

                     94                     95                     96
                      A                      A                      A
 Frequencies --   3223.6768              3223.7013              3223.9489
 Red. masses --      1.0939                 1.0939                 1.0941
 Frc consts  --      6.6980                 6.6982                 6.7004
 IR Inten    --      5.6637                 5.6251                 0.0424

 - Thermochemistry -
 -------------------
 Temperature   298.150 Kelvin.  Pressure   1.00000 Atm.
 Atom     1 has atomic number  6 and mass  12.00000

 Molecular mass:   363.97422 amu.
 Principal axes and moments of inertia in atomic units:
                           1         2         3
     Eigenvalues --  ******************************
           X            0.99974  -0.02265   0.00000
           Y            0.02265   0.99974   0.00001
           Z           -0.00000  -0.00001   1.00000
 This molecule is an asymmetric top.
 Rotational symmetry number  1.
 Warning -- assumption of classical behavior for rotation
           may cause significant error
 Rotational temperatures (Kelvin)      0.00723     0.00723     0.00405
 Rotational constants (GHZ):           0.15066     0.15058     0.08441
 Zero-point vibrational energy     643784.1 (Joules/Mol)
                                  153.86810 (Kcal/Mol)
 Warning -- explicit consideration of  30 degrees of freedom as
           vibrations may cause significant error
 Vibrational temperatures:     32.95    33.84    42.70    43.37    55.21
          (Kelvin)             58.00   157.36   169.29   169.39   260.49
                              269.49   270.09   379.95   422.60   422.75
                              447.34   473.01   473.10   552.50   552.74
                              596.79   596.83   599.68   614.14   718.70
                              733.04   733.14   764.93   789.65   789.77
                              927.11   927.14   928.48  1033.46  1033.58
                             1034.10  1073.46  1081.41  1081.52  1199.58
                             1200.25  1200.42  1217.13  1217.28  1221.55
                             1395.09  1395.26  1395.71  1400.60  1400.83
                             1405.31  1479.02  1479.08  1481.41  1579.36
                             1579.47  1584.78  1608.79  1609.10  1613.07
                             1639.20  1639.50  1639.56  1753.93  1754.58
                             1756.48  1896.78  1902.40  1902.64  1923.86
                             1924.51  1924.70  2056.77  2057.38  2057.64
                             2197.13  2197.25  2197.34  2317.93  2318.28
                             2318.31  2350.15  2350.19  2351.68  4586.88
                             4587.00  4587.09  4612.25  4612.72  4613.53
                             4636.65  4636.68  4636.87  4638.15  4638.19
                             4638.54

 Zero-point correction=                           0.245204 (Hartree/Particle)
 Thermal correction to Energy=                    0.264848
 Thermal correction to Enthalpy=                  0.265792
 Thermal correction to Gibbs Free Energy=         0.192380
 Sum of electronic and zero-point Energies=          -2414.841044
 Sum of electronic and thermal Energies=             -2414.821400
 Sum of electronic and thermal Enthalpies=           -2414.820456
 Sum of electronic and thermal Free Energies=        -2414.893868

                     E (Thermal)             CV                S
                      KCal/Mol        Cal/Mol-Kelvin    Cal/Mol-Kelvin
 Total                  166.195             74.119            154.510
 Electronic               0.000              0.000              0.000
 Translational            0.889              2.981             43.569
 Rotational               0.889              2.981             36.372
 Vibrational            164.417             68.157             74.570
 Vibration     1          0.593              1.985              6.365
 Vibration     2          0.593              1.985              6.312
 Vibration     3          0.593              1.984              5.851
 Vibration     4          0.594              1.984              5.820
 Vibration     5          0.594              1.982              5.341
 Vibration     6          0.594              1.981              5.244
 Vibration     7          0.606              1.942              3.280
 Vibration     8          0.608              1.935              3.138
 Vibration     9          0.608              1.935              3.137
 Vibration    10          0.630              1.865              2.318
 Vibration    11          0.632              1.857              2.254
 Vibration    12          0.632              1.857              2.250
 Vibration    13          0.671              1.739              1.635
 Vibration    14          0.689              1.685              1.452
 Vibration    15          0.689              1.685              1.452
 Vibration    16          0.700              1.653              1.357
 Vibration    17          0.712              1.618              1.266
 Vibration    18          0.712              1.618              1.266
 Vibration    19          0.753              1.504              1.023
 Vibration    20          0.753              1.504              1.023
 Vibration    21          0.778              1.438              0.910
 Vibration    22          0.778              1.438              0.910
 Vibration    23          0.780              1.434              0.903
 Vibration    24          0.789              1.412              0.869
 Vibration    25          0.855              1.251              0.659
 Vibration    26          0.865              1.229              0.635
 Vibration    27          0.865              1.229              0.635
 Vibration    28          0.887              1.180              0.584
 Vibration    29          0.904              1.142              0.547
 Vibration    30          0.904              1.142              0.546

                           ! Non-Optimized Parameters !
 Normal termination of Gaussian 16 at Sun Aug 23 04:56:55 2020.
 Gaussian 16:  ES64L-G16RevA.03 25-Dec-2016

 ----------------------------------------------------------------------
 # TD(NStates=10, Root=1) B3LYP/6-31G* scf=qc volume pop=NPA density=cu
 rrent Geom=AllCheck Guess=Read
 ----------------------------------------------------------------------

 Structure from the checkpoint file:  "phosphine_11_conf283.chk"
 -------------------
 Title Card Required
 -------------------
 Charge =  0 Multiplicity = 1

                         Standard orientation:
 ---------------------------------------------------------------------
 Center     Atomic      Atomic             Coordinates (Angstroms)
 Number     Number       Type             X           Y           Z
 ---------------------------------------------------------------------
      1          6           0       -1.422904    3.041095   -0.946180
      2          6           0       -1.156670    1.776405   -0.419360
      3          6           0       -0.385985    1.623188    0.742802
      4          6           0        0.104988    2.778965    1.372800
      5          6           0       -0.141776    4.048373    0.853138
      6          6           0       -0.908248    4.167194   -0.305980
      7         17           0       -1.238090    5.762981   -0.964310
      8         15           0        0.000276   -0.000395    1.547872
      9          6           0       -1.212971   -1.146468    0.742930
     10          6           0       -0.959357   -1.893397   -0.417157
     11          6           0       -1.921880   -2.755971   -0.943856
     12          6           0       -3.155770   -2.870025   -0.305671
     13          6           0       -3.437062   -2.143975    0.851444
     14          6           0       -2.460733   -1.296000    1.371072
     15         17           0       -4.373372   -3.953034   -0.963915
     16          6           0        1.599407   -0.477660    0.742742
     17          6           0        2.355526   -1.479870    1.373322
     18          6           0        3.578335   -1.900632    0.853660
     19          6           0        4.063851   -1.296888   -0.306048
     20          6           0        3.345250   -0.289015   -0.946866
     21          6           0        2.116818    0.112523   -0.420033
     22         17           0        5.610907   -1.808744   -0.964294
     23          1           0       -2.022007    3.151817   -1.844029
     24          1           0       -1.561240    0.903479   -0.922345
     25          1           0        0.686057    2.688823    2.287451
     26          1           0        0.244506    4.934992    1.344689
     27          1           0       -0.000061   -1.809873   -0.918592
     28          1           0       -1.717465   -3.332400   -1.840104
     29          1           0       -4.399085   -2.250257    1.341489
     30          1           0       -2.674027   -0.745473    2.284189
     31          1           0        1.987383   -1.937536    2.288397
     32          1           0        4.153567   -2.677795    1.345654
     33          1           0        3.740232    0.173992   -1.845159
     34          1           0        1.562538    0.898664   -0.923454
 ---------------------------------------------------------------------

 SCF Done:  E(RB3LYP) =  -2415.08624809     a.u. after    1 cycles

 Excitation energies and oscillator strengths:

 Excited State   1:      Singlet-A      4.4053 eV  281.44 nm  f=0.1830  <S**2>=0.000
      93 -> 94         0.69578
 This state for optimization and/or second-order correction.
 Total Energy, E(TD-HF/TD-DFT) =  -2414.92435641
 Copying the excited state density for this state as the 1-particle RhoCI density.

 Excited State   2:      Singlet-A      4.4070 eV  281.34 nm  f=0.1840  <S**2>=0.000
      93 -> 95         0.69576

 Excited State   3:      Singlet-A      4.6114 eV  268.86 nm  f=0.0036  <S**2>=0.000
      89 -> 94        -0.10994
      90 -> 95         0.11029
      93 -> 96         0.67974

 Excited State   4:      Singlet-A      4.9173 eV  252.14 nm  f=0.0001  <S**2>=0.000
      88 -> 94        -0.11740
      89 -> 95        -0.10635
      90 -> 94         0.10627
      93 -> 98         0.64555

 Excited State   5:      Singlet-A      4.9180 eV  252.10 nm  f=0.0001  <S**2>=0.000
      88 -> 95         0.11733
      89 -> 94         0.10655
      90 -> 95         0.10676
      90 -> 97         0.10051
      93 -> 99         0.64521

 Excited State   6:      Singlet-A      5.0219 eV  246.89 nm  f=0.0090  <S**2>=0.000
      91 -> 94        -0.11846
      92 -> 95        -0.11876
      93 -> 97         0.66878

 Excited State   7:      Singlet-A      5.2598 eV  235.72 nm  f=0.0017  <S**2>=0.000
      89 -> 94         0.13274
      90 -> 95        -0.13045
      91 -> 94        -0.23385
      91 -> 95        -0.37618
      91 -> 98         0.12620
      92 -> 94         0.38010
      92 -> 95        -0.23315
      92 -> 99        -0.12449
      93 -> 96         0.10382

 Excited State   8:      Singlet-A      5.3612 eV  231.26 nm  f=0.0049  <S**2>=0.000
      88 -> 94         0.19196
      89 -> 94         0.13662
      89 -> 95         0.13623
      89 -> 97        -0.11228
      90 -> 94        -0.13680
      90 -> 95         0.13598
      91 -> 95        -0.14420
      91 -> 96         0.38201
      91 -> 99        -0.15115
      92 -> 94        -0.14684
      92 -> 96         0.22335
      92 -> 98         0.15303
      93 -> 98         0.22692

 Excited State   9:      Singlet-A      5.3619 eV  231.23 nm  f=0.0048  <S**2>=0.000
      88 -> 95         0.19052
      89 -> 94         0.13659
      89 -> 95        -0.13617
      90 -> 94         0.13595
      90 -> 95         0.13613
      90 -> 97         0.11233
      91 -> 94        -0.14426
      91 -> 96        -0.22206
      91 -> 98         0.15163
      92 -> 95         0.14613
      92 -> 96         0.38399
      92 -> 99         0.15159
      93 -> 99        -0.22763

 Excited State  10:      Singlet-A      5.4212 eV  228.70 nm  f=0.1612  <S**2>=0.000
      91 -> 94         0.45765
      92 -> 95        -0.45686
      92 -> 96         0.13518

 The electronic state is 1-A.
 Alpha  occ. eigenvalues -- -101.55493-101.55492-101.55491 -77.10095 -10.26330
 Alpha  occ. eigenvalues --  -10.26328 -10.26326 -10.21418 -10.21418 -10.21417
 Alpha  occ. eigenvalues --  -10.21368 -10.21367 -10.21366 -10.21347 -10.21346
 Alpha  occ. eigenvalues --  -10.21344 -10.21313 -10.21312 -10.21311 -10.21249
 Alpha  occ. eigenvalues --  -10.21248 -10.21246  -9.47125  -9.47124  -9.47123
 Alpha  occ. eigenvalues --   -7.23520  -7.23519  -7.23517  -7.22556  -7.22554
 Alpha  occ. eigenvalues --   -7.22553  -7.22518  -7.22517  -7.22515  -6.56809
 Alpha  occ. eigenvalues --   -4.73070  -4.73070  -4.72565  -0.89964  -0.89792
 Alpha  occ. eigenvalues --   -0.89790  -0.85154  -0.84237  -0.84236  -0.76898
 Alpha  occ. eigenvalues --   -0.76780  -0.76779  -0.76742  -0.73907  -0.73905
 Alpha  occ. eigenvalues --   -0.65058  -0.63150  -0.62987  -0.62986  -0.60497
 Alpha  occ. eigenvalues --   -0.60496  -0.57615  -0.52432  -0.52430  -0.49746
 Alpha  occ. eigenvalues --   -0.48087  -0.47999  -0.47998  -0.47167  -0.47167
 Alpha  occ. eigenvalues --   -0.46321  -0.44340  -0.44246  -0.44245  -0.42725
 Alpha  occ. eigenvalues --   -0.42724  -0.40320  -0.40238  -0.40236  -0.39581
 Alpha  occ. eigenvalues --   -0.37219  -0.37219  -0.37129  -0.35189  -0.35186
 Alpha  occ. eigenvalues --   -0.34135  -0.33461  -0.33459  -0.31867  -0.31862
 Alpha  occ. eigenvalues --   -0.31861  -0.27685  -0.27415  -0.27143  -0.27141
 Alpha  occ. eigenvalues --   -0.25830  -0.25826  -0.22677
 Alpha virt. eigenvalues --   -0.03958  -0.03954  -0.03034  -0.01965  -0.01787
 Alpha virt. eigenvalues --   -0.01783   0.02242   0.02244   0.02402   0.05588
 Alpha virt. eigenvalues --    0.05595   0.10344   0.12156   0.12344   0.12346

 Mulliken charges:
               1
     1  C   -0.113061
     2  C   -0.168423
     3  C   -0.100028
     4  C   -0.154687
     5  C   -0.124738
     6  C   -0.085045
     7  Cl  -0.019434
     8  P    0.446488
     9  C   -0.084684
    10  C   -0.147244
    11  C   -0.118377
    12  C   -0.065313
    13  C   -0.114271
    14  C   -0.160593
    15  Cl   0.013797
    16  C   -0.131122
    17  C   -0.173917
    18  C   -0.120634
    19  C   -0.100612
    20  C   -0.120891
    21  C   -0.168494
    22  Cl  -0.043610
    23  H    0.157832
    24  H    0.144411
    25  H    0.146451
    26  H    0.156016
    27  H    0.186053
    28  H    0.173363
    29  H    0.169121
    30  H    0.159128
    31  H    0.127219
    32  H    0.144013
    33  H    0.147855
    34  H    0.143433
 Sum of Mulliken charges =  -0.00000

 Dipole moment (field-independent basis, Debye):
    X=             -3.9976    Y=             -1.2857    Z=              1.9741  Tot=              4.6401
 Quadrupole moment (field-independent basis, Debye-Ang):
   XX=           -170.5661   YY=           -164.5311   ZZ=           -145.0458
   XY=              8.4403   XZ=              0.4924   YZ=              0.9184

 Summary of Natural Population Analysis:

                                       Natural Population
                Natural  -----------------------------------------------
    Atom  No    Charge         Core      Valence    Rydberg      Total
 -----------------------------------------------------------------------
      C    1   -0.23458      1.99893     4.22032    0.01534     6.23458
      C    2   -0.24045      1.99899     4.22427    0.01718     6.24045
      C    3   -0.42532      1.99888     4.40241    0.02404     6.42532
      C    4   -0.19293      1.99901     4.17846    0.01546     6.19293
      C    5   -0.26234      1.99893     4.24700    0.01641     6.26234
      C    6   -0.05958      1.99854     4.03881    0.02223     6.05958
     Cl    7    0.00152      9.99967     6.97879    0.02001    16.99848
      P    8    1.21199      9.99758     3.74059    0.04984    13.78801
      C    9   -0.38576      1.99891     4.36155    0.02530     6.38576
      C   10   -0.19133      1.99900     4.17634    0.01600     6.19133
      C   11   -0.24399      1.99892     4.22967    0.01540     6.24399
      C   12   -0.01882      1.99855     3.99798    0.02228     6.01882
      C   13   -0.24299      1.99893     4.22880    0.01527     6.24299
      C   14   -0.19826      1.99902     4.18397    0.01527     6.19826
     Cl   15    0.02675      9.99967     6.95423    0.01935    16.97325
      C   16   -0.48395      1.99887     4.45921    0.02587     6.48395
      C   17   -0.22544      1.99901     4.21023    0.01619     6.22544
      C   18   -0.25499      1.99894     4.23985    0.01621     6.25499
      C   19   -0.09125      1.99854     4.07048    0.02223     6.09125
      C   20   -0.24852      1.99893     4.23357    0.01603     6.24852
      C   21   -0.23727      1.99899     4.22074    0.01754     6.23727
     Cl   22   -0.01636      9.99967     6.99620    0.02049    17.01636
      H   23    0.25577      0.00000     0.74318    0.00106     0.74423
      H   24    0.24456      0.00000     0.75413    0.00130     0.75544
      H   25    0.24300      0.00000     0.75585    0.00115     0.75700
      H   26    0.25510      0.00000     0.74387    0.00103     0.74490
      H   27    0.26766      0.00000     0.73112    0.00121     0.73234
      H   28    0.26325      0.00000     0.73570    0.00105     0.73675
      H   29    0.26054      0.00000     0.73839    0.00107     0.73946
      H   30    0.24854      0.00000     0.75032    0.00114     0.75146
      H   31    0.23170      0.00000     0.76739    0.00091     0.76830
      H   32    0.24886      0.00000     0.75007    0.00107     0.75114
      H   33    0.25134      0.00000     0.74761    0.00105     0.74866
      H   34    0.24356      0.00000     0.75492    0.00152     0.75644
 =======================================================================
   * Total *   -0.00000     75.97648   109.56603    0.45749   186.00000

 Normal termination of Gaussian 16 at Sun Aug 23 05:16:09 2020.
