 Gaussian 16, Revision A.03,

 ---------------------------------
 # opt=CalcAll B3LYP/6-31G* scf=qc
 ---------------------------------

 -------------------
 Title Card Required
 -------------------
 Symbolic Z-matrix:
 Charge =  0 Multiplicity = 1

 SCF Done:  E(RB3LYP) =  -2415.06394818     a.u. after    8 cycles
 SCF Done:  E(RB3LYP) =  -2415.07003304     a.u. after   17 cycles
 SCF Done:  E(RB3LYP) =  -2415.08378336     a.u. after   17 cycles
 SCF Done:  E(RB3LYP) =  -2415.08552506     a.u. after   15 cycles
 SCF Done:  E(RB3LYP) =  -2415.08617610     a.u. after   15 cycles
 SCF Done:  E(RB3LYP) =  -2415.08621917     a.u. after   13 cycles
 SCF Done:  E(RB3LYP) =  -2415.08623452     a.u. after    7 cycles
 SCF Done:  E(RB3LYP) =  -2415.08623904     a.u. after    5 cycles
 SCF Done:  E(RB3LYP) =  -2415.08623977     a.u. after    5 cycles
 SCF Done:  E(RB3LYP) =  -2415.08624262     a.u. after    2 cycles
 SCF Done:  E(RB3LYP) =  -2415.08624759     a.u. after    4 cycles
 SCF Done:  E(RB3LYP) =  -2415.08624149     a.u. after    2 cycles
 SCF Done:  E(RB3LYP) =  -2415.08624344     a.u. after    2 cycles
 SCF Done:  E(RB3LYP) =  -2415.08624268     a.u. after    2 cycles
 SCF Done:  E(RB3LYP) =  -2415.08624263     a.u. after    2 cycles
 Optimization completed.
    -- Stationary point found.
 Normal termination of Gaussian 16 at Sun Aug 23 02:24:03 2020.

 ----------------------------------------------------------------------
 # freq B3LYP/6-31G* scf=qc volume NMR pop=NPA density=current Geom=All
 Check Guess=Read
 ----------------------------------------------------------------------

 Structure from the checkpoint file:  "phosphine_11_conf192.chk"
 -------------------
 Title Card Required
 -------------------
 Charge =  0 Multiplicity = 1

 SCF Done:  E(RB3LYP) =  -2415.08624263     a.u. after    1 cycles

      1  C    Isotropic =    67.5536   Anisotropy =   140.5619

      2  C    Isotropic =    60.1900   Anisotropy =   160.2717

      3  C    Isotropic =    58.8216   Anisotropy =   177.4011

      4  C    Isotropic =    61.8723   Anisotropy =   168.7011

      5  C    Isotropic =    67.5368   Anisotropy =   140.1307

      6  C    Isotropic =    51.5903   Anisotropy =   109.1657

      7  Cl   Isotropic =   720.9261   Anisotropy =   452.8969

      8  P    Isotropic =   364.8041   Anisotropy =    37.4222

      9  C    Isotropic =    58.6852   Anisotropy =   177.4783

     10  C    Isotropic =    61.9719   Anisotropy =   168.5470

     11  C    Isotropic =    67.5435   Anisotropy =   140.0843

     12  C    Isotropic =    51.6344   Anisotropy =   109.0863

     13  C    Isotropic =    67.5659   Anisotropy =   140.5855

     14  C    Isotropic =    60.2978   Anisotropy =   160.3416

     15  Cl   Isotropic =   721.0187   Anisotropy =   453.0414

     16  C    Isotropic =    58.7316   Anisotropy =   177.4674

     17  C    Isotropic =    60.1719   Anisotropy =   160.2095

     18  C    Isotropic =    67.5353   Anisotropy =   140.5877

     19  C    Isotropic =    51.5763   Anisotropy =   109.1883

     20  C    Isotropic =    67.5439   Anisotropy =   140.1005

     21  C    Isotropic =    61.8418   Anisotropy =   168.6351

     22  Cl   Isotropic =   720.9349   Anisotropy =   452.8511

     23  H    Isotropic =    25.0933   Anisotropy =     6.6281

     24  H    Isotropic =    24.7761   Anisotropy =     8.9621

     25  H    Isotropic =    25.5726   Anisotropy =    12.1091

     26  H    Isotropic =    25.2056   Anisotropy =     8.1423

     27  H    Isotropic =    25.5894   Anisotropy =    12.1368

     28  H    Isotropic =    25.2120   Anisotropy =     8.1432

     29  H    Isotropic =    25.0955   Anisotropy =     6.6322

     30  H    Isotropic =    24.7850   Anisotropy =     8.9878

     31  H    Isotropic =    24.7737   Anisotropy =     8.9591

     32  H    Isotropic =    25.0901   Anisotropy =     6.6364

     33  H    Isotropic =    25.2089   Anisotropy =     8.1371

     34  H    Isotropic =    25.5767   Anisotropy =    12.0873

  Exact polarizability: 280.838   0.231 280.274   0.069   0.245 185.202
 Approx polarizability: 393.793   0.538 392.849   0.153   0.567 343.357

                      1                      2                      3
                      A                      A                      A
 Frequencies --     21.0751                22.9573                29.3395
 Red. masses --      4.5005                 4.7489                 9.6491
 Frc consts  --      0.0012                 0.0015                 0.0049
 IR Inten    --      0.2788                 0.2858                 0.1799

                      4                      5                      6
                      A                      A                      A
 Frequencies --     29.4942                37.9332                39.8608
 Red. masses --      8.5881                 6.0190                 5.6655
 Frc consts  --      0.0044                 0.0051                 0.0053
 IR Inten    --      0.1814                 0.1525                 0.0759

                      7                      8                      9
                      A                      A                      A
 Frequencies --    109.1000               117.5559               117.7789
 Red. masses --      8.8638                 8.8332                 8.8270
 Frc consts  --      0.0622                 0.0719                 0.0721
 IR Inten    --      0.0251                 0.3531                 0.3494

                     10                     11                     12
                      A                      A                      A
 Frequencies --    181.0735               187.1505               187.7907
 Red. masses --     10.0389                 8.7759                 8.7961
 Frc consts  --      0.1939                 0.1811                 0.1828
 IR Inten    --      0.3324                 0.5789                 0.5671

                     13                     14                     15
                      A                      A                      A
 Frequencies --    264.0057               293.5655               293.7404
 Red. masses --      8.9710                 8.4122                 8.3956
 Frc consts  --      0.3684                 0.4271                 0.4268
 IR Inten    --      0.2165                 0.9150                 0.8964

                     16                     17                     18
                      A                      A                      A
 Frequencies --    310.8159               328.6835               328.8020
 Red. masses --      6.0465                 5.9832                 5.9863
 Frc consts  --      0.3442                 0.3808                 0.3813
 IR Inten    --      0.0041                 1.8732                 1.9103

                     19                     20                     21
                      A                      A                      A
 Frequencies --    383.8280               384.1759               414.6061
 Red. masses --      8.0445                 8.0077                 3.0437
 Frc consts  --      0.6983                 0.6963                 0.3083
 IR Inten    --     20.9057                21.0265                 0.0709

                     22                     23                     24
                      A                      A                      A
 Frequencies --    414.6668               416.6421               426.9601
 Red. masses --      3.0448                 3.2047                 6.6317
 Frc consts  --      0.3085                 0.3278                 0.7123
 IR Inten    --      0.0471                 0.1600                 2.9445

                     25                     26                     27
                      A                      A                      A
 Frequencies --    499.5184               509.3083               509.4986
 Red. masses --      5.5060                 3.6412                 3.6463
 Frc consts  --      0.8095                 0.5565                 0.5577
 IR Inten    --      6.8589                20.1092                19.7923

                     28                     29                     30
                      A                      A                      A
 Frequencies --    531.5571               548.7479               548.8632
 Red. masses --      4.5775                 7.4477                 7.4329
 Frc consts  --      0.7620                 1.3213                 1.3193
 IR Inten    --      9.8366                 5.4555                 5.4567

                     31                     32                     33
                      A                      A                      A
 Frequencies --    644.3198               644.3801               645.3002
 Red. masses --      7.1593                 7.1600                 7.1685
 Frc consts  --      1.7512                 1.7517                 1.7587
 IR Inten    --      0.0369                 0.0380                 0.0971

                     34                     35                     36
                      A                      A                      A
 Frequencies --    718.1386               718.2775               718.7008
 Red. masses --      4.5824                 4.5882                 4.6030
 Frc consts  --      1.3924                 1.3947                 1.4008
 IR Inten    --      1.6764                 1.6189                 0.3822

                     37                     38                     39
                      A                      A                      A
 Frequencies --    746.1513               751.6583               751.6671
 Red. masses --      7.2624                 7.2757                 7.2737
 Frc consts  --      2.3822                 2.4219                 2.4213
 IR Inten    --     14.6170                54.3895                54.3078

                     40                     41                     42
                      A                      A                      A
 Frequencies --    833.6257               834.1129               834.2187
 Red. masses --      1.4172                 1.4321                 1.4322
 Frc consts  --      0.5803                 0.5871                 0.5872
 IR Inten    --     23.3644                32.9392                32.7417

                     43                     44                     45
                      A                      A                      A
 Frequencies --    845.8027               845.8524               848.8554
 Red. masses --      1.2467                 1.2467                 1.2500
 Frc consts  --      0.5255                 0.5255                 0.5307
 IR Inten    --      0.6221                 0.6553                 0.2846

                     46                     47                     48
                      A                      A                      A
 Frequencies --    969.5113               969.5696               969.9499
 Red. masses --      1.2763                 1.2758                 1.2871
 Frc consts  --      0.7068                 0.7066                 0.7135
 IR Inten    --      0.1528                 0.1543                 0.2252

                     49                     50                     51
                      A                      A                      A
 Frequencies --    973.2694               973.3099               976.4734
 Red. masses --      1.3465                 1.3456                 1.3233
 Frc consts  --      0.7515                 0.7510                 0.7434
 IR Inten    --      0.0116                 0.0104                 0.4199

                     52                     53                     54
                      A                      A                      A
 Frequencies --   1027.9521              1027.9799              1029.6257
 Red. masses --      4.7554                 4.7652                 4.7021
 Frc consts  --      2.9606                 2.9669                 2.9370
 IR Inten    --     62.6985                62.7198                 5.1106

                     55                     56                     57
                      A                      A                      A
 Frequencies --   1097.7635              1097.8267              1101.5534
 Red. masses --      7.9007                 7.9423                 8.0685
 Frc consts  --      5.6096                 5.6398                 5.7684
 IR Inten    --     81.4886                81.4271                13.7478

                     58                     59                     60
                      A                      A                      A
 Frequencies --   1118.1565              1118.4693              1121.3632
 Red. masses --      2.1233                 2.1203                 2.1026
 Frc consts  --      1.5641                 1.5628                 1.5578
 IR Inten    --     33.0610                32.2745                 6.4946

                     61                     62                     63
                      A                      A                      A
 Frequencies --   1139.1875              1139.4219              1139.6931
 Red. masses --      1.4013                 1.4017                 1.4025
 Frc consts  --      1.0715                 1.0722                 1.0733
 IR Inten    --      0.1407                 1.9120                 2.0431

                     64                     65                     66
                      A                      A                      A
 Frequencies --   1218.9592              1219.5086              1220.9975
 Red. masses --      1.1568                 1.1572                 1.1520
 Frc consts  --      1.0127                 1.0140                 1.0119
 IR Inten    --      4.8784                 4.6724                 1.0051

                     67                     68                     69
                      A                      A                      A
 Frequencies --   1318.3025              1322.1334              1322.4222
 Red. masses --      6.9319                 7.4772                 7.7984
 Frc consts  --      7.0979                 7.7008                 8.0352
 IR Inten    --      1.3181                 2.6580                 2.6759

                     70                     71                     72
                      A                      A                      A
 Frequencies --   1337.1398              1337.4740              1337.9952
 Red. masses --      1.3365                 1.3430                 1.3383
 Frc consts  --      1.4079                 1.4154                 1.4116
 IR Inten    --      0.3115                 0.8847                 1.0803

                     73                     74                     75
                      A                      A                      A
 Frequencies --   1429.5705              1429.8523              1430.1570
 Red. masses --      2.6344                 2.6446                 2.6382
 Frc consts  --      3.1720                 3.1857                 3.1793
 IR Inten    --     19.2688                 6.0705                 6.5606

                     76                     77                     78
                      A                      A                      A
 Frequencies --   1527.0541              1527.1495              1527.2802
 Red. masses --      2.0782                 2.0903                 2.0796
 Frc consts  --      2.8552                 2.8723                 2.8581
 IR Inten    --     63.3515                27.9257                50.7393

                     79                     80                     81
                      A                      A                      A
 Frequencies --   1611.0371              1611.2103              1611.3545
 Red. masses --      6.6392                 6.6636                 6.6571
 Frc consts  --     10.1526                10.1922                10.1840
 IR Inten    --      3.8448                 3.7612                 3.8939

                     82                     83                     84
                      A                      A                      A
 Frequencies --   1633.4002              1633.4725              1634.4983
 Red. masses --      5.4315                 5.4253                 5.4920
 Frc consts  --      8.5379                 8.5290                 8.6447
 IR Inten    --     30.0166                29.5016                13.1308

                     85                     86                     87
                      A                      A                      A
 Frequencies --   3187.9378              3188.1474              3188.2149
 Red. masses --      1.0892                 1.0892                 1.0892
 Frc consts  --      6.5221                 6.5230                 6.5231
 IR Inten    --      4.8661                 4.6541                 3.1525

                     88                     89                     90
                      A                      A                      A
 Frequencies --   3205.5111              3205.7108              3206.2740
 Red. masses --      1.0879                 1.0878                 1.0879
 Frc consts  --      6.5860                 6.5867                 6.5894
 IR Inten    --      0.8652                 0.8601                 0.6723

                     91                     92                     93
                      A                      A                      A
 Frequencies --   3222.5580              3222.5965              3222.7404
 Red. masses --      1.0937                 1.0937                 1.0937
 Frc consts  --      6.6922                 6.6922                 6.6926
 IR Inten    --      2.4508                 2.8281                 9.2983

                     94                     95                     96
                      A                      A                      A
 Frequencies --   3223.5990              3223.6948              3223.9247
 Red. masses --      1.0940                 1.0939                 1.0941
 Frc consts  --      6.6978                 6.6978                 6.7000
 IR Inten    --      5.6111                 5.3348                 0.4615

 - Thermochemistry -
 -------------------
 Temperature   298.150 Kelvin.  Pressure   1.00000 Atm.
 Atom     1 has atomic number  6 and mass  12.00000

 Molecular mass:   363.97422 amu.
 Principal axes and moments of inertia in atomic units:
                           1         2         3
     Eigenvalues --  ******************************
           X            0.99983   0.01839   0.00002
           Y           -0.01839   0.99983   0.00004
           Z           -0.00002  -0.00004   1.00000
 This molecule is an asymmetric top.
 Rotational symmetry number  1.
 Warning -- assumption of classical behavior for rotation
           may cause significant error
 Rotational temperatures (Kelvin)      0.00724     0.00722     0.00405
 Rotational constants (GHZ):           0.15077     0.15046     0.08440
 Zero-point vibrational energy     643729.2 (Joules/Mol)
                                  153.85496 (Kcal/Mol)
 Warning -- explicit consideration of  30 degrees of freedom as
           vibrations may cause significant error
 Vibrational temperatures:     30.32    33.03    42.21    42.44    54.58
          (Kelvin)             57.35   156.97   169.14   169.46   260.52
                              269.27   270.19   379.85   422.38   422.63
                              447.19   472.90   473.07   552.24   552.74
                              596.53   596.61   599.46   614.30   718.70
                              732.78   733.05   764.79   789.53   789.69
                              927.03   927.12   928.44  1033.24  1033.44
                             1034.05  1073.55  1081.47  1081.48  1199.40
                             1200.10  1200.25  1216.92  1216.99  1221.31
                             1394.91  1394.99  1395.54  1400.32  1400.38
                             1404.93  1478.99  1479.03  1481.40  1579.44
                             1579.53  1584.89  1608.78  1609.23  1613.39
                             1639.04  1639.37  1639.76  1753.81  1754.60
                             1756.74  1896.74  1902.26  1902.67  1923.85
                             1924.33  1925.08  2056.83  2057.24  2057.68
                             2197.09  2197.23  2197.42  2317.92  2318.17
                             2318.38  2350.10  2350.20  2351.68  4586.73
                             4587.03  4587.13  4612.02  4612.30  4613.11
                             4636.54  4636.60  4636.80  4638.04  4638.18
                             4638.51

 Zero-point correction=                           0.245183 (Hartree/Particle)
 Thermal correction to Energy=                    0.264839
 Thermal correction to Enthalpy=                  0.265783
 Thermal correction to Gibbs Free Energy=         0.192210
 Sum of electronic and zero-point Energies=          -2414.841059
 Sum of electronic and thermal Energies=             -2414.821403
 Sum of electronic and thermal Enthalpies=           -2414.820459
 Sum of electronic and thermal Free Energies=        -2414.894032

                     E (Thermal)             CV                S
                      KCal/Mol        Cal/Mol-Kelvin    Cal/Mol-Kelvin
 Total                  166.189             74.126            154.848
 Electronic               0.000              0.000              0.000
 Translational            0.889              2.981             43.569
 Rotational               0.889              2.981             36.372
 Vibrational            164.412             68.164             74.907
 Vibration     1          0.593              1.985              6.530
 Vibration     2          0.593              1.985              6.360
 Vibration     3          0.593              1.984              5.874
 Vibration     4          0.593              1.984              5.863
 Vibration     5          0.594              1.982              5.364
 Vibration     6          0.594              1.981              5.266
 Vibration     7          0.606              1.942              3.285
 Vibration     8          0.608              1.935              3.140
 Vibration     9          0.608              1.935              3.136
 Vibration    10          0.630              1.865              2.317
 Vibration    11          0.632              1.857              2.256
 Vibration    12          0.632              1.857              2.250
 Vibration    13          0.671              1.739              1.635
 Vibration    14          0.688              1.686              1.453
 Vibration    15          0.689              1.685              1.452
 Vibration    16          0.700              1.653              1.358
 Vibration    17          0.712              1.618              1.267
 Vibration    18          0.712              1.618              1.266
 Vibration    19          0.753              1.505              1.024
 Vibration    20          0.753              1.504              1.023
 Vibration    21          0.778              1.439              0.910
 Vibration    22          0.778              1.438              0.910
 Vibration    23          0.780              1.434              0.903
 Vibration    24          0.789              1.412              0.869
 Vibration    25          0.855              1.251              0.659
 Vibration    26          0.864              1.229              0.635
 Vibration    27          0.865              1.229              0.635
 Vibration    28          0.887              1.180              0.584
 Vibration    29          0.904              1.142              0.547
 Vibration    30          0.904              1.142              0.547

                           ! Non-Optimized Parameters !
 Normal termination of Gaussian 16 at Sun Aug 23 02:40:11 2020.
 Gaussian 16:  ES64L-G16RevA.03 25-Dec-2016

 ----------------------------------------------------------------------
 # TD(NStates=10, Root=1) B3LYP/6-31G* scf=qc volume pop=NPA density=cu
 rrent Geom=AllCheck Guess=Read
 ----------------------------------------------------------------------

 Structure from the checkpoint file:  "phosphine_11_conf193.chk"
 -------------------
 Title Card Required
 -------------------
 Charge =  0 Multiplicity = 1

                         Standard orientation:
 ---------------------------------------------------------------------
 Center     Atomic      Atomic             Coordinates (Angstroms)
 Number     Number       Type             X           Y           Z
 ---------------------------------------------------------------------
      1          6           0       -4.023337   -0.492354    0.855083
      2          6           0       -2.730768   -0.536816    1.374346
      3          6           0       -1.665903    0.126641    0.742167
      4          6           0       -1.937807    0.860918   -0.421884
      5          6           0       -3.228745    0.925362   -0.948330
      6          6           0       -4.260610    0.243162   -0.305881
      7         17           0       -5.888571    0.318595   -0.963692
      8         15           0       -0.001928    0.000301    1.547425
      9          6           0        0.721563   -1.503958    0.742988
     10          6           0        0.214309   -2.115051   -0.413405
     11          6           0        0.805437   -3.264670   -0.939645
     12          6           0        1.921027   -3.807959   -0.304844
     13          6           0        2.446776   -3.226180    0.848566
     14          6           0        1.837477   -2.085449    1.367900
     15         17           0        2.671708   -5.254515   -0.962655
     16          6           0        0.940498    1.377564    0.742258
     17          6           0        0.903020    2.630612    1.376381
     18          6           0        1.588995    3.726924    0.856802
     19          6           0        2.340819    3.564648   -0.306606
     20          6           0        2.410798    2.330766   -0.951256
     21          6           0        1.708540    1.245893   -0.424331
     22         17           0        3.221631    4.935650   -0.964799
     23          1           0       -4.838717   -1.010785    1.348343
     24          1           0       -2.550728   -1.094205    2.290448
     25          1           0       -1.138802    1.395221   -0.926658
     26          1           0       -3.431909    1.497551   -1.847574
     27          1           0       -0.654704   -1.697507   -0.912557
     28          1           0        0.405817   -3.733141   -1.833045
     29          1           0        3.310412   -3.665941    1.336088
     30          1           0        2.236315   -1.644345    2.278244
     31          1           0        0.333201    2.753395    2.294291
     32          1           0        1.551496    4.691611    1.351678
     33          1           0        3.004962    2.220612   -1.852449
     34          1           0        1.767981    0.287287   -0.930546
 ---------------------------------------------------------------------

 SCF Done:  E(RB3LYP) =  -2415.08624263     a.u. after    1 cycles

 Excitation energies and oscillator strengths:

 Excited State   1:      Singlet-A      4.4031 eV  281.58 nm  f=0.1815  <S**2>=0.000
      93 -> 94         0.69579
 This state for optimization and/or second-order correction.
 Total Energy, E(TD-HF/TD-DFT) =  -2414.92443014
 Copying the excited state density for this state as the 1-particle RhoCI density.

 Excited State   2:      Singlet-A      4.4094 eV  281.18 nm  f=0.1852  <S**2>=0.000
      93 -> 95         0.69572

 Excited State   3:      Singlet-A      4.6126 eV  268.80 nm  f=0.0036  <S**2>=0.000
      89 -> 94        -0.10956
      90 -> 95         0.11092
      93 -> 96         0.67967

 Excited State   4:      Singlet-A      4.9165 eV  252.18 nm  f=0.0001  <S**2>=0.000
      88 -> 94         0.11773
      89 -> 95        -0.11564
      90 -> 94         0.11461
      93 -> 98         0.64612

 Excited State   5:      Singlet-A      4.9193 eV  252.04 nm  f=0.0001  <S**2>=0.000
      88 -> 95         0.11740
      89 -> 94        -0.11676
      90 -> 95        -0.11774
      90 -> 97         0.10180
      93 -> 99         0.64423

 Excited State   6:      Singlet-A      5.0226 eV  246.85 nm  f=0.0090  <S**2>=0.000
      91 -> 94         0.11688
      92 -> 95         0.11813
      93 -> 97         0.66825

 Excited State   7:      Singlet-A      5.2592 eV  235.75 nm  f=0.0018  <S**2>=0.000
      89 -> 94         0.13575
      90 -> 95        -0.12717
      91 -> 94         0.24122
      91 -> 95        -0.36701
      91 -> 98         0.12688
      92 -> 94         0.38090
      92 -> 95         0.23861
      92 -> 99         0.12031
      93 -> 96         0.10406

 Excited State   8:      Singlet-A      5.3603 eV  231.30 nm  f=0.0054  <S**2>=0.000
      87 -> 94         0.10014
      88 -> 94        -0.19362
      89 -> 95         0.19181
      89 -> 97         0.11211
      90 -> 94        -0.19284
      91 -> 95         0.11646
      91 -> 96         0.37566
      91 -> 99         0.12326
      92 -> 94         0.11062
      92 -> 96        -0.22898
      92 -> 98         0.12862
      93 -> 98         0.22655

 Excited State   9:      Singlet-A      5.3630 eV  231.18 nm  f=0.0050  <S**2>=0.000
      88 -> 95        -0.18801
      89 -> 94         0.19265
      90 -> 95         0.18963
      90 -> 97        -0.11216
      91 -> 94         0.11923
      91 -> 96         0.22404
      91 -> 98         0.12619
      92 -> 95        -0.12561
      92 -> 96         0.38285
      92 -> 99        -0.12505
      93 -> 99         0.22893

 Excited State  10:      Singlet-A      5.4202 eV  228.75 nm  f=0.1595  <S**2>=0.000
      91 -> 94        -0.29251
      91 -> 95         0.36395
      92 -> 94         0.36540
      92 -> 95         0.28221
      92 -> 96         0.13372

 The electronic state is 1-A.
 Alpha  occ. eigenvalues -- -101.55495-101.55495-101.55486 -77.10093 -10.26333
 Alpha  occ. eigenvalues --  -10.26332 -10.26319 -10.21420 -10.21418 -10.21414
 Alpha  occ. eigenvalues --  -10.21369 -10.21368 -10.21362 -10.21349 -10.21349
 Alpha  occ. eigenvalues --  -10.21339 -10.21315 -10.21314 -10.21307 -10.21252
 Alpha  occ. eigenvalues --  -10.21251 -10.21241  -9.47127  -9.47127  -9.47118
 Alpha  occ. eigenvalues --   -7.23522  -7.23522  -7.23513  -7.22557  -7.22557
 Alpha  occ. eigenvalues --   -7.22548  -7.22520  -7.22520  -7.22511  -6.56808
 Alpha  occ. eigenvalues --   -4.73069  -4.73068  -4.72564  -0.89964  -0.89794
 Alpha  occ. eigenvalues --   -0.89787  -0.85153  -0.84239  -0.84233  -0.76898
 Alpha  occ. eigenvalues --   -0.76781  -0.76778  -0.76742  -0.73909  -0.73903
 Alpha  occ. eigenvalues --   -0.65058  -0.63151  -0.62987  -0.62984  -0.60498
 Alpha  occ. eigenvalues --   -0.60494  -0.57615  -0.52433  -0.52428  -0.49747
 Alpha  occ. eigenvalues --   -0.48089  -0.47999  -0.47997  -0.47167  -0.47166
 Alpha  occ. eigenvalues --   -0.46321  -0.44340  -0.44247  -0.44243  -0.42728
 Alpha  occ. eigenvalues --   -0.42721  -0.40319  -0.40241  -0.40234  -0.39580
 Alpha  occ. eigenvalues --   -0.37220  -0.37217  -0.37129  -0.35194  -0.35184
 Alpha  occ. eigenvalues --   -0.34133  -0.33464  -0.33454  -0.31869  -0.31864
 Alpha  occ. eigenvalues --   -0.31858  -0.27682  -0.27412  -0.27147  -0.27137
 Alpha  occ. eigenvalues --   -0.25836  -0.25821  -0.22679
 Alpha virt. eigenvalues --   -0.03965  -0.03949  -0.03031  -0.01964  -0.01794
 Alpha virt. eigenvalues --   -0.01778   0.02239   0.02246   0.02402   0.05581
 Alpha virt. eigenvalues --    0.05608   0.10343   0.12151   0.12343   0.12348

 Mulliken charges:
               1
     1  C   -0.117735
     2  C   -0.174691
     3  C   -0.124502
     4  C   -0.162045
     5  C   -0.122108
     6  C   -0.093818
     7  Cl  -0.032469
     8  P    0.446512
     9  C   -0.078710
    10  C   -0.148693
    11  C   -0.116151
    12  C   -0.063230
    13  C   -0.115717
    14  C   -0.155728
    15  Cl   0.017244
    16  C   -0.112307
    17  C   -0.158715
    18  C   -0.126274
    19  C   -0.093925
    20  C   -0.113954
    21  C   -0.173710
    22  Cl  -0.034051
    23  H    0.148626
    24  H    0.132121
    25  H    0.155585
    26  H    0.153010
    27  H    0.183595
    28  H    0.174628
    29  H    0.171027
    30  H    0.162710
    31  H    0.137943
    32  H    0.149478
    33  H    0.151430
    34  H    0.134622
 Sum of Mulliken charges =   0.00000

 Dipole moment (field-independent basis, Debye):
    X=              1.7797    Y=             -3.8485    Z=              1.9758  Tot=              4.6778
 Quadrupole moment (field-independent basis, Debye-Ang):
   XX=           -172.7677   YY=           -162.3560   ZZ=           -145.0277
   XY=             -7.3589   XZ=              0.3602   YZ=              1.0324

 Summary of Natural Population Analysis:

                                       Natural Population
                Natural  -----------------------------------------------
    Atom  No    Charge         Core      Valence    Rydberg      Total
 -----------------------------------------------------------------------
      C    1   -0.24954      1.99894     4.23471    0.01589     6.24954
      C    2   -0.22536      1.99901     4.21023    0.01611     6.22536
      C    3   -0.46851      1.99888     4.44350    0.02613     6.46851
      C    4   -0.22266      1.99899     4.20648    0.01719     6.22266
      C    5   -0.25068      1.99893     4.23574    0.01601     6.25068
      C    6   -0.07732      1.99854     4.05652    0.02226     6.07732
     Cl    7   -0.00798      9.99967     6.98801    0.02031    17.00798
      P    8    1.21214      9.99758     3.74043    0.04985    13.78786
      C    9   -0.37527      1.99891     4.35157    0.02479     6.37527
      C   10   -0.19517      1.99900     4.18020    0.01598     6.19517
      C   11   -0.24007      1.99892     4.22592    0.01523     6.24007
      C   12   -0.01449      1.99855     3.99367    0.02227     6.01449
      C   13   -0.24573      1.99893     4.23142    0.01538     6.24573
      C   14   -0.19039      1.99902     4.17628    0.01509     6.19039
     Cl   15    0.02931      9.99967     6.95176    0.01926    16.97069
      C   16   -0.45119      1.99887     4.42804    0.02428     6.45119
      C   17   -0.20063      1.99901     4.18592    0.01570     6.20063
      C   18   -0.26524      1.99894     4.24968    0.01661     6.26524
      C   19   -0.07782      1.99854     4.05707    0.02221     6.07782
      C   20   -0.23612      1.99893     4.22169    0.01551     6.23612
      C   21   -0.25167      1.99899     4.23512    0.01756     6.25167
     Cl   22   -0.00945      9.99967     6.98950    0.02028    17.00945
      H   23    0.25086      0.00000     0.74805    0.00109     0.74914
      H   24    0.23405      0.00000     0.76503    0.00093     0.76595
      H   25    0.25034      0.00000     0.74815    0.00152     0.74966
      H   26    0.25381      0.00000     0.74514    0.00105     0.74619
      H   27    0.26639      0.00000     0.73243    0.00117     0.73361
      H   28    0.26376      0.00000     0.73519    0.00105     0.73624
      H   29    0.26162      0.00000     0.73733    0.00105     0.73838
      H   30    0.25075      0.00000     0.74807    0.00118     0.74925
      H   31    0.23842      0.00000     0.76049    0.00108     0.76158
      H   32    0.25202      0.00000     0.74695    0.00103     0.74798
      H   33    0.25279      0.00000     0.74616    0.00105     0.74721
      H   34    0.23904      0.00000     0.75961    0.00135     0.76096
 =======================================================================
   * Total *    0.00000     75.97648   109.56606    0.45746   186.00000

 Normal termination of Gaussian 16 at Sun Aug 23 02:57:59 2020.
