 Gaussian 16, Revision A.03,

 ---------------------------------
 # opt=CalcAll B3LYP/6-31G* scf=qc
 ---------------------------------

 -------------------
 Title Card Required
 -------------------
 Symbolic Z-matrix:
 Charge =  0 Multiplicity = 1

 SCF Done:  E(RB3LYP) =  -1333.96966150     a.u. after    7 cycles
 SCF Done:  E(RB3LYP) =  -1333.97103291     a.u. after   17 cycles
 SCF Done:  E(RB3LYP) =  -1333.99331710     a.u. after   17 cycles
 SCF Done:  E(RB3LYP) =  -1333.99623913     a.u. after   19 cycles
 SCF Done:  E(RB3LYP) =  -1333.99774293     a.u. after   19 cycles
 SCF Done:  E(RB3LYP) =  -1333.99787786     a.u. after   17 cycles
 SCF Done:  E(RB3LYP) =  -1333.99846161     a.u. after   11 cycles
 SCF Done:  E(RB3LYP) =  -1333.99855437     a.u. after   11 cycles
 SCF Done:  E(RB3LYP) =  -1333.99844039     a.u. after    7 cycles
 SCF Done:  E(RB3LYP) =  -1333.99889718     a.u. after   15 cycles
 SCF Done:  E(RB3LYP) =  -1333.99898025     a.u. after    7 cycles
 SCF Done:  E(RB3LYP) =  -1333.99897720     a.u. after    5 cycles
 SCF Done:  E(RB3LYP) =  -1333.99898089     a.u. after    2 cycles
 SCF Done:  E(RB3LYP) =  -1333.99897403     a.u. after    2 cycles
 SCF Done:  E(RB3LYP) =  -1333.99897520     a.u. after    3 cycles
 SCF Done:  E(RB3LYP) =  -1333.99897648     a.u. after    2 cycles
 SCF Done:  E(RB3LYP) =  -1333.99897460     a.u. after    2 cycles
 SCF Done:  E(RB3LYP) =  -1333.99897575     a.u. after    2 cycles
 Optimization completed.
    -- Stationary point found.
 Normal termination of Gaussian 16 at Sun Aug 23 16:44:57 2020.

 ----------------------------------------------------------------------
 # freq B3LYP/6-31G* scf=qc volume NMR pop=NPA density=current Geom=All
 Check Guess=Read
 ----------------------------------------------------------------------

 Structure from the checkpoint file:  "phosphine_5_conf52.chk"
 -------------------
 Title Card Required
 -------------------
 Charge =  0 Multiplicity = 1

 SCF Done:  E(RB3LYP) =  -1333.99897575     a.u. after    1 cycles

      1  C    Isotropic =    79.9316   Anisotropy =   137.4241

      2  C    Isotropic =    59.0074   Anisotropy =   162.7784

      3  C    Isotropic =    61.6632   Anisotropy =   173.4737

      4  C    Isotropic =    60.6896   Anisotropy =   171.9369

      5  C    Isotropic =    80.0614   Anisotropy =   136.7302

      6  C    Isotropic =    32.6641   Anisotropy =    98.8312

      7  F    Isotropic =   295.7877   Anisotropy =   113.0795

      8  P    Isotropic =   366.1344   Anisotropy =    39.7497

      9  C    Isotropic =    61.6018   Anisotropy =   173.5248

     10  C    Isotropic =    59.0057   Anisotropy =   162.7426

     11  C    Isotropic =    79.9196   Anisotropy =   137.4263

     12  C    Isotropic =    32.6525   Anisotropy =    98.8406

     13  C    Isotropic =    80.0705   Anisotropy =   136.7173

     14  C    Isotropic =    60.6802   Anisotropy =   171.8947

     15  F    Isotropic =   295.7728   Anisotropy =   113.1038

     16  C    Isotropic =    61.5802   Anisotropy =   173.5415

     17  C    Isotropic =    59.0922   Anisotropy =   162.8206

     18  C    Isotropic =    79.9451   Anisotropy =   137.4519

     19  C    Isotropic =    32.6813   Anisotropy =    98.7847

     20  C    Isotropic =    80.0832   Anisotropy =   136.7474

     21  C    Isotropic =    60.7719   Anisotropy =   171.8416

     22  F    Isotropic =   295.8203   Anisotropy =   112.9103

     23  H    Isotropic =    25.3583   Anisotropy =     4.2560

     24  H    Isotropic =    24.6172   Anisotropy =     8.9162

     25  H    Isotropic =    25.3573   Anisotropy =    12.0166

     26  H    Isotropic =    25.4632   Anisotropy =     5.7380

     27  H    Isotropic =    24.6162   Anisotropy =     8.9136

     28  H    Isotropic =    25.3567   Anisotropy =     4.2611

     29  H    Isotropic =    25.4675   Anisotropy =     5.7331

     30  H    Isotropic =    25.3615   Anisotropy =    12.0020

     31  H    Isotropic =    24.6238   Anisotropy =     8.9333

     32  H    Isotropic =    25.3618   Anisotropy =     4.2548

     33  H    Isotropic =    25.4667   Anisotropy =     5.7395

     34  H    Isotropic =    25.3682   Anisotropy =    12.0386

  Exact polarizability: 226.315  -0.146 225.960  -0.067   0.165 167.784
 Approx polarizability: 338.053  -0.323 337.404  -0.143   0.374 314.996

                      1                      2                      3
                      A                      A                      A
 Frequencies --     23.2526                24.4853                37.4435
 Red. masses --      4.0593                 4.0932                 8.9558
 Frc consts  --      0.0013                 0.0014                 0.0074
 IR Inten    --      0.2495                 0.2561                 0.1020

                      4                      5                      6
                      A                      A                      A
 Frequencies --     37.5356                40.3385                50.6372
 Red. masses --      9.0687                 3.7380                 9.9522
 Frc consts  --      0.0075                 0.0036                 0.0150
 IR Inten    --      0.0914                 0.0052                 0.1145

                      7                      8                      9
                      A                      A                      A
 Frequencies --    132.9882               145.4648               145.8161
 Red. masses --      8.0541                 8.3703                 8.3747
 Frc consts  --      0.0839                 0.1044                 0.1049
 IR Inten    --      0.0235                 0.5215                 0.5141

                     10                     11                     12
                      A                      A                      A
 Frequencies --    209.0245               218.8604               219.5413
 Red. masses --      8.0491                 6.9853                 6.9953
 Frc consts  --      0.2072                 0.1971                 0.1987
 IR Inten    --      0.2899                 0.5288                 0.5288

                     13                     14                     15
                      A                      A                      A
 Frequencies --    307.9427               335.9902               336.1094
 Red. masses --      8.4307                 8.3156                 8.3063
 Frc consts  --      0.4710                 0.5531                 0.5529
 IR Inten    --      1.0312                 0.0452                 0.0430

                     16                     17                     18
                      A                      A                      A
 Frequencies --    397.1479               404.1079               404.1839
 Red. masses --      7.7416                 8.0347                 8.0134
 Frc consts  --      0.7194                 0.7731                 0.7713
 IR Inten    --      0.3037                10.1072                10.1063

                     19                     20                     21
                      A                      A                      A
 Frequencies --    420.6463               420.7578               424.7434
 Red. masses --      3.2848                 3.2764                 3.1354
 Frc consts  --      0.3424                 0.3418                 0.3333
 IR Inten    --      1.1563                 1.0872                 0.0235

                     22                     23                     24
                      A                      A                      A
 Frequencies --    434.9955               435.2496               463.5960
 Red. masses --      6.1430                 6.1524                 6.6457
 Frc consts  --      0.6849                 0.6867                 0.8415
 IR Inten    --     18.8999                19.0685                 7.4016

                     25                     26                     27
                      A                      A                      A
 Frequencies --    533.0043               533.1596               535.5506
 Red. masses --      2.8108                 2.8121                 2.9071
 Frc consts  --      0.4705                 0.4710                 0.4913
 IR Inten    --     21.9031                21.8518                13.4782

                     28                     29                     30
                      A                      A                      A
 Frequencies --    608.0709               630.0004               630.0541
 Red. masses --      7.9090                 7.8311                 7.8281
 Frc consts  --      1.7230                 1.8313                 1.8309
 IR Inten    --      0.0096                 0.0363                 0.0394

                     31                     32                     33
                      A                      A                      A
 Frequencies --    648.2449               648.3804               648.4577
 Red. masses --      7.2770                 7.3789                 7.3813
 Frc consts  --      1.8017                 1.8277                 1.8287
 IR Inten    --      0.0048                 0.1275                 0.1303

                     34                     35                     36
                      A                      A                      A
 Frequencies --    715.1376               715.6498               715.7125
 Red. masses --      4.8098                 4.8251                 4.8301
 Frc consts  --      1.4493                 1.4560                 1.4578
 IR Inten    --      1.0805                 3.9207                 3.9561

                     37                     38                     39
                      A                      A                      A
 Frequencies --    835.7391               835.8302               836.8486
 Red. masses --      1.2629                 1.2623                 1.3269
 Frc consts  --      0.5197                 0.5196                 0.5475
 IR Inten    --      0.5247                 0.4796                11.3185

                     40                     41                     42
                      A                      A                      A
 Frequencies --    839.5388               839.5657               839.8151
 Red. masses --      3.2716                 3.2651                 4.0340
 Frc consts  --      1.3586                 1.3560                 1.6763
 IR Inten    --     62.2415                61.5246                18.1323

                     43                     44                     45
                      A                      A                      A
 Frequencies --    843.6565               843.7889               844.0989
 Red. masses --      2.0033                 1.9737                 1.6727
 Frc consts  --      0.8401                 0.8279                 0.7022
 IR Inten    --      9.9918                10.2526                12.1260

                     46                     47                     48
                      A                      A                      A
 Frequencies --    958.6454               958.7531               959.8635
 Red. masses --      1.2560                 1.2560                 1.2587
 Frc consts  --      0.6801                 0.6802                 0.6833
 IR Inten    --      0.1686                 0.1643                 0.3326

                     49                     50                     51
                      A                      A                      A
 Frequencies --    969.9203               969.9957               973.4944
 Red. masses --      1.3354                 1.3352                 1.3193
 Frc consts  --      0.7402                 0.7402                 0.7367
 IR Inten    --      0.0360                 0.0327                 0.3110

                     52                     53                     54
                      A                      A                      A
 Frequencies --   1034.7161              1034.8052              1035.1827
 Red. masses --      3.0267                 3.0323                 3.0243
 Frc consts  --      1.9092                 1.9131                 1.9095
 IR Inten    --      7.9483                 7.8875                 0.1447

                     55                     56                     57
                      A                      A                      A
 Frequencies --   1102.9147              1103.1375              1108.8162
 Red. masses --      3.6674                 3.6665                 3.5537
 Frc consts  --      2.6284                 2.6288                 2.5743
 IR Inten    --     19.3385                19.1352                 1.8852

                     58                     59                     60
                      A                      A                      A
 Frequencies --   1127.5214              1127.7446              1127.9474
 Red. masses --      1.3304                 1.3303                 1.3292
 Frc consts  --      0.9965                 0.9969                 0.9963
 IR Inten    --      1.0519                 1.5611                 6.4309

                     61                     62                     63
                      A                      A                      A
 Frequencies --   1195.2194              1195.6187              1199.5025
 Red. masses --      1.1836                 1.1855                 1.1805
 Frc consts  --      0.9962                 0.9985                 1.0007
 IR Inten    --     60.6280                61.1531                 2.6301

                     64                     65                     66
                      A                      A                      A
 Frequencies --   1285.3248              1285.4658              1286.2116
 Red. masses --      3.7555                 3.7419                 3.7830
 Frc consts  --      3.6554                 3.6431                 3.6873
 IR Inten    --    167.4366               166.3472                38.6521

                     67                     68                     69
                      A                      A                      A
 Frequencies --   1324.1597              1327.2859              1327.7652
 Red. masses --      2.7430                 2.2241                 2.3253
 Frc consts  --      2.8338                 2.3086                 2.4153
 IR Inten    --      8.8056                 3.8789                 3.8926

                     70                     71                     72
                      A                      A                      A
 Frequencies --   1336.6961              1336.8887              1337.1576
 Red. masses --      2.3265                 2.2257                 1.9382
 Frc consts  --      2.4492                 2.3438                 2.0418
 IR Inten    --      0.3510                 0.3638                 0.8731

                     73                     74                     75
                      A                      A                      A
 Frequencies --   1437.9225              1438.0675              1438.2517
 Red. masses --      2.9858                 2.9926                 2.9877
 Frc consts  --      3.6373                 3.6464                 3.6413
 IR Inten    --      6.8066                 2.7546                 2.5655

                     76                     77                     78
                      A                      A                      A
 Frequencies --   1545.5478              1545.7231              1546.5167
 Red. masses --      2.4084                 2.4049                 2.4443
 Frc consts  --      3.3896                 3.3854                 3.4445
 IR Inten    --    116.2565               116.5089                24.4197

                     79                     80                     81
                      A                      A                      A
 Frequencies --   1633.9193              1633.9787              1633.9917
 Red. masses --      6.9692                 6.9566                 6.9621
 Frc consts  --     10.9621                10.9430                10.9519
 IR Inten    --      9.3245                15.2727                10.1671

                     82                     83                     84
                      A                      A                      A
 Frequencies --   1653.5056              1653.5618              1654.3825
 Red. masses --      5.8090                 5.8062                 5.8791
 Frc consts  --      9.3575                 9.3537                 9.4806
 IR Inten    --     82.8752                82.5949                22.5874

                     85                     86                     87
                      A                      A                      A
 Frequencies --   3188.7642              3188.8828              3188.9358
 Red. masses --      1.0892                 1.0892                 1.0892
 Frc consts  --      6.5254                 6.5258                 6.5258
 IR Inten    --      5.4126                 4.7360                 3.2418

                     88                     89                     90
                      A                      A                      A
 Frequencies --   3205.8566              3205.9341              3206.5497
 Red. masses --      1.0878                 1.0878                 1.0879
 Frc consts  --      6.5868                 6.5871                 6.5902
 IR Inten    --      2.0311                 2.0394                 0.3547

                     91                     92                     93
                      A                      A                      A
 Frequencies --   3221.8761              3221.9749              3222.1691
 Red. masses --      1.0942                 1.0942                 1.0940
 Frc consts  --      6.6922                 6.6924                 6.6923
 IR Inten    --      3.4122                 3.0982                11.4203

                     94                     95                     96
                      A                      A                      A
 Frequencies --   3222.5913              3222.6542              3222.8729
 Red. masses --      1.0937                 1.0936                 1.0939
 Frc consts  --      6.6920                 6.6919                 6.6947
 IR Inten    --     12.2492                12.2505                 0.3548

 - Thermochemistry -
 -------------------
 Temperature   298.150 Kelvin.  Pressure   1.00000 Atm.
 Atom     1 has atomic number  6 and mass  12.00000

 Molecular mass:   316.06287 amu.
 Principal axes and moments of inertia in atomic units:
                           1         2         3
     Eigenvalues --  8312.915058324.36674**********
           X            0.99972  -0.02380  -0.00003
           Y            0.02380   0.99972   0.00004
           Z            0.00002  -0.00004   1.00000
 This molecule is an asymmetric top.
 Rotational symmetry number  1.
 Warning -- assumption of classical behavior for rotation
           may cause significant error
 Rotational temperatures (Kelvin)      0.01042     0.01040     0.00597
 Rotational constants (GHZ):           0.21710     0.21680     0.12430
 Zero-point vibrational energy     655292.5 (Joules/Mol)
                                  156.61866 (Kcal/Mol)
 Warning -- explicit consideration of  28 degrees of freedom as
           vibrations may cause significant error
 Vibrational temperatures:     33.46    35.23    53.87    54.01    58.04
          (Kelvin)             72.86   191.34   209.29   209.80   300.74
                              314.89   315.87   443.06   483.42   483.59
                              571.41   581.42   581.53   605.22   605.38
                              611.11   625.86   626.23   667.01   766.87
                              767.10   770.54   874.88   906.43   906.51
                              932.68   932.87   932.99  1028.92  1029.66
                             1029.75  1202.44  1202.57  1204.04  1207.91
                             1207.95  1208.31  1213.83  1214.02  1214.47
                             1379.28  1379.43  1381.03  1395.50  1395.61
                             1400.64  1488.73  1488.85  1489.40  1586.85
                             1587.17  1595.34  1622.25  1622.57  1622.86
                             1719.65  1720.23  1725.82  1849.30  1849.50
                             1850.57  1905.17  1909.67  1910.36  1923.21
                             1923.48  1923.87  2068.85  2069.06  2069.32
                             2223.70  2223.95  2225.09  2350.85  2350.93
                             2350.95  2379.03  2379.11  2380.29  4587.92
                             4588.09  4588.17  4612.51  4612.62  4613.51
                             4635.56  4635.70  4635.98  4636.59  4636.68
                             4637.00

 Zero-point correction=                           0.249588 (Hartree/Particle)
 Thermal correction to Energy=                    0.268018
 Thermal correction to Enthalpy=                  0.268962
 Thermal correction to Gibbs Free Energy=         0.199502
 Sum of electronic and zero-point Energies=          -1333.749388
 Sum of electronic and thermal Energies=             -1333.730958
 Sum of electronic and thermal Enthalpies=           -1333.730013
 Sum of electronic and thermal Free Energies=        -1333.799474

                     E (Thermal)             CV                S
                      KCal/Mol        Cal/Mol-Kelvin    Cal/Mol-Kelvin
 Total                  168.184             71.394            146.192
 Electronic               0.000              0.000              0.000
 Translational            0.889              2.981             43.148
 Rotational               0.889              2.981             35.262
 Vibrational            166.407             65.432             67.781
 Vibration     1          0.593              1.985              6.335
 Vibration     2          0.593              1.985              6.232
 Vibration     3          0.594              1.982              5.390
 Vibration     4          0.594              1.982              5.385
 Vibration     5          0.594              1.981              5.242
 Vibration     6          0.595              1.977              4.792
 Vibration     7          0.613              1.920              2.902
 Vibration     8          0.617              1.908              2.731
 Vibration     9          0.617              1.907              2.726
 Vibration    10          0.642              1.827              2.052
 Vibration    11          0.647              1.812              1.968
 Vibration    12          0.647              1.811              1.963
 Vibration    13          0.698              1.659              1.373
 Vibration    14          0.717              1.604              1.231
 Vibration    15          0.717              1.603              1.231
 Vibration    16          0.764              1.476              0.973
 Vibration    17          0.769              1.461              0.948
 Vibration    18          0.769              1.461              0.947
 Vibration    19          0.783              1.425              0.890
 Vibration    20          0.783              1.425              0.889
 Vibration    21          0.787              1.416              0.876
 Vibration    22          0.796              1.394              0.842
 Vibration    23          0.796              1.393              0.842
 Vibration    24          0.821              1.331              0.756
 Vibration    25          0.888              1.177              0.581
 Vibration    26          0.888              1.177              0.580
 Vibration    27          0.891              1.171              0.575
 Vibration    28          0.967              1.015              0.436

 Optimization completed.
    -- Stationary point found.
 Normal termination of Gaussian 16 at Sun Aug 23 16:56:32 2020.
 Gaussian 16:  ES64L-G16RevA.03 25-Dec-2016

 ----------------------------------------------------------------------
 # TD(NStates=10, Root=1) B3LYP/6-31G* scf=qc volume pop=NPA density=cu
 rrent Geom=AllCheck Guess=Read
 ----------------------------------------------------------------------

 Structure from the checkpoint file:  "phosphine_5_conf53.chk"
 -------------------
 Title Card Required
 -------------------
 Charge =  0 Multiplicity = 1

                         Standard orientation:
 ---------------------------------------------------------------------
 Center     Atomic      Atomic             Coordinates (Angstroms)
 Number     Number       Type             X           Y           Z
 ---------------------------------------------------------------------
      1          6           0        4.041430   -0.341848    0.700550
      2          6           0        2.750245   -0.428637    1.217929
      3          6           0        1.660811    0.181319    0.571715
      4          6           0        1.905494    0.906716   -0.605168
      5          6           0        3.193682    1.013755   -1.131209
      6          6           0        4.240321    0.382718   -0.469463
      7          9           0        5.487579    0.482277   -0.972856
      8         15           0        0.001038    0.000332    1.374805
      9          6           0       -0.986211    1.346677    0.571504
     10          6           0       -1.005531    2.594624    1.218567
     11          6           0       -1.727052    3.668729    0.700763
     12          6           0       -2.451719    3.478492   -0.470621
     13          6           0       -2.471901    2.257042   -1.133385
     14          6           0       -1.734464    1.195677   -0.606825
     15          9           0       -3.162311    4.508165   -0.974406
     16          6           0       -0.672623   -1.527656    0.572197
     17          6           0       -1.752188   -2.160112    1.213403
     18          6           0       -2.323640   -3.321142    0.695968
     19          6           0       -1.789949   -3.861499   -0.468828
     20          6           0       -0.713550   -3.276820   -1.125287
     21          6           0       -0.161201   -2.108018   -0.599406
     22          9           0       -2.328402   -4.990988   -0.972175
     23          1           0        4.887005   -0.811849    1.192127
     24          1           0        2.587704   -0.976446    2.142933
     25          1           0        1.085385    1.400476   -1.117239
     26          1           0        3.393627    1.575335   -2.038186
     27          1           0       -0.451577    2.727933    2.144582
     28          1           0       -1.745098    4.635631    1.193035
     29          1           0       -3.056465    2.149248   -2.041474
     30          1           0       -1.749633    0.238850   -1.119526
     31          1           0       -2.149951   -1.741064    2.134464
     32          1           0       -3.158607   -3.813648    1.183630
     33          1           0       -0.322945   -3.735081   -2.028267
     34          1           0        0.681466   -1.649548   -1.107637
 ---------------------------------------------------------------------

 SCF Done:  E(RB3LYP) =  -1333.99897575     a.u. after    1 cycles

 Excitation energies and oscillator strengths:

 Excited State   1:      Singlet-A      4.5722 eV  271.17 nm  f=0.1341  <S**2>=0.000
      81 -> 82         0.69331
 This state for optimization and/or second-order correction.
 Total Energy, E(TD-HF/TD-DFT) =  -1333.83095010
 Copying the excited state density for this state as the 1-particle RhoCI density.

 Excited State   2:      Singlet-A      4.5764 eV  270.92 nm  f=0.1356  <S**2>=0.000
      81 -> 83         0.69293

 Excited State   3:      Singlet-A      4.5869 eV  270.30 nm  f=0.0104  <S**2>=0.000
      81 -> 84         0.68811

 Excited State   4:      Singlet-A      4.9049 eV  252.78 nm  f=0.0018  <S**2>=0.000
      81 -> 85         0.67640

 Excited State   5:      Singlet-A      4.9071 eV  252.67 nm  f=0.0016  <S**2>=0.000
      81 -> 86         0.67591

 Excited State   6:      Singlet-A      5.2397 eV  236.62 nm  f=0.0075  <S**2>=0.000
      79 -> 82         0.10617
      80 -> 83         0.10741
      81 -> 87         0.67228

 Excited State   7:      Singlet-A      5.4166 eV  228.90 nm  f=0.0001  <S**2>=0.000
      75 -> 84        -0.14125
      77 -> 82         0.18353
      78 -> 83        -0.15988
      79 -> 82        -0.27729
      79 -> 83        -0.30000
      79 -> 85        -0.15388
      80 -> 82         0.30040
      80 -> 83        -0.27108
      80 -> 86         0.13830

 Excited State   8:      Singlet-A      5.4448 eV  227.71 nm  f=0.0019  <S**2>=0.000
      76 -> 82         0.21150
      77 -> 83        -0.15914
      77 -> 87        -0.12224
      78 -> 82         0.16019
      78 -> 83        -0.10982
      79 -> 84         0.30680
      79 -> 86        -0.14962
      80 -> 84         0.39454
      80 -> 85         0.14975
      81 -> 85         0.12471

 Excited State   9:      Singlet-A      5.4464 eV  227.64 nm  f=0.0021  <S**2>=0.000
      76 -> 83        -0.20732
      77 -> 82         0.14478
      77 -> 83        -0.10219
      78 -> 82         0.10545
      78 -> 83         0.16853
      78 -> 87        -0.12195
      79 -> 84         0.38875
      79 -> 85        -0.14116
      80 -> 84        -0.31651
      80 -> 86        -0.15832
      81 -> 86         0.12565

 Excited State  10:      Singlet-A      5.6621 eV  218.97 nm  f=0.0039  <S**2>=0.000
      75 -> 84         0.16194
      76 -> 84        -0.10178
      77 -> 82        -0.24743
      78 -> 83         0.23134
      79 -> 83        -0.19978
      79 -> 85         0.21644
      79 -> 86         0.10872
      80 -> 82         0.37022
      80 -> 85         0.11266
      80 -> 86        -0.23647

 The electronic state is 1-A.
 Alpha  occ. eigenvalues --  -77.09285 -24.70935 -24.70935 -24.70928 -10.27932
 Alpha  occ. eigenvalues --  -10.27932 -10.27923 -10.20803 -10.20802 -10.20797
 Alpha  occ. eigenvalues --  -10.20703 -10.20702 -10.20695 -10.20479 -10.20478
 Alpha  occ. eigenvalues --  -10.20476 -10.20319 -10.20319 -10.20312 -10.20310
 Alpha  occ. eigenvalues --  -10.20310 -10.20306  -6.55986  -4.72247  -4.72247
 Alpha  occ. eigenvalues --   -4.71743  -1.22114  -1.22114  -1.22106  -0.87207
 Alpha  occ. eigenvalues --   -0.86557  -0.86553  -0.77802  -0.76322  -0.76286
 Alpha  occ. eigenvalues --   -0.76283  -0.74869  -0.74865  -0.65458  -0.63139
 Alpha  occ. eigenvalues --   -0.62959  -0.62957  -0.60999  -0.60996  -0.57074
 Alpha  occ. eigenvalues --   -0.54666  -0.54663  -0.54254  -0.49447  -0.49443
 Alpha  occ. eigenvalues --   -0.49382  -0.48019  -0.48018  -0.46312  -0.46308
 Alpha  occ. eigenvalues --   -0.46295  -0.45865  -0.44921  -0.44919  -0.43857
 Alpha  occ. eigenvalues --   -0.43707  -0.43704  -0.42082  -0.40157  -0.40109
 Alpha  occ. eigenvalues --   -0.40107  -0.37164  -0.37156  -0.36438  -0.34998
 Alpha  occ. eigenvalues --   -0.34996  -0.34951  -0.33924  -0.33921  -0.27229
 Alpha  occ. eigenvalues --   -0.26848  -0.26602  -0.26595  -0.25429  -0.25418
 Alpha  occ. eigenvalues --   -0.21919
 Alpha virt. eigenvalues --   -0.02516  -0.02506  -0.02413  -0.01177  -0.01168
 Alpha virt. eigenvalues --   -0.00310   0.05875   0.05896   0.08466   0.10088
 Alpha virt. eigenvalues --    0.10090   0.12846   0.13529   0.13532   0.14052

 Mulliken charges:
               1
     1  C   -0.182586
     2  C   -0.181746
     3  C   -0.124287
     4  C   -0.164899
     5  C   -0.189403
     6  C    0.348107
     7  F   -0.300929
     8  P    0.435668
     9  C   -0.105888
    10  C   -0.155270
    11  C   -0.200205
    12  C    0.354729
    13  C   -0.178337
    14  C   -0.188380
    15  F   -0.299167
    16  C   -0.078851
    17  C   -0.161238
    18  C   -0.183229
    19  C    0.391207
    20  C   -0.184838
    21  C   -0.151177
    22  F   -0.281744
    23  H    0.139256
    24  H    0.128557
    25  H    0.152239
    26  H    0.143025
    27  H    0.138320
    28  H    0.140283
    29  H    0.142711
    30  H    0.131444
    31  H    0.158720
    32  H    0.162082
    33  H    0.165367
    34  H    0.180462
 Sum of Mulliken charges =  -0.00000

 Dipole moment (field-independent basis, Debye):
    X=             -1.4925    Y=             -3.1076    Z=              1.4591  Tot=              3.7435
 Quadrupole moment (field-independent basis, Debye-Ang):
   XX=           -144.1004   YY=           -134.9393   ZZ=           -121.8239
   XY=              4.8450   XZ=             -0.5157   YZ=              0.8191

 Summary of Natural Population Analysis:

                                       Natural Population
                Natural  -----------------------------------------------
    Atom  No    Charge         Core      Valence    Rydberg      Total
 -----------------------------------------------------------------------
      C    1   -0.29805      1.99900     4.28398    0.01508     6.29805
      C    2   -0.23290      1.99903     4.21736    0.01651     6.23290
      C    3   -0.47983      1.99888     4.45432    0.02663     6.47983
      C    4   -0.22148      1.99900     4.20532    0.01716     6.22148
      C    5   -0.30429      1.99899     4.29002    0.01528     6.30429
      C    6    0.38449      1.99844     3.58912    0.02794     5.61551
      F    7   -0.33612      1.99994     7.33066    0.00552     9.33612
      P    8    1.21017      9.99756     3.74076    0.05151    13.78983
      C    9   -0.44867      1.99887     4.42530    0.02450     6.44867
      C   10   -0.18623      1.99902     4.17183    0.01537     6.18623
      C   11   -0.33205      1.99899     4.31677    0.01629     6.33205
      C   12    0.39732      1.99844     3.57644    0.02780     5.60268
      C   13   -0.28440      1.99899     4.27061    0.01480     6.28440
      C   14   -0.27524      1.99900     4.25751    0.01872     6.27524
      F   15   -0.33438      1.99994     7.32894    0.00550     9.33438
      C   16   -0.38872      1.99891     4.36456    0.02525     6.38872
      C   17   -0.19387      1.99903     4.17957    0.01528     6.19387
      C   18   -0.30148      1.99899     4.28758    0.01491     6.30148
      C   19    0.45537      1.99844     3.51911    0.02708     5.54463
      C   20   -0.29827      1.99898     4.28454    0.01474     6.29827
      C   21   -0.19381      1.99901     4.17875    0.01606     6.19381
      F   22   -0.31908      1.99994     7.31355    0.00560     9.31908
      H   23    0.24745      0.00000     0.75131    0.00124     0.75255
      H   24    0.23160      0.00000     0.76751    0.00089     0.76840
      H   25    0.24788      0.00000     0.75042    0.00170     0.75212
      H   26    0.25009      0.00000     0.74871    0.00120     0.74991
      H   27    0.23778      0.00000     0.76110    0.00112     0.76222
      H   28    0.24887      0.00000     0.74996    0.00117     0.75113
      H   29    0.24953      0.00000     0.74926    0.00121     0.75047
      H   30    0.23713      0.00000     0.76153    0.00134     0.76287
      H   31    0.24788      0.00000     0.75093    0.00119     0.75212
      H   32    0.25858      0.00000     0.74024    0.00118     0.74142
      H   33    0.26060      0.00000     0.73823    0.00117     0.73940
      H   34    0.26414      0.00000     0.73467    0.00119     0.73586
 =======================================================================
   * Total *   -0.00000     51.97740   109.59046    0.43214   162.00000

 Normal termination of Gaussian 16 at Sun Aug 23 17:09:24 2020.
