 Gaussian 16, Revision A.03,

 ---------------------------------
 # opt=CalcAll B3LYP/6-31G* scf=qc
 ---------------------------------

 -------------------
 Title Card Required
 -------------------
 Symbolic Z-matrix:
 Charge =  0 Multiplicity = 1

 SCF Done:  E(RB3LYP) =  -814.891722736     a.u. after    7 cycles
 SCF Done:  E(RB3LYP) =  -814.893645247     a.u. after   13 cycles
 SCF Done:  E(RB3LYP) =  -814.906133874     a.u. after   15 cycles
 SCF Done:  E(RB3LYP) =  -814.908332148     a.u. after   13 cycles
 SCF Done:  E(RB3LYP) =  -814.909140204     a.u. after   15 cycles
 SCF Done:  E(RB3LYP) =  -814.909528260     a.u. after   11 cycles
 SCF Done:  E(RB3LYP) =  -814.909577177     a.u. after    9 cycles
 SCF Done:  E(RB3LYP) =  -814.909594703     a.u. after    6 cycles
 SCF Done:  E(RB3LYP) =  -814.909603691     a.u. after    5 cycles
 SCF Done:  E(RB3LYP) =  -814.909605308     a.u. after    3 cycles
 SCF Done:  E(RB3LYP) =  -814.909605431     a.u. after    2 cycles
 SCF Done:  E(RB3LYP) =  -814.909605457     a.u. after    2 cycles
 Optimization completed on the basis of negligible forces.
    -- Stationary point found.
 Normal termination of Gaussian 16 at Sun Aug 23 08:44:25 2020.

 ----------------------------------------------------------------------
 # freq B3LYP/6-31G* scf=qc volume NMR pop=NPA density=current Geom=All
 Check Guess=Read
 ----------------------------------------------------------------------

 Structure from the checkpoint file:  "phosphine_2_conf202.chk"
 -------------------
 Title Card Required
 -------------------
 Charge =  0 Multiplicity = 1

 SCF Done:  E(RB3LYP) =  -814.909605457     a.u. after    1 cycles

      1  C    Isotropic =   173.6628   Anisotropy =    24.5681

      2  C    Isotropic =   164.4201   Anisotropy =    17.2246

      3  C    Isotropic =   160.2672   Anisotropy =    24.7689

      4  C    Isotropic =   156.6697   Anisotropy =    20.8374

      5  H    Isotropic =    30.6835   Anisotropy =     5.7894

      6  H    Isotropic =    31.0563   Anisotropy =     6.3833

      7  P    Isotropic =   410.8420   Anisotropy =    38.7848

      8  C    Isotropic =   157.5967   Anisotropy =    28.5533

      9  H    Isotropic =    30.3767   Anisotropy =     6.4873

     10  H    Isotropic =    31.2184   Anisotropy =     4.3793

     11  C    Isotropic =   157.9174   Anisotropy =    24.7817

     12  C    Isotropic =   163.8013   Anisotropy =    17.3684

     13  C    Isotropic =   176.2681   Anisotropy =    18.5519

     14  C    Isotropic =   156.0352   Anisotropy =    32.4442

     15  H    Isotropic =    30.8238   Anisotropy =     5.9378

     16  H    Isotropic =    30.4982   Anisotropy =     6.2679

     17  C    Isotropic =   161.1639   Anisotropy =    12.6899

     18  C    Isotropic =   167.9608   Anisotropy =    11.1332

     19  C    Isotropic =   176.4522   Anisotropy =    18.9890

     20  H    Isotropic =    31.0703   Anisotropy =    10.1303

     21  H    Isotropic =    31.3255   Anisotropy =     7.5925

     22  H    Isotropic =    31.2994   Anisotropy =     8.6104

     23  H    Isotropic =    30.1066   Anisotropy =     6.3045

     24  H    Isotropic =    30.9403   Anisotropy =     6.5151

     25  H    Isotropic =    30.5667   Anisotropy =     8.0280

     26  H    Isotropic =    30.7883   Anisotropy =     4.4251

     27  H    Isotropic =    30.5425   Anisotropy =     5.2076

     28  H    Isotropic =    30.4023   Anisotropy =     7.5885

     29  H    Isotropic =    30.4957   Anisotropy =     9.0453

     30  H    Isotropic =    30.7563   Anisotropy =     6.8068

     31  H    Isotropic =    31.4536   Anisotropy =     8.0490

     32  H    Isotropic =    31.1627   Anisotropy =    10.4046

     33  H    Isotropic =    30.9416   Anisotropy =     5.9143

     34  H    Isotropic =    30.5357   Anisotropy =     8.9899

     35  H    Isotropic =    30.3762   Anisotropy =     6.2120

     36  H    Isotropic =    30.8174   Anisotropy =     9.1132

     37  H    Isotropic =    30.1440   Anisotropy =     5.8364

     38  H    Isotropic =    31.5479   Anisotropy =     9.2357

     39  H    Isotropic =    31.1590   Anisotropy =    10.1813

     40  H    Isotropic =    30.9123   Anisotropy =     5.9375

  Exact polarizability: 170.073  -0.826 160.323  -0.279  -1.658 129.469
 Approx polarizability: 214.212   0.295 211.179  -0.507  -4.211 197.077

                      1                      2                      3
                      A                      A                      A
 Frequencies --     21.1880                26.2159                33.5925
 Red. masses --      3.3449                 3.1753                 2.5352
 Frc consts  --      0.0009                 0.0013                 0.0017
 IR Inten    --      0.0048                 0.0115                 0.0016

                      4                      5                      6
                      A                      A                      A
 Frequencies --     49.5369                60.7800                75.1035
 Red. masses --      2.6436                 2.0534                 2.7316
 Frc consts  --      0.0038                 0.0045                 0.0091
 IR Inten    --      0.0088                 0.1041                 0.0575

                      7                      8                      9
                      A                      A                      A
 Frequencies --     80.6474               118.8362               135.0028
 Red. masses --      2.0407                 2.3709                 2.7009
 Frc consts  --      0.0078                 0.0197                 0.0290
 IR Inten    --      0.0589                 0.2782                 0.4885

                     10                     11                     12
                      A                      A                      A
 Frequencies --    141.5157               159.8791               183.8037
 Red. masses --      1.9208                 1.9335                 2.5137
 Frc consts  --      0.0227                 0.0291                 0.0500
 IR Inten    --      0.0260                 0.2697                 0.0894

                     13                     14                     15
                      A                      A                      A
 Frequencies --    224.1014               241.9499               245.7651
 Red. masses --      2.0641                 1.6106                 1.3132
 Frc consts  --      0.0611                 0.0556                 0.0467
 IR Inten    --      0.1074                 0.0701                 0.1105

                     16                     17                     18
                      A                      A                      A
 Frequencies --    255.9158               274.8683               285.5664
 Red. masses --      1.5125                 2.1767                 1.6485
 Frc consts  --      0.0584                 0.0969                 0.0792
 IR Inten    --      0.0436                 0.0348                 0.1713

                     19                     20                     21
                      A                      A                      A
 Frequencies --    325.4362               326.0665               372.0078
 Red. masses --      2.3718                 2.2737                 2.1428
 Frc consts  --      0.1480                 0.1424                 0.1747
 IR Inten    --      0.2337                 0.8162                 0.3243

                     22                     23                     24
                      A                      A                      A
 Frequencies --    428.5959               463.6934               479.9665
 Red. masses --      2.4193                 2.3705                 2.6440
 Frc consts  --      0.2618                 0.3003                 0.3589
 IR Inten    --      1.1002                 0.3447                 0.3786

                     25                     26                     27
                      A                      A                      A
 Frequencies --    629.5453               649.8406               696.4857
 Red. masses --      3.3656                 2.9543                 1.7577
 Frc consts  --      0.7859                 0.7351                 0.5024
 IR Inten    --      7.5705                 7.8828                12.7260

                     28                     29                     30
                      A                      A                      A
 Frequencies --    740.9927               752.6706               761.0029
 Red. masses --      1.6377                 1.2750                 1.2568
 Frc consts  --      0.5298                 0.4256                 0.4288
 IR Inten    --      4.1420                 1.1399                 1.7052

                     31                     32                     33
                      A                      A                      A
 Frequencies --    785.2783               792.9444               811.9166
 Red. masses --      1.3313                 1.6504                 2.0706
 Frc consts  --      0.4837                 0.6114                 0.8042
 IR Inten    --      1.8152                 3.3062                 6.2883

                     34                     35                     36
                      A                      A                      A
 Frequencies --    869.0971               884.5822               889.7365
 Red. masses --      2.3730                 1.5663                 1.3942
 Frc consts  --      1.0560                 0.7221                 0.6503
 IR Inten    --      0.4776                 0.7358                 3.0772

                     37                     38                     39
                      A                      A                      A
 Frequencies --    905.1707               917.3668               935.2920
 Red. masses --      1.3567                 1.5288                 1.5523
 Frc consts  --      0.6549                 0.7580                 0.8000
 IR Inten    --      3.0418                 5.4276                13.4590

                     40                     41                     42
                      A                      A                      A
 Frequencies --    984.4369               986.9847              1015.0010
 Red. masses --      1.9013                 1.9014                 2.7507
 Frc consts  --      1.0856                 1.0913                 1.6697
 IR Inten    --      2.4793                 4.4577                 1.8511

                     43                     44                     45
                      A                      A                      A
 Frequencies --   1054.3273              1067.1702              1074.7321
 Red. masses --      1.4196                 1.7309                 1.4988
 Frc consts  --      0.9298                 1.1614                 1.0200
 IR Inten    --      0.1990                 1.1657                 5.6133

                     46                     47                     48
                      A                      A                      A
 Frequencies --   1079.1633              1086.7389              1094.5297
 Red. masses --      2.1442                 1.6227                 1.3199
 Frc consts  --      1.4713                 1.1291                 0.9316
 IR Inten    --      0.6866                 0.6482                 1.4821

                     49                     50                     51
                      A                      A                      A
 Frequencies --   1108.2662              1123.0664              1125.2898
 Red. masses --      1.7044                 1.8218                 1.7494
 Frc consts  --      1.2334                 1.3538                 1.3052
 IR Inten    --      1.2287                 1.8399                 2.8525

                     52                     53                     54
                      A                      A                      A
 Frequencies --   1207.1698              1226.4083              1230.3168
 Red. masses --      1.3952                 1.4868                 1.4177
 Frc consts  --      1.1979                 1.3176                 1.2644
 IR Inten    --      1.1885                 6.5327                 2.6454

                     55                     56                     57
                      A                      A                      A
 Frequencies --   1249.5782              1253.5094              1269.5304
 Red. masses --      1.4064                 1.4232                 1.3728
 Frc consts  --      1.2938                 1.3176                 1.3036
 IR Inten    --      2.7947                 0.3234                 1.3672

                     58                     59                     60
                      A                      A                      A
 Frequencies --   1315.6227              1316.0432              1325.9866
 Red. masses --      1.2526                 1.2290                 1.2502
 Frc consts  --      1.2774                 1.2542                 1.2951
 IR Inten    --      5.9672                 2.1511                 2.0608

                     61                     62                     63
                      A                      A                      A
 Frequencies --   1336.3793              1342.5853              1344.0149
 Red. masses --      1.1468                 1.1516                 1.2611
 Frc consts  --      1.2067                 1.2230                 1.3422
 IR Inten    --      1.9536                 1.4765                11.5728

                     64                     65                     66
                      A                      A                      A
 Frequencies --   1351.9717              1393.0958              1397.5264
 Red. masses --      1.1351                 1.4410                 1.3244
 Frc consts  --      1.2224                 1.6476                 1.5240
 IR Inten    --      1.1677                 1.1016                14.4795

                     67                     68                     69
                      A                      A                      A
 Frequencies --   1398.5488              1404.1794              1418.0252
 Red. masses --      1.3286                 1.4481                 1.5321
 Frc consts  --      1.5311                 1.6823                 1.8151
 IR Inten    --      6.8170                 4.5747                 3.0479

                     70                     71                     72
                      A                      A                      A
 Frequencies --   1440.7465              1441.7318              1442.6985
 Red. masses --      1.2418                 1.2651                 1.2613
 Frc consts  --      1.5187                 1.5493                 1.5468
 IR Inten    --      0.8820                 9.7589                 2.1344

                     73                     74                     75
                      A                      A                      A
 Frequencies --   1483.6851              1493.9116              1495.6797
 Red. masses --      1.0865                 1.0873                 1.0837
 Frc consts  --      1.4092                 1.4298                 1.4284
 IR Inten    --      0.6656                 3.4373                 6.1486

                     76                     77                     78
                      A                      A                      A
 Frequencies --   1515.3243              1517.1764              1518.2521
 Red. masses --      1.0786                 1.0677                 1.0702
 Frc consts  --      1.4592                 1.4480                 1.4534
 IR Inten    --      3.7542                 2.0499                 0.3788

                     79                     80                     81
                      A                      A                      A
 Frequencies --   1518.8666              1523.4350              1526.2908
 Red. masses --      1.0722                 1.0732                 1.0649
 Frc consts  --      1.4573                 1.4674                 1.4616
 IR Inten    --      0.7214                 1.9444                 1.3105

                     82                     83                     84
                      A                      A                      A
 Frequencies --   1529.9301              1531.8321              1533.7272
 Red. masses --      1.0411                 1.0557                 1.0646
 Frc consts  --      1.4358                 1.4595                 1.4755
 IR Inten    --      5.6877                 3.7194                 6.8954

                     85                     86                     87
                      A                      A                      A
 Frequencies --   1538.6120              1539.2626              1541.3331
 Red. masses --      1.0601                 1.0542                 1.0840
 Frc consts  --      1.4786                 1.4716                 1.5173
 IR Inten    --      6.1267                 2.7331                 4.2299

                     88                     89                     90
                      A                      A                      A
 Frequencies --   3013.0805              3013.6134              3014.8559
 Red. masses --      1.0610                 1.0625                 1.0650
 Frc consts  --      5.6753                 5.6853                 5.7035
 IR Inten    --     23.5982                 5.4469                 9.2220

                     91                     92                     93
                      A                      A                      A
 Frequencies --   3021.8415              3025.3451              3026.0189
 Red. masses --      1.0620                 1.0625                 1.0624
 Frc consts  --      5.7138                 5.7297                 5.7316
 IR Inten    --     10.4193                32.9642                60.4574

                     94                     95                     96
                      A                      A                      A
 Frequencies --   3028.5148              3034.1146              3035.8989
 Red. masses --      1.0690                 1.0645                 1.0650
 Frc consts  --      5.7769                 5.7739                 5.7835
 IR Inten    --     30.8374                21.3325                19.4485

                     97                     98                     99
                      A                      A                      A
 Frequencies --   3039.6329              3041.7569              3043.7352
 Red. masses --      1.0368                 1.0390                 1.0380
 Frc consts  --      5.6438                 5.6641                 5.6657
 IR Inten    --     40.9615                26.1730                23.4005

                    100                    101                    102
                      A                      A                      A
 Frequencies --   3044.5360              3056.4119              3060.1268
 Red. masses --      1.0942                 1.0957                 1.0964
 Frc consts  --      5.9759                 6.0308                 6.0494
 IR Inten    --     30.2200                10.7756                43.0726

                    103                    104                    105
                      A                      A                      A
 Frequencies --   3064.3711              3067.2637              3071.3591
 Red. masses --      1.0973                 1.1013                 1.0994
 Frc consts  --      6.0712                 6.1045                 6.1106
 IR Inten    --      2.6778                11.5021                22.1751

                    106                    107                    108
                      A                      A                      A
 Frequencies --   3074.7879              3077.7528              3085.3322
 Red. masses --      1.1000                 1.0989                 1.1010
 Frc consts  --      6.1271                 6.1331                 6.1753
 IR Inten    --     21.0731                87.5858                43.6839

                    109                    110                    111
                      A                      A                      A
 Frequencies --   3104.8860              3106.3479              3107.7751
 Red. masses --      1.1028                 1.1009                 1.1017
 Frc consts  --      6.2639                 6.2590                 6.2690
 IR Inten    --     68.5404                44.2047                49.0781

                    112                    113                    114
                      A                      A                      A
 Frequencies --   3110.4244              3114.3504              3115.4907
 Red. masses --      1.1015                 1.1017                 1.1019
 Frc consts  --      6.2786                 6.2958                 6.3015
 IR Inten    --     40.6359                46.8452                59.0687

 - Thermochemistry -
 -------------------
 Temperature   298.150 Kelvin.  Pressure   1.00000 Atm.
 Atom     1 has atomic number  6 and mass  12.00000

 Molecular mass:   202.18504 amu.
 Principal axes and moments of inertia in atomic units:
                           1         2         3
     Eigenvalues --  3582.896794325.077107022.69361
           X            0.99984  -0.01805   0.00126
           Y            0.01805   0.99983   0.00211
           Z           -0.00130  -0.00209   1.00000
 This molecule is an asymmetric top.
 Rotational symmetry number  1.
 Warning -- assumption of classical behavior for rotation
           may cause significant error
 Rotational temperatures (Kelvin)      0.02417     0.02003     0.01233
 Rotational constants (GHZ):           0.50371     0.41727     0.25699
 Zero-point vibrational energy     977015.7 (Joules/Mol)
                                  233.51237 (Kcal/Mol)
 Warning -- explicit consideration of  24 degrees of freedom as
           vibrations may cause significant error
 Vibrational temperatures:     30.48    37.72    48.33    71.27    87.45
          (Kelvin)            108.06   116.03   170.98   194.24   203.61
                              230.03   264.45   322.43   348.11   353.60
                              368.21   395.47   410.87   468.23   469.14
                              535.24   616.65   667.15   690.56   905.78
                              934.98  1002.09  1066.12  1082.93  1094.91
                             1129.84  1140.87  1168.17  1250.44  1272.72
                             1280.13  1302.34  1319.89  1345.68  1416.39
                             1420.05  1460.36  1516.94  1535.42  1546.30
                             1552.68  1563.57  1574.78  1594.55  1615.84
                             1619.04  1736.85  1764.53  1770.15  1797.86
                             1803.52  1826.57  1892.89  1893.49  1907.80
                             1922.75  1931.68  1933.74  1945.19  2004.35
                             2010.73  2012.20  2020.30  2040.22  2072.91
                             2074.33  2075.72  2134.69  2149.41  2151.95
                             2180.21  2182.88  2184.43  2185.31  2191.88
                             2195.99  2201.23  2203.96  2206.69  2213.72
                             2214.66  2217.63  4335.15  4335.92  4337.71
                             4347.76  4352.80  4353.77  4357.36  4365.41
                             4367.98  4373.35  4376.41  4379.26  4380.41
                             4397.50  4402.84  4408.95  4413.11  4419.00
                             4423.93  4428.20  4439.10  4467.24  4469.34
                             4471.40  4475.21  4480.86  4482.50

 Zero-point correction=                           0.372126 (Hartree/Particle)
 Thermal correction to Energy=                    0.390689
 Thermal correction to Enthalpy=                  0.391634
 Thermal correction to Gibbs Free Energy=         0.322782
 Sum of electronic and zero-point Energies=           -814.537480
 Sum of electronic and thermal Energies=              -814.518916
 Sum of electronic and thermal Enthalpies=            -814.517972
 Sum of electronic and thermal Free Energies=         -814.586824

                     E (Thermal)             CV                S
                      KCal/Mol        Cal/Mol-Kelvin    Cal/Mol-Kelvin
 Total                  245.161             66.166            144.911
 Electronic               0.000              0.000              0.000
 Translational            0.889              2.981             41.817
 Rotational               0.889              2.981             33.053
 Vibrational            243.384             60.204             70.041
 Vibration     1          0.593              1.985              6.520
 Vibration     2          0.593              1.985              6.097
 Vibration     3          0.594              1.983              5.605
 Vibration     4          0.595              1.978              4.836
 Vibration     5          0.597              1.973              4.432
 Vibration     6          0.599              1.966              4.015
 Vibration     7          0.600              1.962              3.875
 Vibration     8          0.609              1.934              3.119
 Vibration     9          0.613              1.918              2.874
 Vibration    10          0.615              1.912              2.783
 Vibration    11          0.622              1.891              2.551
 Vibration    12          0.631              1.862              2.289
 Vibration    13          0.649              1.804              1.926
 Vibration    14          0.658              1.776              1.788
 Vibration    15          0.660              1.770              1.761
 Vibration    16          0.666              1.753              1.689
 Vibration    17          0.677              1.720              1.565
 Vibration    18          0.683              1.700              1.500
 Vibration    19          0.710              1.625              1.283
 Vibration    20          0.710              1.623              1.280
 Vibration    21          0.744              1.530              1.072
 Vibration    22          0.790              1.408              0.863
 Vibration    23          0.821              1.331              0.755
 Vibration    24          0.836              1.294              0.710

 Optimization completed on the basis of negligible forces.
    -- Stationary point found.
 Normal termination of Gaussian 16 at Sun Aug 23 08:51:41 2020.
 Gaussian 16:  ES64L-G16RevA.03 25-Dec-2016

 ----------------------------------------------------------------------
 # TD(NStates=10, Root=1) B3LYP/6-31G* scf=qc volume pop=NPA density=cu
 rrent Geom=AllCheck Guess=Read
 ----------------------------------------------------------------------

 Structure from the checkpoint file:  "phosphine_2_conf203.chk"
 -------------------
 Title Card Required
 -------------------
 Charge =  0 Multiplicity = 1

                         Standard orientation:
 ---------------------------------------------------------------------
 Center     Atomic      Atomic             Coordinates (Angstroms)
 Number     Number       Type             X           Y           Z
 ---------------------------------------------------------------------
      1          6           0       -4.608848   -1.331508   -0.978259
      2          6           0       -3.187753   -1.613089   -0.480201
      3          6           0       -2.781017   -0.721557    0.701057
      4          6           0       -1.362017   -0.984846    1.236338
      5          1           0       -1.225205   -0.482640    2.204513
      6          1           0       -1.239918   -2.060549    1.423585
      7         15           0        0.026619   -0.473415    0.070613
      8          6           0        0.081690    1.365796    0.470583
      9          1           0       -0.962030    1.704317    0.490073
     10          1           0        0.477633    1.516835    1.486292
     11          6           0        0.873332    2.206958   -0.544536
     12          6           0        0.926575    3.709321   -0.213279
     13          6           0       -0.429950    4.421780   -0.268165
     14          6           0        1.451833   -1.123594    1.116995
     15          1           0        1.353170   -0.733018    2.140051
     16          1           0        1.303548   -2.209236    1.186252
     17          6           0        2.870588   -0.827618    0.595819
     18          6           0        3.202200   -1.377267   -0.802348
     19          6           0        3.140872   -2.905047   -0.910134
     20          1           0       -4.876453   -1.987561   -1.814406
     21          1           0       -4.709855   -0.295176   -1.324044
     22          1           0       -5.348513   -1.487268   -0.182809
     23          1           0       -2.473744   -1.478630   -1.302452
     24          1           0       -3.107813   -2.666808   -0.176009
     25          1           0       -3.497243   -0.871754    1.522191
     26          1           0       -2.883073    0.334414    0.410019
     27          1           0        0.436028    2.069878   -1.543338
     28          1           0        1.901935    1.829719   -0.612696
     29          1           0        1.612418    4.196241   -0.919904
     30          1           0        1.370980    3.844578    0.783385
     31          1           0       -0.896771    4.305117   -1.254368
     32          1           0       -0.317933    5.495460   -0.078590
     33          1           0       -1.129681    4.029541    0.478460
     34          1           0        3.590143   -1.243597    1.316852
     35          1           0        3.040017    0.257257    0.601324
     36          1           0        4.212645   -1.039775   -1.070369
     37          1           0        2.523159   -0.935174   -1.542685
     38          1           0        3.793028   -3.382460   -0.167314
     39          1           0        3.464947   -3.241146   -1.901659
     40          1           0        2.124280   -3.283319   -0.754772
 ---------------------------------------------------------------------

 SCF Done:  E(RB3LYP) =  -814.909605457     a.u. after    1 cycles

 Excitation energies and oscillator strengths:

 Excited State   1:      Singlet-A      6.4506 eV  192.21 nm  f=0.1235  <S**2>=0.000
      57 -> 58         0.69720
 This state for optimization and/or second-order correction.
 Total Energy, E(TD-HF/TD-DFT) =  -814.672551211
 Copying the excited state density for this state as the 1-particle RhoCI density.

 Excited State   2:      Singlet-A      6.5791 eV  188.45 nm  f=0.1338  <S**2>=0.000
      57 -> 59         0.69593

 Excited State   3:      Singlet-A      7.0765 eV  175.21 nm  f=0.0117  <S**2>=0.000
      57 -> 60         0.69883

 Excited State   4:      Singlet-A      7.7021 eV  160.97 nm  f=0.0213  <S**2>=0.000
      57 -> 61         0.64361
      57 -> 62        -0.20736
      57 -> 63         0.11405
      57 -> 64         0.13283

 Excited State   5:      Singlet-A      7.7430 eV  160.12 nm  f=0.0014  <S**2>=0.000
      57 -> 61         0.19434
      57 -> 62         0.66514

 Excited State   6:      Singlet-A      8.0167 eV  154.66 nm  f=0.0173  <S**2>=0.000
      57 -> 61        -0.15482
      57 -> 63         0.62660
      57 -> 64         0.24124

 Excited State   7:      Singlet-A      8.1410 eV  152.30 nm  f=0.0301  <S**2>=0.000
      55 -> 58         0.15125
      57 -> 63        -0.25429
      57 -> 64         0.59702
      57 -> 65         0.16336

 Excited State   8:      Singlet-A      8.2204 eV  150.83 nm  f=0.0011  <S**2>=0.000
      55 -> 58         0.41739
      55 -> 59         0.19606
      56 -> 58        -0.29246
      56 -> 59         0.42091

 Excited State   9:      Singlet-A      8.3473 eV  148.53 nm  f=0.0167  <S**2>=0.000
      55 -> 59         0.19330
      56 -> 58         0.13269
      57 -> 64        -0.16380
      57 -> 65         0.62458

 Excited State  10:      Singlet-A      8.4684 eV  146.41 nm  f=0.0556  <S**2>=0.000
      55 -> 58        -0.16152
      55 -> 59         0.11950
      56 -> 58         0.46453
      56 -> 59         0.42515
      57 -> 64         0.13129
      57 -> 65        -0.10315

 The electronic state is 1-A.
 Alpha  occ. eigenvalues --  -77.06319 -10.18095 -10.18059 -10.18037 -10.18009
 Alpha  occ. eigenvalues --  -10.17948 -10.17882 -10.17857 -10.17430 -10.17352
 Alpha  occ. eigenvalues --  -10.17152 -10.16910 -10.16807  -6.53086  -4.69342
 Alpha  occ. eigenvalues --   -4.69330  -4.68845  -0.79866  -0.78743  -0.78649
 Alpha  occ. eigenvalues --   -0.73986  -0.71388  -0.71142  -0.65864  -0.63389
 Alpha  occ. eigenvalues --   -0.62205  -0.58108  -0.56592  -0.55970  -0.51537
 Alpha  occ. eigenvalues --   -0.46783  -0.45614  -0.45170  -0.44567  -0.43683
 Alpha  occ. eigenvalues --   -0.42421  -0.42055  -0.41260  -0.40205  -0.39106
 Alpha  occ. eigenvalues --   -0.38648  -0.38056  -0.37767  -0.36451  -0.36095
 Alpha  occ. eigenvalues --   -0.34837  -0.33787  -0.33023  -0.32961  -0.32701
 Alpha  occ. eigenvalues --   -0.32149  -0.32074  -0.31757  -0.31686  -0.28922
 Alpha  occ. eigenvalues --   -0.28744  -0.21282
 Alpha virt. eigenvalues --    0.05391   0.05661   0.07821   0.10018   0.10288
 Alpha virt. eigenvalues --    0.11280   0.11416   0.12243   0.13538   0.13974
 Alpha virt. eigenvalues --    0.14359   0.14865   0.14938   0.15272   0.16045

 Mulliken charges:
               1
     1  C   -0.442943
     2  C   -0.244686
     3  C   -0.262656
     4  C   -0.417136
     5  H    0.143376
     6  H    0.142330
     7  P    0.345504
     8  C   -0.423000
     9  H    0.141617
    10  H    0.171826
    11  C   -0.207778
    12  C   -0.252054
    13  C   -0.427648
    14  C   -0.427799
    15  H    0.180508
    16  H    0.165399
    17  C   -0.225297
    18  C   -0.225467
    19  C   -0.448353
    20  H    0.145175
    21  H    0.143403
    22  H    0.141986
    23  H    0.145571
    24  H    0.130245
    25  H    0.139284
    26  H    0.138436
    27  H    0.118294
    28  H    0.102567
    29  H    0.126491
    30  H    0.118830
    31  H    0.134147
    32  H    0.128106
    33  H    0.127019
    34  H    0.106249
    35  H    0.114517
    36  H    0.123444
    37  H    0.113672
    38  H    0.137938
    39  H    0.139604
    40  H    0.139278
 Sum of Mulliken charges =  -0.00000

 Dipole moment (field-independent basis, Debye):
    X=             -1.1302    Y=             -0.8870    Z=              1.3945  Tot=              2.0022
 Quadrupole moment (field-independent basis, Debye-Ang):
   XX=            -97.0860   YY=            -99.1391   ZZ=            -93.5859
   XY=              0.8873   XZ=              1.4945   YZ=             -0.3126

 Summary of Natural Population Analysis:

                                       Natural Population
                Natural  -----------------------------------------------
    Atom  No    Charge         Core      Valence    Rydberg      Total
 -----------------------------------------------------------------------
      C    1   -0.67499      1.99946     4.66783    0.00770     6.67499
      C    2   -0.45501      1.99935     4.44475    0.01091     6.45501
      C    3   -0.46065      1.99933     4.44893    0.01239     6.46065
      C    4   -0.84481      1.99933     4.82243    0.02305     6.84481
      H    5    0.24811      0.00000     0.74683    0.00506     0.75189
      H    6    0.24332      0.00000     0.75376    0.00292     0.75668
      P    7    1.01577      9.99764     3.88558    0.10101    13.98423
      C    8   -0.79712      1.99929     4.77487    0.02295     6.79712
      H    9    0.22264      0.00000     0.76984    0.00752     0.77736
      H   10    0.25928      0.00000     0.73856    0.00216     0.74072
      C   11   -0.46253      1.99931     4.44875    0.01447     6.46253
      C   12   -0.45564      1.99935     4.44499    0.01130     6.45564
      C   13   -0.67666      1.99946     4.66942    0.00777     6.67666
      C   14   -0.75578      1.99930     4.73914    0.01735     6.75578
      H   15    0.27195      0.00000     0.72614    0.00191     0.72805
      H   16    0.24620      0.00000     0.75077    0.00303     0.75380
      C   17   -0.46480      1.99931     4.44946    0.01603     6.46480
      C   18   -0.46109      1.99934     4.44914    0.01261     6.46109
      C   19   -0.67977      1.99946     4.67192    0.00839     6.67977
      H   20    0.23385      0.00000     0.76533    0.00082     0.76615
      H   21    0.22512      0.00000     0.77379    0.00109     0.77488
      H   22    0.22475      0.00000     0.77397    0.00128     0.77525
      H   23    0.22907      0.00000     0.76940    0.00152     0.77093
      H   24    0.22659      0.00000     0.77057    0.00284     0.77341
      H   25    0.23904      0.00000     0.75920    0.00176     0.76096
      H   26    0.22605      0.00000     0.77213    0.00181     0.77395
      H   27    0.22077      0.00000     0.77469    0.00454     0.77923
      H   28    0.20517      0.00000     0.77632    0.01851     0.79483
      H   29    0.22919      0.00000     0.76764    0.00316     0.77081
      H   30    0.21872      0.00000     0.77793    0.00335     0.78128
      H   31    0.22042      0.00000     0.77741    0.00217     0.77958
      H   32    0.22112      0.00000     0.77557    0.00330     0.77888
      H   33    0.21347      0.00000     0.78180    0.00473     0.78653
      H   34    0.21962      0.00000     0.77215    0.00823     0.78038
      H   35    0.21735      0.00000     0.77135    0.01130     0.78265
      H   36    0.23023      0.00000     0.76663    0.00314     0.76977
      H   37    0.20996      0.00000     0.77688    0.01316     0.79004
      H   38    0.22259      0.00000     0.77598    0.00143     0.77741
      H   39    0.22997      0.00000     0.76852    0.00151     0.77003
      H   40    0.21852      0.00000     0.78044    0.00104     0.78148
 =======================================================================
   * Total *    0.00000     33.98993    79.63084    0.37923   114.00000

 Normal termination of Gaussian 16 at Sun Aug 23 09:00:02 2020.
