 Gaussian 16, Revision A.03,

 ---------------------------------
 # opt=CalcAll B3LYP/6-31G* scf=qc
 ---------------------------------

 -------------------
 Title Card Required
 -------------------
 Symbolic Z-matrix:
 Charge =  0 Multiplicity = 1

 SCF Done:  E(RB3LYP) =  -844.558321268     a.u. after    8 cycles
 SCF Done:  E(RB3LYP) =  -844.564196430     a.u. after   15 cycles
 SCF Done:  E(RB3LYP) =  -844.564326056     a.u. after    9 cycles
 SCF Done:  E(RB3LYP) =  -844.564329503     a.u. after    5 cycles
 SCF Done:  E(RB3LYP) =  -844.564329557     a.u. after    2 cycles
 Optimization completed.
    -- Stationary point found.
 Normal termination of Gaussian 16 at Sun Aug 23 10:47:28 2020.

 ----------------------------------------------------------------------
 # freq B3LYP/6-31G* scf=qc volume NMR pop=NPA density=current Geom=All
 Check Guess=Read
 ----------------------------------------------------------------------

 Structure from the checkpoint file:  "phosphine_3_conf212.chk"
 -------------------
 Title Card Required
 -------------------
 Charge =  0 Multiplicity = 1

 SCF Done:  E(RB3LYP) =  -844.564329557     a.u. after    1 cycles

      1  C    Isotropic =   173.0265   Anisotropy =    19.3308

      2  H    Isotropic =    30.7062   Anisotropy =     7.2632

      3  H    Isotropic =    30.7450   Anisotropy =    10.5229

      4  H    Isotropic =    31.0016   Anisotropy =     8.5253

      5  P    Isotropic =   385.0660   Anisotropy =    60.2741

      6  C    Isotropic =    52.7849   Anisotropy =   183.2117

      7  C    Isotropic =    67.9809   Anisotropy =   167.4352

      8  C    Isotropic =    68.8481   Anisotropy =   164.0562

      9  C    Isotropic =    69.4153   Anisotropy =   165.2686

     10  C    Isotropic =    68.8105   Anisotropy =   164.5508

     11  C    Isotropic =    62.6068   Anisotropy =   166.8374

     12  C    Isotropic =    51.8682   Anisotropy =   182.8480

     13  C    Isotropic =    60.5068   Anisotropy =   159.8444

     14  C    Isotropic =    69.1693   Anisotropy =   163.2078

     15  C    Isotropic =    67.5058   Anisotropy =   168.3005

     16  C    Isotropic =    68.2788   Anisotropy =   164.2393

     17  C    Isotropic =    62.8750   Anisotropy =   171.1459

     18  H    Isotropic =    24.8798   Anisotropy =     9.9826

     19  H    Isotropic =    24.9265   Anisotropy =     4.8982

     20  H    Isotropic =    25.0796   Anisotropy =     3.7301

     21  H    Isotropic =    25.0471   Anisotropy =     4.9717

     22  H    Isotropic =    24.9782   Anisotropy =    10.0505

     23  H    Isotropic =    24.4817   Anisotropy =     7.9899

     24  H    Isotropic =    24.9615   Anisotropy =     4.4623

     25  H    Isotropic =    25.0152   Anisotropy =     3.8946

     26  H    Isotropic =    25.0795   Anisotropy =     5.9091

     27  H    Isotropic =    25.1718   Anisotropy =    11.3368

  Exact polarizability: 201.377   1.870 138.269  20.883   1.683 117.904
 Approx polarizability: 285.422   3.914 225.391  48.288   5.104 209.229

                      1                      2                      3
                      A                      A                      A
 Frequencies --     19.6680                29.9422                55.9531
 Red. masses --      3.7898                 3.8332                 5.0663
 Frc consts  --      0.0009                 0.0020                 0.0093
 IR Inten    --      0.2503                 0.0665                 0.0708

                      4                      5                      6
                      A                      A                      A
 Frequencies --    117.5696               178.5293               186.9240
 Red. masses --      3.3696                 3.4613                 3.6208
 Frc consts  --      0.0274                 0.0650                 0.0745
 IR Inten    --      0.5139                 0.7292                 0.2037

                      7                      8                      9
                      A                      A                      A
 Frequencies --    233.3320               246.3653               267.1265
 Red. masses --      1.8290                 1.6585                 3.6705
 Frc consts  --      0.0587                 0.0593                 0.1543
 IR Inten    --      0.4881                 0.3058                 0.1577

                     10                     11                     12
                      A                      A                      A
 Frequencies --    323.1849               396.5639               408.1550
 Red. masses --      4.4971                 5.9072                 3.1696
 Frc consts  --      0.2768                 0.5473                 0.3111
 IR Inten    --      2.2783                 2.7480                 2.8909

                     13                     14                     15
                      A                      A                      A
 Frequencies --    412.6956               419.7855               488.2814
 Red. masses --      3.0650                 6.9746                 3.5146
 Frc consts  --      0.3076                 0.7241                 0.4937
 IR Inten    --      0.6208                 8.2518                10.4600

                     16                     17                     18
                      A                      A                      A
 Frequencies --    515.9331               632.6631               633.0549
 Red. masses --      3.9375                 6.4093                 6.4012
 Frc consts  --      0.6175                 1.5115                 1.5115
 IR Inten    --     12.4182                 0.1767                 0.0922

                     19                     20                     21
                      A                      A                      A
 Frequencies --    674.2384               702.6904               705.0862
 Red. masses --      5.3394                 6.1939                 4.9213
 Frc consts  --      1.4301                 1.8020                 1.4415
 IR Inten    --      8.3404                 0.9802                 3.2610

                     22                     23                     24
                      A                      A                      A
 Frequencies --    712.0464               713.7108               757.4338
 Red. masses --      2.2698                 2.0654                 1.5779
 Frc consts  --      0.6780                 0.6199                 0.5334
 IR Inten    --     20.8432                26.9156                35.5814

                     25                     26                     27
                      A                      A                      A
 Frequencies --    763.0308               861.1792               867.3761
 Red. masses --      1.7188                 1.2514                 1.2452
 Frc consts  --      0.5896                 0.5468                 0.5520
 IR Inten    --     13.6412                 0.1854                 0.0192

                     28                     29                     30
                      A                      A                      A
 Frequencies --    910.2552               919.8507               922.6441
 Red. masses --      1.3086                 1.2937                 1.3544
 Frc consts  --      0.6388                 0.6449                 0.6793
 IR Inten    --     24.9433                28.3950                 1.4317

                     31                     32                     33
                      A                      A                      A
 Frequencies --    936.7019               969.7274               977.1860
 Red. masses --      1.3619                 1.3597                 1.3601
 Frc consts  --      0.7041                 0.7534                 0.7652
 IR Inten    --      4.6283                 0.0627                 0.1022

                     34                     35                     36
                      A                      A                      A
 Frequencies --    996.8336              1001.2375              1015.2363
 Red. masses --      1.2506                 1.2591                 6.2349
 Frc consts  --      0.7322                 0.7437                 3.7863
 IR Inten    --      0.1420                 0.0537                 1.2327

                     37                     38                     39
                      A                      A                      A
 Frequencies --   1015.9825              1052.1465              1054.4477
 Red. masses --      6.2493                 3.2219                 3.1932
 Frc consts  --      3.8006                 2.1014                 2.0918
 IR Inten    --      2.5438                 1.0746                 1.1872

                     40                     41                     42
                      A                      A                      A
 Frequencies --   1106.2718              1112.2017              1113.0506
 Red. masses --      1.7289                 1.7334                 2.4343
 Frc consts  --      1.2466                 1.2633                 1.7769
 IR Inten    --      1.6943                 2.4188                13.3147

                     43                     44                     45
                      A                      A                      A
 Frequencies --   1117.9851              1193.4828              1194.2047
 Red. masses --      2.5286                 1.1026                 1.0987
 Frc consts  --      1.8621                 0.9254                 0.9232
 IR Inten    --      2.1463                 0.0064                 0.0647

                     46                     47                     48
                      A                      A                      A
 Frequencies --   1216.9048              1223.4347              1323.7481
 Red. masses --      1.1444                 1.1502                 3.2576
 Frc consts  --      0.9985                 1.0143                 3.3632
 IR Inten    --      3.9186                 0.6683                 2.3606

                     49                     50                     51
                      A                      A                      A
 Frequencies --   1331.6682              1351.3843              1363.1564
 Red. masses --      3.3533                 1.2958                 1.7088
 Frc consts  --      3.5036                 1.3943                 1.8708
 IR Inten    --      2.8860                 2.1917                 1.4899

                     52                     53                     54
                      A                      A                      A
 Frequencies --   1371.5846              1479.5000              1482.4668
 Red. masses --      1.5139                 2.0991                 2.0753
 Frc consts  --      1.6780                 2.7071                 2.6872
 IR Inten    --      2.1484                12.2385                 5.4983

                     55                     56                     57
                      A                      A                      A
 Frequencies --   1501.1005              1502.2095              1530.8727
 Red. masses --      1.0620                 1.0627                 2.0236
 Frc consts  --      1.4099                 1.4129                 2.7941
 IR Inten    --      4.2180                16.6931                 4.9316

                     58                     59                     60
                      A                      A                      A
 Frequencies --   1534.8444              1630.0400              1632.4695
 Red. masses --      1.9731                 5.0204                 5.1792
 Frc consts  --      2.7387                 7.8592                 8.1321
 IR Inten    --      6.4950                 1.1124                 0.2813

                     61                     62                     63
                      A                      A                      A
 Frequencies --   1646.7298              1649.4831              3049.4821
 Red. masses --      5.3166                 5.2602                 1.0329
 Frc consts  --      8.4943                 8.4324                 5.6592
 IR Inten    --      1.7926                 3.4225                12.5555

                     64                     65                     66
                      A                      A                      A
 Frequencies --   3131.3069              3138.0887              3174.8653
 Red. masses --      1.1045                 1.1020                 1.0855
 Frc consts  --      6.3805                 6.3940                 6.4465
 IR Inten    --     12.2638                 8.6819                 3.7901

                     67                     68                     69
                      A                      A                      A
 Frequencies --   3176.3209              3181.6162              3182.0174
 Red. masses --      1.0847                 1.0871                 1.0872
 Frc consts  --      6.4480                 6.4835                 6.4859
 IR Inten    --      1.4536                 0.5339                 0.2224

                     70                     71                     72
                      A                      A                      A
 Frequencies --   3190.9760              3192.1147              3198.2189
 Red. masses --      1.0907                 1.0916                 1.0939
 Frc consts  --      6.5432                 6.5537                 6.5927
 IR Inten    --      9.6959                21.0458                33.3429

                     73                     74                     75
                      A                      A                      A
 Frequencies --   3203.7125              3207.1118              3210.6101
 Red. masses --      1.0936                 1.0979                 1.0954
 Frc consts  --      6.6135                 6.6536                 6.6527
 IR Inten    --     34.2074                31.3248                18.4742

 - Thermochemistry -
 -------------------
 Temperature   298.150 Kelvin.  Pressure   1.00000 Atm.
 Atom     1 has atomic number  6 and mass  12.00000

 Molecular mass:   200.07549 amu.
 Principal axes and moments of inertia in atomic units:
                           1         2         3
     Eigenvalues --  1569.829714673.426675299.50227
           X            0.99999   0.00071   0.00536
           Y           -0.00047   0.99899  -0.04503
           Z           -0.00538   0.04502   0.99897
 This molecule is an asymmetric top.
 Rotational symmetry number  1.
 Warning -- assumption of classical behavior for rotation
           may cause significant error
 Rotational temperatures (Kelvin)      0.05517     0.01853     0.01634
 Rotational constants (GHZ):           1.14964     0.38617     0.34055
 Zero-point vibrational energy     579830.0 (Joules/Mol)
                                  138.58269 (Kcal/Mol)
 Warning -- explicit consideration of  16 degrees of freedom as
           vibrations may cause significant error
 Vibrational temperatures:     28.30    43.08    80.50   169.16   256.86
          (Kelvin)            268.94   335.71   354.46   384.34   464.99
                              570.57   587.24   593.78   603.98   702.53
                              742.31   910.26   910.82   970.08  1011.01
                             1014.46  1024.48  1026.87  1089.78  1097.83
                             1239.04  1247.96  1309.65  1323.46  1327.48
                             1347.71  1395.22  1405.95  1434.22  1440.56
                             1460.70  1461.77  1513.80  1517.12  1591.68
                             1600.21  1601.43  1608.53  1717.16  1718.19
                             1750.85  1760.25  1904.58  1915.97  1944.34
                             1961.28  1973.40  2128.67  2132.94  2159.75
                             2161.34  2202.58  2208.30  2345.26  2348.76
                             2369.28  2373.24  4387.52  4505.25  4515.01
                             4567.92  4570.02  4577.64  4578.21  4591.10
                             4592.74  4601.52  4609.43  4614.32  4619.35

 Zero-point correction=                           0.220846 (Hartree/Particle)
 Thermal correction to Energy=                    0.233542
 Thermal correction to Enthalpy=                  0.234486
 Thermal correction to Gibbs Free Energy=         0.179770
 Sum of electronic and zero-point Energies=           -844.343484
 Sum of electronic and thermal Energies=              -844.330788
 Sum of electronic and thermal Enthalpies=            -844.329844
 Sum of electronic and thermal Free Energies=         -844.384560

                     E (Thermal)             CV                S
                      KCal/Mol        Cal/Mol-Kelvin    Cal/Mol-Kelvin
 Total                  146.550             49.332            115.159
 Electronic               0.000              0.000              0.000
 Translational            0.889              2.981             41.785
 Rotational               0.889              2.981             32.031
 Vibrational            144.772             43.370             41.344
 Vibration     1          0.593              1.986              6.667
 Vibration     2          0.594              1.984              5.833
 Vibration     3          0.596              1.975              4.595
 Vibration     4          0.608              1.935              3.140
 Vibration     5          0.629              1.869              2.344
 Vibration     6          0.632              1.858              2.258
 Vibration     7          0.654              1.790              1.853
 Vibration     8          0.661              1.769              1.756
 Vibration     9          0.672              1.733              1.615
 Vibration    10          0.708              1.629              1.294
 Vibration    11          0.763              1.477              0.975
 Vibration    12          0.773              1.453              0.933
 Vibration    13          0.776              1.443              0.917
 Vibration    14          0.782              1.427              0.893
 Vibration    15          0.844              1.276              0.688
 Vibration    16          0.871              1.215              0.619

 Optimization completed.
    -- Stationary point found.
 Normal termination of Gaussian 16 at Sun Aug 23 10:53:25 2020.
 Gaussian 16:  ES64L-G16RevA.03 25-Dec-2016

 ----------------------------------------------------------------------
 # TD(NStates=10, Root=1) B3LYP/6-31G* scf=qc volume pop=NPA density=cu
 rrent Geom=AllCheck Guess=Read
 ----------------------------------------------------------------------

 Structure from the checkpoint file:  "phosphine_3_conf213.chk"
 -------------------
 Title Card Required
 -------------------
 Charge =  0 Multiplicity = 1

                         Standard orientation:
 ---------------------------------------------------------------------
 Center     Atomic      Atomic             Coordinates (Angstroms)
 Number     Number       Type             X           Y           Z
 ---------------------------------------------------------------------
      1          6           0        0.056659    2.585667   -0.714434
      2          1           0       -0.004398    2.108931   -1.698758
      3          1           0       -0.766193    3.300091   -0.606393
      4          1           0        0.994840    3.146399   -0.657316
      5         15           0        0.036679    1.369077    0.701649
      6          6           0       -1.434462    0.319097    0.299624
      7          6           0       -2.400268    0.658194   -0.659537
      8          6           0       -3.530410   -0.141678   -0.852569
      9          6           0       -3.712742   -1.296812   -0.093962
     10          6           0       -2.760202   -1.645910    0.867454
     11          6           0       -1.640267   -0.842096    1.066852
     12          6           0        1.438342    0.263194    0.190243
     13          6           0        2.620556    0.317596    0.943078
     14          6           0        3.728650   -0.457798    0.592992
     15          6           0        3.664052   -1.307145   -0.511586
     16          6           0        2.489090   -1.377599   -1.265144
     17          6           0        1.386139   -0.598283   -0.917552
     18          1           0       -2.280459    1.550163   -1.266863
     19          1           0       -4.266015    0.140512   -1.601744
     20          1           0       -4.590613   -1.919122   -0.245911
     21          1           0       -2.893721   -2.543007    1.466664
     22          1           0       -0.911476   -1.120778    1.824787
     23          1           0        2.670722    0.969396    1.812210
     24          1           0        4.637284   -0.402768    1.187085
     25          1           0        4.522543   -1.916119   -0.782850
     26          1           0        2.432671   -2.041694   -2.124096
     27          1           0        0.473812   -0.666728   -1.504309
 ---------------------------------------------------------------------

 SCF Done:  E(RB3LYP) =  -844.564329557     a.u. after    1 cycles

 Excitation energies and oscillator strengths:

 Excited State   1:      Singlet-A      4.6038 eV  269.31 nm  f=0.0435  <S**2>=0.000
      53 -> 54         0.68726
      53 -> 55         0.11729
 This state for optimization and/or second-order correction.
 Total Energy, E(TD-HF/TD-DFT) =  -844.395142555
 Copying the excited state density for this state as the 1-particle RhoCI density.

 Excited State   2:      Singlet-A      4.8956 eV  253.26 nm  f=0.0129  <S**2>=0.000
      51 -> 55         0.10649
      52 -> 54         0.13689
      52 -> 55        -0.11088
      53 -> 55         0.22346
      53 -> 56         0.62637

 Excited State   3:      Singlet-A      5.0081 eV  247.57 nm  f=0.1457  <S**2>=0.000
      53 -> 54        -0.10797
      53 -> 55         0.61733
      53 -> 56        -0.19952
      53 -> 57         0.18814

 Excited State   4:      Singlet-A      5.1446 eV  241.00 nm  f=0.0379  <S**2>=0.000
      50 -> 55         0.12092
      51 -> 54         0.20887
      52 -> 55         0.13460
      52 -> 56        -0.10058
      53 -> 55        -0.16870
      53 -> 56         0.12430
      53 -> 57         0.59544

 Excited State   5:      Singlet-A      5.4215 eV  228.69 nm  f=0.0047  <S**2>=0.000
      50 -> 55         0.19209
      50 -> 56         0.26465
      50 -> 57         0.20857
      51 -> 54         0.36811
      51 -> 55         0.15873
      52 -> 54         0.31133
      52 -> 56        -0.15547
      52 -> 57        -0.12152
      53 -> 56        -0.12022
      53 -> 57        -0.16398

 Excited State   6:      Singlet-A      5.7388 eV  216.05 nm  f=0.0118  <S**2>=0.000
      49 -> 56        -0.20578
      49 -> 57         0.15911
      50 -> 54         0.15958
      51 -> 54        -0.32341
      52 -> 54         0.48522
      53 -> 57         0.18597

 Excited State   7:      Singlet-A      5.8270 eV  212.78 nm  f=0.0124  <S**2>=0.000
      49 -> 56         0.24838
      49 -> 57        -0.18005
      51 -> 54        -0.14226
      51 -> 55        -0.13190
      51 -> 56         0.11220
      52 -> 54         0.18668
      52 -> 55         0.51477
      53 -> 57        -0.14821

 Excited State   8:      Singlet-A      5.8573 eV  211.67 nm  f=0.0220  <S**2>=0.000
      49 -> 54        -0.18070
      49 -> 56        -0.10100
      50 -> 54         0.46208
      50 -> 55        -0.34313
      50 -> 56         0.16433
      51 -> 56        -0.10984
      52 -> 54        -0.14541
      52 -> 56        -0.19506

 Excited State   9:      Singlet-A      5.9281 eV  209.15 nm  f=0.0005  <S**2>=0.000
      50 -> 54        -0.16579
      51 -> 54        -0.20676
      51 -> 55         0.57159
      51 -> 56        -0.12202
      52 -> 55         0.21517
      52 -> 56        -0.13290

 Excited State  10:      Singlet-A      5.9925 eV  206.90 nm  f=0.0264  <S**2>=0.000
      49 -> 54        -0.31157
      50 -> 54         0.20355
      50 -> 55         0.45960
      50 -> 56        -0.17100
      51 -> 54        -0.13396
      51 -> 56        -0.16774
      52 -> 55        -0.12326
      52 -> 56        -0.15000

 The electronic state is 1-A.
 Alpha  occ. eigenvalues --  -77.07968 -10.19393 -10.19299 -10.19192 -10.19094
 Alpha  occ. eigenvalues --  -10.19069 -10.19059 -10.19011 -10.19001 -10.18964
 Alpha  occ. eigenvalues --  -10.18942 -10.18899 -10.18857 -10.18421  -6.54710
 Alpha  occ. eigenvalues --   -4.70976  -4.70963  -4.70460  -0.85270  -0.84774
 Alpha  occ. eigenvalues --   -0.76468  -0.74321  -0.74256  -0.73796  -0.70921
 Alpha  occ. eigenvalues --   -0.62338  -0.60252  -0.59977  -0.59281  -0.55060
 Alpha  occ. eigenvalues --   -0.51448  -0.49651  -0.45409  -0.44650  -0.44597
 Alpha  occ. eigenvalues --   -0.44242  -0.42401  -0.42079  -0.41685  -0.41109
 Alpha  occ. eigenvalues --   -0.38955  -0.37871  -0.36382  -0.36120  -0.34369
 Alpha  occ. eigenvalues --   -0.34239  -0.32560  -0.31576  -0.26446  -0.25181
 Alpha  occ. eigenvalues --   -0.25018  -0.24725  -0.21379
 Alpha virt. eigenvalues --   -0.01529  -0.00807  -0.00420   0.00542   0.06284
 Alpha virt. eigenvalues --    0.07174   0.09234   0.10908   0.12717   0.13595
 Alpha virt. eigenvalues --    0.14141   0.14681   0.15148   0.15528   0.16193

 Mulliken charges:
               1
     1  C   -0.640337
     2  H    0.215656
     3  H    0.161058
     4  H    0.203723
     5  P    0.507408
     6  C   -0.067128
     7  C   -0.159607
     8  C   -0.113007
     9  C   -0.121503
    10  C   -0.115318
    11  C   -0.143116
    12  C   -0.150309
    13  C   -0.175805
    14  C   -0.134766
    15  C   -0.192775
    16  C   -0.109910
    17  C   -0.192322
    18  H    0.148050
    19  H    0.149074
    20  H    0.153114
    21  H    0.152405
    22  H    0.168970
    23  H    0.089967
    24  H    0.093465
    25  H    0.085493
    26  H    0.100167
    27  H    0.087351
 Sum of Mulliken charges =  -0.00000

 Dipole moment (field-independent basis, Debye):
    X=             -7.0079    Y=              2.3414    Z=              0.4359  Tot=              7.4016
 Quadrupole moment (field-independent basis, Debye-Ang):
   XX=            -91.9167   YY=            -83.0669   ZZ=            -86.8674
   XY=              6.4529   XZ=              4.1093   YZ=             -1.5631

 Summary of Natural Population Analysis:

                                       Natural Population
                Natural  -----------------------------------------------
    Atom  No    Charge         Core      Valence    Rydberg      Total
 -----------------------------------------------------------------------
      C    1   -1.03465      1.99946     5.02408    0.01111     7.03465
      H    2    0.27674      0.00000     0.72216    0.00109     0.72326
      H    3    0.23976      0.00000     0.75840    0.00183     0.76024
      H    4    0.27449      0.00000     0.72482    0.00069     0.72551
      P    5    1.25995      9.99755     3.69260    0.04989    13.74005
      C    6   -0.37069      1.99892     4.34853    0.02324     6.37069
      C    7   -0.21163      1.99900     4.19727    0.01535     6.21163
      C    8   -0.22554      1.99910     4.21221    0.01424     6.22554
      C    9   -0.19004      1.99909     4.17688    0.01406     6.19004
      C   10   -0.23274      1.99910     4.21946    0.01417     6.23274
      C   11   -0.18258      1.99902     4.16716    0.01640     6.18258
      C   12   -0.53822      1.99883     4.51448    0.02492     6.53822
      C   13   -0.23972      1.99902     4.22464    0.01606     6.23972
      C   14   -0.26954      1.99910     4.25450    0.01594     6.26954
      C   15   -0.34751      1.99910     4.33061    0.01779     6.34751
      C   16   -0.21948      1.99908     4.20594    0.01445     6.21948
      C   17   -0.30983      1.99898     4.29108    0.01977     6.30983
      H   18    0.24187      0.00000     0.75690    0.00123     0.75813
      H   19    0.24608      0.00000     0.75309    0.00083     0.75392
      H   20    0.24448      0.00000     0.75473    0.00079     0.75552
      H   21    0.24842      0.00000     0.75081    0.00078     0.75158
      H   22    0.25532      0.00000     0.74309    0.00159     0.74468
      H   23    0.21174      0.00000     0.78753    0.00073     0.78826
      H   24    0.22042      0.00000     0.77872    0.00086     0.77958
      H   25    0.21567      0.00000     0.78355    0.00078     0.78433
      H   26    0.22424      0.00000     0.77490    0.00086     0.77576
      H   27    0.21298      0.00000     0.78596    0.00106     0.78702
 =======================================================================
   * Total *   -0.00000     35.98536    69.73412    0.28053   106.00000

 Normal termination of Gaussian 16 at Sun Aug 23 11:00:46 2020.
