 Gaussian 16, Revision A.03,

 ---------------------------------
 # opt=CalcAll B3LYP/6-31G* scf=qc
 ---------------------------------

 -------------------
 Title Card Required
 -------------------
 Symbolic Z-matrix:
 Charge =  0 Multiplicity = 1

 SCF Done:  E(RB3LYP) =  -814.854208086     a.u. after    7 cycles
 SCF Done:  E(RB3LYP) =  -814.861858743     a.u. after   13 cycles
 SCF Done:  E(RB3LYP) =  -814.892774149     a.u. after   13 cycles
 SCF Done:  E(RB3LYP) =  -814.896090533     a.u. after   15 cycles
 SCF Done:  E(RB3LYP) =  -814.903613370     a.u. after   14 cycles
 SCF Done:  E(RB3LYP) =  -814.905691701     a.u. after   11 cycles
 SCF Done:  E(RB3LYP) =  -814.906421075     a.u. after   13 cycles
 SCF Done:  E(RB3LYP) =  -814.906534132     a.u. after   11 cycles
 SCF Done:  E(RB3LYP) =  -814.906556231     a.u. after    9 cycles
 SCF Done:  E(RB3LYP) =  -814.906535175     a.u. after   11 cycles
 SCF Done:  E(RB3LYP) =  -814.906592241     a.u. after    9 cycles
 SCF Done:  E(RB3LYP) =  -814.906592547     a.u. after    2 cycles
 SCF Done:  E(RB3LYP) =  -814.906592659     a.u. after    2 cycles
 SCF Done:  E(RB3LYP) =  -814.906592699     a.u. after    4 cycles
 SCF Done:  E(RB3LYP) =  -814.906592629     a.u. after    2 cycles
 Optimization completed.
    -- Stationary point found.
 Normal termination of Gaussian 16 at Sun Aug 23 08:47:46 2020.

 ----------------------------------------------------------------------
 # freq B3LYP/6-31G* scf=qc volume NMR pop=NPA density=current Geom=All
 Check Guess=Read
 ----------------------------------------------------------------------

 Structure from the checkpoint file:  "phosphine_2_conf182.chk"
 -------------------
 Title Card Required
 -------------------
 Charge =  0 Multiplicity = 1

 SCF Done:  E(RB3LYP) =  -814.906592629     a.u. after    1 cycles

      1  C    Isotropic =   176.4745   Anisotropy =    18.5896

      2  C    Isotropic =   168.0010   Anisotropy =    11.5183

      3  C    Isotropic =   162.4301   Anisotropy =    16.0327

      4  C    Isotropic =   165.6744   Anisotropy =    27.9057

      5  H    Isotropic =    30.6571   Anisotropy =     5.7952

      6  H    Isotropic =    30.4551   Anisotropy =     5.0696

      7  P    Isotropic =   401.4816   Anisotropy =    67.7825

      8  C    Isotropic =   162.2949   Anisotropy =    29.7759

      9  H    Isotropic =    30.8550   Anisotropy =     6.6867

     10  H    Isotropic =    30.6528   Anisotropy =     6.0072

     11  C    Isotropic =   164.7975   Anisotropy =    21.0638

     12  C    Isotropic =   162.2510   Anisotropy =    23.1792

     13  C    Isotropic =   173.7537   Anisotropy =    24.2099

     14  C    Isotropic =   160.8021   Anisotropy =    15.6197

     15  H    Isotropic =    31.0547   Anisotropy =     5.8204

     16  H    Isotropic =    30.3160   Anisotropy =     6.0718

     17  C    Isotropic =   163.2998   Anisotropy =    14.2101

     18  C    Isotropic =   161.8625   Anisotropy =    19.4244

     19  C    Isotropic =   173.8900   Anisotropy =    12.0545

     20  H    Isotropic =    31.1564   Anisotropy =    10.2186

     21  H    Isotropic =    31.5247   Anisotropy =     9.0078

     22  H    Isotropic =    30.8442   Anisotropy =     6.1606

     23  H    Isotropic =    30.8099   Anisotropy =     9.4785

     24  H    Isotropic =    30.1684   Anisotropy =     5.2952

     25  H    Isotropic =    30.5677   Anisotropy =     8.9128

     26  H    Isotropic =    30.4436   Anisotropy =     6.3078

     27  H    Isotropic =    30.8462   Anisotropy =     5.8065

     28  H    Isotropic =    30.7344   Anisotropy =     5.9852

     29  H    Isotropic =    30.8022   Anisotropy =     6.1187

     30  H    Isotropic =    30.7917   Anisotropy =     6.4038

     31  H    Isotropic =    31.2386   Anisotropy =     7.6082

     32  H    Isotropic =    31.0336   Anisotropy =    10.5590

     33  H    Isotropic =    31.2410   Anisotropy =     7.7305

     34  H    Isotropic =    30.9150   Anisotropy =     4.8242

     35  H    Isotropic =    30.3902   Anisotropy =     8.9952

     36  H    Isotropic =    30.5128   Anisotropy =     9.6410

     37  H    Isotropic =    30.7291   Anisotropy =     7.5949

     38  H    Isotropic =    31.3851   Anisotropy =     6.9626

     39  H    Isotropic =    31.2103   Anisotropy =    10.3452

     40  H    Isotropic =    30.6494   Anisotropy =     5.4937

  Exact polarizability: 169.783   1.780 158.297  -1.864  -0.165 129.911
 Approx polarizability: 209.075   1.816 213.852  -6.856   2.092 199.991

                      1                      2                      3
                      A                      A                      A
 Frequencies --     18.5792                23.3833                35.5961
 Red. masses --      2.9081                 3.4743                 2.4890
 Frc consts  --      0.0006                 0.0011                 0.0019
 IR Inten    --      0.0068                 0.0023                 0.0087

                      4                      5                      6
                      A                      A                      A
 Frequencies --     48.7442                55.2517                66.1161
 Red. masses --      1.9799                 2.3762                 2.5715
 Frc consts  --      0.0028                 0.0043                 0.0066
 IR Inten    --      0.0283                 0.0961                 0.0207

                      7                      8                      9
                      A                      A                      A
 Frequencies --     95.5569               105.8282               120.6866
 Red. masses --      2.3970                 2.7327                 2.5192
 Frc consts  --      0.0129                 0.0180                 0.0216
 IR Inten    --      0.0242                 0.0766                 0.0038

                     10                     11                     12
                      A                      A                      A
 Frequencies --    142.3838               166.8665               190.5039
 Red. masses --      1.9454                 2.1688                 2.0076
 Frc consts  --      0.0232                 0.0356                 0.0429
 IR Inten    --      0.3938                 0.1058                 0.1020

                     13                     14                     15
                      A                      A                      A
 Frequencies --    214.9363               235.2961               247.1023
 Red. masses --      2.4656                 1.3000                 1.2050
 Frc consts  --      0.0671                 0.0424                 0.0434
 IR Inten    --      0.0576                 0.1064                 0.0611

                     16                     17                     18
                      A                      A                      A
 Frequencies --    258.1099               274.2254               296.6004
 Red. masses --      1.4580                 3.0759                 1.9980
 Frc consts  --      0.0572                 0.1363                 0.1036
 IR Inten    --      0.1306                 0.1871                 0.4503

                     19                     20                     21
                      A                      A                      A
 Frequencies --    311.3510               355.0687               379.8058
 Red. masses --      1.7431                 2.6151                 2.6965
 Frc consts  --      0.0996                 0.1942                 0.2292
 IR Inten    --      0.0396                 0.4123                 0.6571

                     22                     23                     24
                      A                      A                      A
 Frequencies --    411.4399               457.0075               468.2264
 Red. masses --      2.5583                 1.8421                 2.4636
 Frc consts  --      0.2552                 0.2267                 0.3182
 IR Inten    --      0.5393                 0.7208                 1.0008

                     25                     26                     27
                      A                      A                      A
 Frequencies --    616.9922               647.2716               709.2936
 Red. masses --      3.1270                 3.0373                 3.5394
 Frc consts  --      0.7014                 0.7497                 1.0491
 IR Inten    --      2.8225                 7.6346                 6.5115

                     28                     29                     30
                      A                      A                      A
 Frequencies --    717.8184               748.5169               769.0186
 Red. masses --      1.3013                 1.2897                 1.2084
 Frc consts  --      0.3951                 0.4257                 0.4211
 IR Inten    --     14.9597                 3.8739                 0.9082

                     31                     32                     33
                      A                      A                      A
 Frequencies --    780.1105               788.0379               806.7822
 Red. masses --      1.2468                 1.7051                 2.3055
 Frc consts  --      0.4470                 0.6239                 0.8842
 IR Inten    --      0.7993                 3.3069                 3.9852

                     34                     35                     36
                      A                      A                      A
 Frequencies --    873.2768               889.1908               895.8910
 Red. masses --      1.7821                 1.7638                 1.3078
 Frc consts  --      0.8007                 0.8216                 0.6185
 IR Inten    --      1.2295                 5.0274                 0.3851

                     37                     38                     39
                      A                      A                      A
 Frequencies --    907.3920               913.2070               928.2493
 Red. masses --      1.6227                 1.5205                 1.4784
 Frc consts  --      0.7872                 0.7471                 0.7505
 IR Inten    --      2.7663                 1.2201                11.7457

                     40                     41                     42
                      A                      A                      A
 Frequencies --    984.1279               984.8982              1021.2465
 Red. masses --      2.2138                 1.8200                 3.6516
 Frc consts  --      1.2633                 1.0402                 2.2439
 IR Inten    --      1.8323                 4.3163                 3.2838

                     43                     44                     45
                      A                      A                      A
 Frequencies --   1057.7577              1062.8657              1075.3271
 Red. masses --      1.4358                 2.4438                 1.3891
 Frc consts  --      0.9465                 1.6265                 0.9464
 IR Inten    --      0.5582                 0.8478                 4.5560

                     46                     47                     48
                      A                      A                      A
 Frequencies --   1081.1424              1094.3817              1105.6159
 Red. masses --      1.7027                 1.4843                 1.4164
 Frc consts  --      1.1726                 1.0474                 1.0201
 IR Inten    --      1.8648                 1.3553                 0.6910

                     49                     50                     51
                      A                      A                      A
 Frequencies --   1110.7502              1118.2493              1123.3930
 Red. masses --      1.6661                 1.8375                 1.9542
 Frc consts  --      1.2111                 1.3538                 1.4530
 IR Inten    --      2.5623                 2.7756                14.1894

                     52                     53                     54
                      A                      A                      A
 Frequencies --   1203.2597              1228.0143              1246.5389
 Red. masses --      1.3949                 1.4094                 1.3493
 Frc consts  --      1.1899                 1.2522                 1.2353
 IR Inten    --      3.2572                 0.0989                 6.6770

                     55                     56                     57
                      A                      A                      A
 Frequencies --   1251.8975              1259.6884              1263.1226
 Red. masses --      1.4326                 1.3107                 1.3466
 Frc consts  --      1.3229                 1.2254                 1.2658
 IR Inten    --      0.1639                 1.8576                 0.4924

                     58                     59                     60
                      A                      A                      A
 Frequencies --   1313.6159              1320.5318              1325.9052
 Red. masses --      1.2392                 1.2749                 1.1872
 Frc consts  --      1.2599                 1.3099                 1.2297
 IR Inten    --      1.8120                 2.8550                 2.0506

                     61                     62                     63
                      A                      A                      A
 Frequencies --   1334.8284              1338.9840              1351.0984
 Red. masses --      1.1692                 1.1579                 1.0769
 Frc consts  --      1.2274                 1.2231                 1.1582
 IR Inten    --      0.5768                 1.7849                 0.1375

                     64                     65                     66
                      A                      A                      A
 Frequencies --   1352.8485              1394.8684              1397.1619
 Red. masses --      1.3332                 1.3543                 1.3165
 Frc consts  --      1.4377                 1.5525                 1.5141
 IR Inten    --      2.2758                 7.1892                11.3511

                     67                     68                     69
                      A                      A                      A
 Frequencies --   1402.1813              1403.9135              1408.5773
 Red. masses --      1.4053                 1.4495                 1.4897
 Frc consts  --      1.6279                 1.6832                 1.7415
 IR Inten    --      6.9205                 4.3797                 2.1990

                     70                     71                     72
                      A                      A                      A
 Frequencies --   1440.5098              1441.7502              1447.2202
 Red. masses --      1.2421                 1.2646                 1.2557
 Frc consts  --      1.5186                 1.5488                 1.5496
 IR Inten    --      1.6052                 6.0417                 5.5114

                     73                     74                     75
                      A                      A                      A
 Frequencies --   1489.3371              1492.9543              1498.2565
 Red. masses --      1.0843                 1.0849                 1.0825
 Frc consts  --      1.4171                 1.4248                 1.4317
 IR Inten    --      3.4901                 3.3812                 9.0723

                     76                     77                     78
                      A                      A                      A
 Frequencies --   1515.4013              1515.5453              1517.0550
 Red. masses --      1.0606                 1.0679                 1.0679
 Frc consts  --      1.4350                 1.4451                 1.4480
 IR Inten    --      2.2591                 1.0104                 4.0075

                     79                     80                     81
                      A                      A                      A
 Frequencies --   1519.3765              1521.4970              1526.0123
 Red. masses --      1.0720                 1.0767                 1.0694
 Frc consts  --      1.4581                 1.4685                 1.4673
 IR Inten    --      1.5650                 0.5675                 0.0503

                     82                     83                     84
                      A                      A                      A
 Frequencies --   1529.8506              1530.1225              1532.4441
 Red. masses --      1.0411                 1.0465                 1.0634
 Frc consts  --      1.4356                 1.4436                 1.4714
 IR Inten    --      7.0759                10.7664                 4.1232

                     85                     86                     87
                      A                      A                      A
 Frequencies --   1533.1411              1539.3559              1540.2417
 Red. masses --      1.0796                 1.0543                 1.0825
 Frc consts  --      1.4951                 1.4720                 1.5131
 IR Inten    --     10.7046                 4.6040                 3.4655

                     88                     89                     90
                      A                      A                      A
 Frequencies --   3016.2768              3019.5065              3020.8528
 Red. masses --      1.0632                 1.0610                 1.0652
 Frc consts  --      5.6991                 5.6996                 5.7272
 IR Inten    --     27.3984                24.5075                17.9062

                     91                     92                     93
                      A                      A                      A
 Frequencies --   3023.6146              3025.0491              3027.4850
 Red. masses --      1.0593                 1.0606                 1.0608
 Frc consts  --      5.7057                 5.7181                 5.7288
 IR Inten    --     11.1918                10.9084                11.6213

                     94                     95                     96
                      A                      A                      A
 Frequencies --   3033.0828              3036.5132              3039.3735
 Red. masses --      1.0635                 1.0603                 1.0508
 Frc consts  --      5.7644                 5.7604                 5.7191
 IR Inten    --     17.0717                34.5186                 2.9674

                     97                     98                     99
                      A                      A                      A
 Frequencies --   3041.6601              3043.2016              3045.8931
 Red. masses --      1.0396                 1.0476                 1.0423
 Frc consts  --      5.6670                 5.7161                 5.6972
 IR Inten    --     41.9781                43.7159                26.4734

                    100                    101                    102
                      A                      A                      A
 Frequencies --   3048.3104              3053.0502              3053.7466
 Red. masses --      1.0996                 1.0967                 1.0922
 Frc consts  --      6.0201                 6.0231                 6.0007
 IR Inten    --      2.2941                47.1825                35.0189

                    103                    104                    105
                      A                      A                      A
 Frequencies --   3059.6018              3060.1078              3072.5301
 Red. masses --      1.1013                 1.1018                 1.1023
 Frc consts  --      6.0741                 6.0787                 6.1312
 IR Inten    --     49.9011                 6.5604                27.4124

                    106                    107                    108
                      A                      A                      A
 Frequencies --   3073.4592              3080.0135              3083.9495
 Red. masses --      1.0994                 1.1015                 1.1034
 Frc consts  --      6.1188                 6.1568                 6.1827
 IR Inten    --     27.6501                65.4545                25.6972

                    109                    110                    111
                      A                      A                      A
 Frequencies --   3106.1020              3106.2778              3106.5556
 Red. masses --      1.1023                 1.1026                 1.1011
 Frc consts  --      6.2656                 6.2685                 6.2611
 IR Inten    --     18.5820               133.9925                19.0783

                    112                    113                    114
                      A                      A                      A
 Frequencies --   3110.6472              3115.4028              3127.7899
 Red. masses --      1.1018                 1.1018                 1.1005
 Frc consts  --      6.2816                 6.3004                 6.3431
 IR Inten    --     45.1212                54.4819                41.3355

 - Thermochemistry -
 -------------------
 Temperature   298.150 Kelvin.  Pressure   1.00000 Atm.
 Atom     1 has atomic number  6 and mass  12.00000

 Molecular mass:   202.18504 amu.
 Principal axes and moments of inertia in atomic units:
                           1         2         3
     Eigenvalues --  3106.390474638.889396926.47620
           X            0.99997  -0.00795   0.00252
           Y            0.00794   0.99997   0.00146
           Z           -0.00253  -0.00144   1.00000
 This molecule is an asymmetric top.
 Rotational symmetry number  1.
 Warning -- assumption of classical behavior for rotation
           may cause significant error
 Rotational temperatures (Kelvin)      0.02788     0.01867     0.01250
 Rotational constants (GHZ):           0.58098     0.38905     0.26056
 Zero-point vibrational energy     977029.8 (Joules/Mol)
                                  233.51573 (Kcal/Mol)
 Warning -- explicit consideration of  25 degrees of freedom as
           vibrations may cause significant error
 Vibrational temperatures:     26.73    33.64    51.21    70.13    79.49
          (Kelvin)             95.13   137.49   152.26   173.64   204.86
                              240.08   274.09   309.25   338.54   355.53
                              371.36   394.55   426.74   447.96   510.86
                              546.46   591.97   657.53   673.67   887.71
                              931.28  1020.52  1032.78  1076.95  1106.45
                             1122.40  1133.81  1160.78  1256.45  1279.35
                             1288.99  1305.53  1313.90  1335.54  1415.94
                             1417.05  1469.35  1521.88  1529.23  1547.16
                             1555.52  1574.57  1590.73  1598.12  1608.91
                             1616.31  1731.22  1766.84  1793.49  1801.20
                             1812.41  1817.35  1890.00  1899.95  1907.68
                             1920.52  1926.50  1943.93  1946.45  2006.90
                             2010.20  2017.43  2019.92  2026.63  2072.57
                             2074.36  2082.23  2142.82  2148.03  2155.66
                             2180.32  2180.53  2182.70  2186.04  2189.09
                             2195.59  2201.11  2201.50  2204.85  2205.85
                             2214.79  2216.06  4339.75  4344.40  4346.33
                             4350.31  4352.37  4355.88  4363.93  4368.87
                             4372.98  4376.27  4378.49  4382.36  4385.84
                             4392.66  4393.66  4402.08  4402.81  4420.69
                             4422.02  4431.45  4437.12  4468.99  4469.24
                             4469.64  4475.53  4482.37  4500.19

 Zero-point correction=                           0.372131 (Hartree/Particle)
 Thermal correction to Energy=                    0.390752
 Thermal correction to Enthalpy=                  0.391696
 Thermal correction to Gibbs Free Energy=         0.322467
 Sum of electronic and zero-point Energies=           -814.534462
 Sum of electronic and thermal Energies=              -814.515840
 Sum of electronic and thermal Enthalpies=            -814.514896
 Sum of electronic and thermal Free Energies=         -814.584125

                     E (Thermal)             CV                S
                      KCal/Mol        Cal/Mol-Kelvin    Cal/Mol-Kelvin
 Total                  245.201             66.231            145.705
 Electronic               0.000              0.000              0.000
 Translational            0.889              2.981             41.817
 Rotational               0.889              2.981             32.967
 Vibrational            243.423             60.269             70.921
 Vibration     1          0.593              1.986              6.781
 Vibration     2          0.593              1.985              6.324
 Vibration     3          0.594              1.982              5.490
 Vibration     4          0.595              1.978              4.868
 Vibration     5          0.596              1.975              4.620
 Vibration     6          0.598              1.970              4.266
 Vibration     7          0.603              1.952              3.543
 Vibration     8          0.605              1.945              3.344
 Vibration     9          0.609              1.932              3.089
 Vibration    10          0.616              1.911              2.772
 Vibration    11          0.624              1.883              2.470
 Vibration    12          0.634              1.853              2.223
 Vibration    13          0.645              1.818              2.001
 Vibration    14          0.655              1.787              1.838
 Vibration    15          0.661              1.768              1.751
 Vibration    16          0.667              1.749              1.675
 Vibration    17          0.677              1.721              1.569
 Vibration    18          0.690              1.680              1.436
 Vibration    19          0.700              1.652              1.355
 Vibration    20          0.731              1.565              1.144
 Vibration    21          0.750              1.513              1.040
 Vibration    22          0.775              1.445              0.922
 Vibration    23          0.815              1.345              0.775
 Vibration    24          0.825              1.321              0.743
 Vibration    25          0.977              0.996              0.421

 Optimization completed.
    -- Stationary point found.
 Normal termination of Gaussian 16 at Sun Aug 23 08:55:13 2020.
 Gaussian 16:  ES64L-G16RevA.03 25-Dec-2016

 ----------------------------------------------------------------------
 # TD(NStates=10, Root=1) B3LYP/6-31G* scf=qc volume pop=NPA density=cu
 rrent Geom=AllCheck Guess=Read
 ----------------------------------------------------------------------

 Structure from the checkpoint file:  "phosphine_2_conf183.chk"
 -------------------
 Title Card Required
 -------------------
 Charge =  0 Multiplicity = 1

                         Standard orientation:
 ---------------------------------------------------------------------
 Center     Atomic      Atomic             Coordinates (Angstroms)
 Number     Number       Type             X           Y           Z
 ---------------------------------------------------------------------
      1          6           0       -2.459782    3.407098    0.127420
      2          6           0       -1.077233    3.252178   -0.516071
      3          6           0       -0.009164    2.653156    0.416079
      4          6           0       -0.273285    1.217435    0.908586
      5          1           0        0.491329    0.937927    1.645400
      6          1           0       -1.233957    1.176725    1.437760
      7         15           0       -0.365883   -0.081984   -0.449786
      8          6           0        1.432778   -0.210668   -0.992261
      9          1           0        1.457754   -1.035318   -1.718890
     10          1           0        1.637647    0.695790   -1.578778
     11          6           0        2.540338   -0.410389    0.052710
     12          6           0        3.938685   -0.510382   -0.576652
     13          6           0        5.052201   -0.705895    0.457564
     14          6           0       -0.524546   -1.617525    0.627404
     15          1           0       -0.165697   -2.470056    0.033897
     16          1           0        0.157479   -1.529613    1.482687
     17          6           0       -1.955850   -1.910862    1.138378
     18          6           0       -2.812744   -2.816877    0.236557
     19          6           0       -3.218670   -2.220288   -1.115379
     20          1           0       -3.154489    3.911912   -0.553530
     21          1           0       -2.405189    4.001939    1.048387
     22          1           0       -2.901674    2.437228    0.382067
     23          1           0       -0.725121    4.238355   -0.848008
     24          1           0       -1.165602    2.636078   -1.419925
     25          1           0        0.093151    3.304274    1.296993
     26          1           0        0.963985    2.687177   -0.093246
     27          1           0        2.347491   -1.320661    0.636276
     28          1           0        2.534359    0.420920    0.770697
     29          1           0        4.137155    0.398370   -1.162509
     30          1           0        3.953549   -1.343127   -1.294076
     31          1           0        5.084893    0.129393    1.168016
     32          1           0        6.035724   -0.773821   -0.021341
     33          1           0        4.899433   -1.625450    1.036015
     34          1           0       -2.496323   -0.971162    1.324047
     35          1           0       -1.872947   -2.400501    2.118050
     36          1           0       -3.722318   -3.085072    0.791788
     37          1           0       -2.271913   -3.760528    0.072361
     38          1           0       -3.773466   -1.283536   -0.983182
     39          1           0       -3.862163   -2.915959   -1.667362
     40          1           0       -2.351220   -1.993399   -1.742817
 ---------------------------------------------------------------------

 SCF Done:  E(RB3LYP) =  -814.906592629     a.u. after    1 cycles

 Excitation energies and oscillator strengths:

 Excited State   1:      Singlet-A      6.4173 eV  193.20 nm  f=0.0979  <S**2>=0.000
      57 -> 58         0.69535
 This state for optimization and/or second-order correction.
 Total Energy, E(TD-HF/TD-DFT) =  -814.670759398
 Copying the excited state density for this state as the 1-particle RhoCI density.

 Excited State   2:      Singlet-A      6.6034 eV  187.76 nm  f=0.1126  <S**2>=0.000
      57 -> 59         0.69642

 Excited State   3:      Singlet-A      6.9010 eV  179.66 nm  f=0.0280  <S**2>=0.000
      57 -> 60         0.69703

 Excited State   4:      Singlet-A      7.4888 eV  165.56 nm  f=0.0090  <S**2>=0.000
      57 -> 61         0.68003
      57 -> 63         0.10108
      57 -> 64        -0.12317

 Excited State   5:      Singlet-A      7.7442 eV  160.10 nm  f=0.0061  <S**2>=0.000
      57 -> 62         0.53258
      57 -> 63         0.42015

 Excited State   6:      Singlet-A      7.7735 eV  159.50 nm  f=0.0182  <S**2>=0.000
      57 -> 62        -0.44434
      57 -> 63         0.52136
      57 -> 64         0.10479

 Excited State   7:      Singlet-A      7.9774 eV  155.42 nm  f=0.0359  <S**2>=0.000
      57 -> 61         0.12997
      57 -> 63        -0.10421
      57 -> 64         0.65779
      57 -> 65        -0.13496

 Excited State   8:      Singlet-A      8.2279 eV  150.69 nm  f=0.0427  <S**2>=0.000
      57 -> 63        -0.14204
      57 -> 65         0.65937
      57 -> 67         0.13397

 Excited State   9:      Singlet-A      8.3321 eV  148.80 nm  f=0.0052  <S**2>=0.000
      55 -> 58         0.49999
      56 -> 58        -0.25554
      56 -> 59         0.37887
      57 -> 66        -0.14799

 Excited State  10:      Singlet-A      8.3488 eV  148.50 nm  f=0.0154  <S**2>=0.000
      56 -> 58        -0.13397
      56 -> 59         0.15072
      57 -> 66         0.64537
      57 -> 68        -0.11035

 The electronic state is 1-A.
 Alpha  occ. eigenvalues --  -77.06228 -10.18092 -10.18074 -10.18068 -10.18044
 Alpha  occ. eigenvalues --  -10.18018 -10.18005 -10.17867 -10.17590 -10.17398
 Alpha  occ. eigenvalues --  -10.17332 -10.16802 -10.16273  -6.52990  -4.69253
 Alpha  occ. eigenvalues --   -4.69235  -4.68735  -0.79905  -0.78775  -0.78517
 Alpha  occ. eigenvalues --   -0.73920  -0.71379  -0.71014  -0.65656  -0.63191
 Alpha  occ. eigenvalues --   -0.62697  -0.58047  -0.56977  -0.56202  -0.50934
 Alpha  occ. eigenvalues --   -0.47182  -0.45663  -0.45230  -0.44696  -0.43433
 Alpha  occ. eigenvalues --   -0.42329  -0.41885  -0.41136  -0.39866  -0.39075
 Alpha  occ. eigenvalues --   -0.38352  -0.38075  -0.37907  -0.36382  -0.35409
 Alpha  occ. eigenvalues --   -0.35041  -0.34008  -0.33537  -0.33074  -0.32611
 Alpha  occ. eigenvalues --   -0.32339  -0.32035  -0.31930  -0.31460  -0.29029
 Alpha  occ. eigenvalues --   -0.28687  -0.20883
 Alpha virt. eigenvalues --    0.05683   0.06157   0.07608   0.09508   0.10816
 Alpha virt. eigenvalues --    0.10922   0.11481   0.12183   0.12620   0.13464
 Alpha virt. eigenvalues --    0.14349   0.14666   0.14957   0.16226   0.16269

 Mulliken charges:
               1
     1  C   -0.446887
     2  C   -0.238094
     3  C   -0.242288
     4  C   -0.428221
     5  H    0.183230
     6  H    0.192981
     7  P    0.313406
     8  C   -0.387988
     9  H    0.133061
    10  H    0.135227
    11  C   -0.265001
    12  C   -0.242187
    13  C   -0.444219
    14  C   -0.427851
    15  H    0.149675
    16  H    0.160416
    17  C   -0.205732
    18  C   -0.239614
    19  C   -0.433759
    20  H    0.142546
    21  H    0.137239
    22  H    0.141446
    23  H    0.128627
    24  H    0.125850
    25  H    0.114721
    26  H    0.117468
    27  H    0.139776
    28  H    0.137477
    29  H    0.135703
    30  H    0.134213
    31  H    0.143186
    32  H    0.146807
    33  H    0.143209
    34  H    0.085803
    35  H    0.101199
    36  H    0.125655
    37  H    0.119128
    38  H    0.138512
    39  H    0.131802
    40  H    0.143476
 Sum of Mulliken charges =  -0.00000

 Dipole moment (field-independent basis, Debye):
    X=              1.7548    Y=             -0.1586    Z=              0.7700  Tot=              1.9229
 Quadrupole moment (field-independent basis, Debye-Ang):
   XX=            -97.0196   YY=            -96.4197   ZZ=            -96.0328
   XY=             -1.3536   XZ=              0.4621   YZ=              1.7751

 Summary of Natural Population Analysis:

                                       Natural Population
                Natural  -----------------------------------------------
    Atom  No    Charge         Core      Valence    Rydberg      Total
 -----------------------------------------------------------------------
      C    1   -0.68196      1.99946     4.67421    0.00829     6.68196
      C    2   -0.45943      1.99934     4.44773    0.01235     6.45943
      C    3   -0.46405      1.99931     4.44999    0.01474     6.46405
      C    4   -0.75302      1.99929     4.73786    0.01588     6.75302
      H    5    0.27024      0.00000     0.72787    0.00189     0.72976
      H    6    0.26800      0.00000     0.73002    0.00198     0.73200
      P    7    0.99884      9.99766     3.88043    0.12307    14.00116
      C    8   -0.85335      1.99932     4.83137    0.02266     6.85335
      H    9    0.23866      0.00000     0.75662    0.00473     0.76134
      H   10    0.24452      0.00000     0.74589    0.00959     0.75548
      C   11   -0.45373      1.99930     4.44189    0.01254     6.45373
      C   12   -0.45045      1.99934     4.43996    0.01116     6.45045
      C   13   -0.67471      1.99946     4.66764    0.00761     6.67471
      C   14   -0.82504      1.99931     4.80217    0.02356     6.82504
      H   15    0.24305      0.00000     0.75423    0.00271     0.75695
      H   16    0.25700      0.00000     0.73846    0.00454     0.74300
      C   17   -0.46522      1.99932     4.45189    0.01401     6.46522
      C   18   -0.45397      1.99935     4.44379    0.01083     6.45397
      C   19   -0.67610      1.99945     4.66843    0.00822     6.67610
      H   20    0.23291      0.00000     0.76627    0.00081     0.76709
      H   21    0.22180      0.00000     0.77706    0.00114     0.77820
      H   22    0.21797      0.00000     0.77641    0.00562     0.78203
      H   23    0.23312      0.00000     0.76459    0.00229     0.76688
      H   24    0.21711      0.00000     0.77408    0.00881     0.78289
      H   25    0.22227      0.00000     0.77065    0.00708     0.77773
      H   26    0.22023      0.00000     0.77101    0.00876     0.77977
      H   27    0.22812      0.00000     0.76967    0.00221     0.77188
      H   28    0.22403      0.00000     0.77382    0.00216     0.77597
      H   29    0.22965      0.00000     0.76787    0.00248     0.77035
      H   30    0.22915      0.00000     0.76847    0.00238     0.77085
      H   31    0.22496      0.00000     0.77396    0.00108     0.77504
      H   32    0.23491      0.00000     0.76404    0.00105     0.76509
      H   33    0.22504      0.00000     0.77387    0.00110     0.77496
      H   34    0.19638      0.00000     0.78666    0.01696     0.80362
      H   35    0.21997      0.00000     0.77156    0.00847     0.78003
      H   36    0.22856      0.00000     0.76828    0.00315     0.77144
      H   37    0.21979      0.00000     0.77643    0.00378     0.78021
      H   38    0.22353      0.00000     0.77123    0.00524     0.77647
      H   39    0.22445      0.00000     0.77303    0.00252     0.77555
      H   40    0.21674      0.00000     0.78208    0.00118     0.78326
 =======================================================================
   * Total *   -0.00000     33.98991    79.61147    0.39863   114.00000

 Normal termination of Gaussian 16 at Sun Aug 23 09:03:27 2020.
