 Gaussian 16, Revision A.03,

 ---------------------------------
 # opt=CalcAll B3LYP/6-31G* scf=qc
 ---------------------------------

 -------------------
 Title Card Required
 -------------------
 Symbolic Z-matrix:
 Charge =  0 Multiplicity = 1

 SCF Done:  E(RB3LYP) =  -1036.27006355     a.u. after    8 cycles
 SCF Done:  E(RB3LYP) =  -1036.28030955     a.u. after   17 cycles
 SCF Done:  E(RB3LYP) =  -1036.29344607     a.u. after   17 cycles
 SCF Done:  E(RB3LYP) =  -1036.29280204     a.u. after   19 cycles
 SCF Done:  E(RB3LYP) =  -1036.29639391     a.u. after   21 cycles
 SCF Done:  E(RB3LYP) =  -1036.29760344     a.u. after   17 cycles
 SCF Done:  E(RB3LYP) =  -1036.29770641     a.u. after   17 cycles
 SCF Done:  E(RB3LYP) =  -1036.29752381     a.u. after   17 cycles
 SCF Done:  E(RB3LYP) =  -1036.29760798     a.u. after   11 cycles
 SCF Done:  E(RB3LYP) =  -1036.29820800     a.u. after   11 cycles
 SCF Done:  E(RB3LYP) =  -1036.29823836     a.u. after    3 cycles
 SCF Done:  E(RB3LYP) =  -1036.29823628     a.u. after    2 cycles
 SCF Done:  E(RB3LYP) =  -1036.29822908     a.u. after    3 cycles
 SCF Done:  E(RB3LYP) =  -1036.29822994     a.u. after    2 cycles
 SCF Done:  E(RB3LYP) =  -1036.29823874     a.u. after    2 cycles
 SCF Done:  E(RB3LYP) =  -1036.29823812     a.u. after    2 cycles
 SCF Done:  E(RB3LYP) =  -1036.29823251     a.u. after    3 cycles
 SCF Done:  E(RB3LYP) =  -1036.29822962     a.u. after    2 cycles
 Optimization completed.
    -- Stationary point found.
 Normal termination of Gaussian 16 at Sun Aug 23 09:37:29 2020.

 ----------------------------------------------------------------------
 # freq B3LYP/6-31G* scf=qc volume NMR pop=NPA density=current Geom=All
 Check Guess=Read
 ----------------------------------------------------------------------

 Structure from the checkpoint file:  "phosphine_1_conf252.chk"
 -------------------
 Title Card Required
 -------------------
 Charge =  0 Multiplicity = 1

 SCF Done:  E(RB3LYP) =  -1036.29822962     a.u. after    1 cycles

      1  C    Isotropic =    68.1625   Anisotropy =   167.3198

      2  C    Isotropic =    68.7358   Anisotropy =   164.1218

      3  C    Isotropic =    61.0211   Anisotropy =   164.1328

      4  C    Isotropic =    56.1321   Anisotropy =   179.4114

      5  C    Isotropic =    62.5929   Anisotropy =   174.0512

      6  C    Isotropic =    68.6770   Anisotropy =   163.8951

      7  P    Isotropic =   361.4548   Anisotropy =    39.7025

      8  C    Isotropic =    56.1012   Anisotropy =   179.4023

      9  C    Isotropic =    62.5923   Anisotropy =   173.9961

     10  C    Isotropic =    68.6721   Anisotropy =   163.8838

     11  C    Isotropic =    68.1728   Anisotropy =   167.3381

     12  C    Isotropic =    68.7330   Anisotropy =   164.1494

     13  C    Isotropic =    61.0195   Anisotropy =   164.1274

     14  C    Isotropic =    56.1115   Anisotropy =   179.4127

     15  C    Isotropic =    61.0107   Anisotropy =   164.1069

     16  C    Isotropic =    68.7390   Anisotropy =   164.1477

     17  C    Isotropic =    68.1729   Anisotropy =   167.3552

     18  C    Isotropic =    68.6709   Anisotropy =   163.8811

     19  C    Isotropic =    62.5668   Anisotropy =   174.0266

     20  H    Isotropic =    25.0212   Anisotropy =     3.6407

     21  H    Isotropic =    24.9279   Anisotropy =     4.5865

     22  H    Isotropic =    24.6128   Anisotropy =     9.2512

     23  H    Isotropic =    25.4038   Anisotropy =    12.2293

     24  H    Isotropic =    25.0481   Anisotropy =     6.0859

     25  H    Isotropic =    25.4073   Anisotropy =    12.2278

     26  H    Isotropic =    25.0493   Anisotropy =     6.0861

     27  H    Isotropic =    25.0189   Anisotropy =     3.6452

     28  H    Isotropic =    24.9251   Anisotropy =     4.5918

     29  H    Isotropic =    24.6142   Anisotropy =     9.2541

     30  H    Isotropic =    24.6141   Anisotropy =     9.2472

     31  H    Isotropic =    24.9260   Anisotropy =     4.5883

     32  H    Isotropic =    25.0182   Anisotropy =     3.6439

     33  H    Isotropic =    25.0484   Anisotropy =     6.0867

     34  H    Isotropic =    25.4030   Anisotropy =    12.2287

  Exact polarizability: 224.205  -0.021 224.138   0.020  -0.019 164.973
 Approx polarizability: 331.043  -0.046 330.918   0.048  -0.049 307.884

                      1                      2                      3
                      A                      A                      A
 Frequencies --     22.0714                22.8771                37.8131
 Red. masses --      3.7947                 3.7985                 3.6886
 Frc consts  --      0.0011                 0.0012                 0.0031
 IR Inten    --      0.2830                 0.2828                 0.0013

                      4                      5                      6
                      A                      A                      A
 Frequencies --     53.2767                53.3644                70.5135
 Red. masses --      5.2511                 5.2545                 5.1684
 Frc consts  --      0.0088                 0.0088                 0.0151
 IR Inten    --      0.0857                 0.0831                 0.3100

                      7                      8                      9
                      A                      A                      A
 Frequencies --    181.4479               202.4959               202.5096
 Red. masses --      4.5596                 4.6411                 4.6437
 Frc consts  --      0.0884                 0.1121                 0.1122
 IR Inten    --      0.3529                 1.1353                 1.1395

                     10                     11                     12
                      A                      A                      A
 Frequencies --    245.5245               259.7687               259.9591
 Red. masses --      5.7377                 4.7216                 4.7218
 Frc consts  --      0.2038                 0.1877                 0.1880
 IR Inten    --      0.4837                 0.2261                 0.2226

                     13                     14                     15
                      A                      A                      A
 Frequencies --    408.7818               408.8520               412.3116
 Red. masses --      3.0779                 3.0790                 3.6108
 Frc consts  --      0.3030                 0.3032                 0.3617
 IR Inten    --      1.9603                 1.9646                 0.1646

                     16                     17                     18
                      A                      A                      A
 Frequencies --    416.9843               429.3992               429.5058
 Red. masses --      4.5874                 7.3143                 7.3064
 Frc consts  --      0.4700                 0.7946                 0.7941
 IR Inten    --      0.5567                 7.6999                 7.6861

                     19                     20                     21
                      A                      A                      A
 Frequencies --    509.3670               509.4495               516.3117
 Red. masses --      4.2483                 4.2450                 4.5865
 Frc consts  --      0.6494                 0.6491                 0.7204
 IR Inten    --     26.0949                26.0584                11.9986

                     22                     23                     24
                      A                      A                      A
 Frequencies --    632.7177               632.7391               633.3535
 Red. masses --      6.4270                 6.4270                 6.4368
 Frc consts  --      1.5159                 1.5160                 1.5213
 IR Inten    --      0.1810                 0.1799                 0.0163

                     25                     26                     27
                      A                      A                      A
 Frequencies --    691.8432               705.0923               705.1986
 Red. masses --      6.5812                 5.7196                 5.7415
 Frc consts  --      1.8560                 1.6754                 1.6823
 IR Inten    --      0.7639                 1.2133                 1.1474

                     28                     29                     30
                      A                      A                      A
 Frequencies --    712.1843               712.2928               713.2033
 Red. masses --      2.1971                 2.2005                 2.1319
 Frc consts  --      0.6566                 0.6578                 0.6389
 IR Inten    --     26.3568                26.2999                16.6458

                     31                     32                     33
                      A                      A                      A
 Frequencies --    761.3979               762.8532               762.9078
 Red. masses --      1.6164                 1.6492                 1.6479
 Frc consts  --      0.5521                 0.5655                 0.5651
 IR Inten    --     19.2331                24.9400                24.9096

                     34                     35                     36
                      A                      A                      A
 Frequencies --    866.0697               866.2252               868.6782
 Red. masses --      1.2478                 1.2477                 1.2463
 Frc consts  --      0.5515                 0.5516                 0.5541
 IR Inten    --      0.2272                 0.2205                 0.1345

                     37                     38                     39
                      A                      A                      A
 Frequencies --    932.7742               933.0051               934.1247
 Red. masses --      1.3445                 1.3441                 1.3387
 Frc consts  --      0.6892                 0.6893                 0.6883
 IR Inten    --      1.2615                 1.2738                 0.0303

                     40                     41                     42
                      A                      A                      A
 Frequencies --    975.7000               975.8579               977.5562
 Red. masses --      1.3615                 1.3611                 1.3558
 Frc consts  --      0.7637                 0.7637                 0.7633
 IR Inten    --      0.0157                 0.0165                 0.1429

                     43                     44                     45
                      A                      A                      A
 Frequencies --   1000.3034              1000.4065              1001.0585
 Red. masses --      1.2544                 1.2542                 1.2526
 Frc consts  --      0.7395                 0.7396                 0.7396
 IR Inten    --      0.0781                 0.0817                 0.0003

                     46                     47                     48
                      A                      A                      A
 Frequencies --   1015.3519              1015.3737              1015.7540
 Red. masses --      6.3111                 6.3106                 6.3101
 Frc consts  --      3.8334                 3.8333                 3.8358
 IR Inten    --      4.3634                 4.3579                 0.0523

                     49                     50                     51
                      A                      A                      A
 Frequencies --   1052.7058              1052.7379              1052.9309
 Red. masses --      3.3119                 3.3155                 3.2529
 Frc consts  --      2.1624                 2.1649                 2.1248
 IR Inten    --      2.0938                 2.0806                 0.0504

                     52                     53                     54
                      A                      A                      A
 Frequencies --   1107.8961              1108.0288              1109.4566
 Red. masses --      1.8841                 1.8735                 1.6545
 Frc consts  --      1.3626                 1.3552                 1.1999
 IR Inten    --      4.2475                 4.0629                 2.8843

                     55                     56                     57
                      A                      A                      A
 Frequencies --   1110.7006              1110.8010              1116.0866
 Red. masses --      2.1911                 2.2021                 2.6137
 Frc consts  --      1.5926                 1.6009                 1.9182
 IR Inten    --      9.4093                 9.4935                 1.2311

                     58                     59                     60
                      A                      A                      A
 Frequencies --   1193.4770              1193.8966              1193.9124
 Red. masses --      1.1033                 1.1000                 1.1000
 Frc consts  --      0.9260                 0.9238                 0.9238
 IR Inten    --      0.0009                 0.1299                 0.1292

                     61                     62                     63
                      A                      A                      A
 Frequencies --   1219.2267              1219.3878              1220.8278
 Red. masses --      1.1476                 1.1477                 1.1473
 Frc consts  --      1.0051                 1.0054                 1.0075
 IR Inten    --      6.0496                 6.0470                 0.3452

                     64                     65                     66
                      A                      A                      A
 Frequencies --   1324.9514              1328.6620              1328.7875
 Red. masses --      3.4875                 3.4813                 3.4990
 Frc consts  --      3.6072                 3.6209                 3.6400
 IR Inten    --      2.6347                 2.4349                 2.4473

                     67                     68                     69
                      A                      A                      A
 Frequencies --   1365.1585              1365.2657              1365.5777
 Red. masses --      1.6578                 1.6541                 1.6447
 Frc consts  --      1.8203                 1.8165                 1.8071
 IR Inten    --      0.1609                 0.3194                 2.9003

                     70                     71                     72
                      A                      A                      A
 Frequencies --   1480.4687              1480.9388              1480.9841
 Red. masses --      2.1105                 2.1153                 2.1159
 Frc consts  --      2.7254                 2.7333                 2.7342
 IR Inten    --     16.6215                 6.6151                 6.6067

                     73                     74                     75
                      A                      A                      A
 Frequencies --   1531.0770              1531.5569              1531.6325
 Red. masses --      2.0153                 1.9986                 1.9981
 Frc consts  --      2.7834                 2.7622                 2.7617
 IR Inten    --      2.0108                10.1515                10.1478

                     76                     77                     78
                      A                      A                      A
 Frequencies --   1630.1495              1630.4316              1630.4601
 Red. masses --      5.1002                 5.1122                 5.1132
 Frc consts  --      7.9854                 8.0068                 8.0088
 IR Inten    --      0.3983                 0.0448                 0.0446

                     79                     80                     81
                      A                      A                      A
 Frequencies --   1646.1444              1646.1792              1647.9600
 Red. masses --      5.2717                 5.2705                 5.2829
 Frc consts  --      8.4166                 8.4151                 8.4530
 IR Inten    --      3.5097                 3.5291                 0.3179

                     82                     83                     84
                      A                      A                      A
 Frequencies --   3176.0317              3176.0704              3176.1017
 Red. masses --      1.0854                 1.0854                 1.0853
 Frc consts  --      6.4505                 6.4507                 6.4506
 IR Inten    --      2.1405                 2.0181                 1.8840

                     85                     86                     87
                      A                      A                      A
 Frequencies --   3182.5832              3182.6276              3182.7185
 Red. masses --      1.0875                 1.0875                 1.0876
 Frc consts  --      6.4899                 6.4901                 6.4909
 IR Inten    --      0.7522                 0.6296                 0.2927

                     88                     89                     90
                      A                      A                      A
 Frequencies --   3192.7796              3192.8309              3192.9485
 Red. masses --      1.0916                 1.0916                 1.0917
 Frc consts  --      6.5564                 6.5567                 6.5577
 IR Inten    --     11.4122                10.4851                46.1736

                     91                     92                     93
                      A                      A                      A
 Frequencies --   3203.7989              3203.9219              3204.2964
 Red. masses --      1.0941                 1.0941                 1.0942
 Frc consts  --      6.6164                 6.6173                 6.6196
 IR Inten    --     40.4049                40.2918                 6.3777

                     94                     95                     96
                      A                      A                      A
 Frequencies --   3209.9392              3210.1112              3210.9658
 Red. masses --      1.0958                 1.0956                 1.0956
 Frc consts  --      6.6521                 6.6521                 6.6555
 IR Inten    --     20.5779                19.8016                16.2844

 - Thermochemistry -
 -------------------
 Temperature   298.150 Kelvin.  Pressure   1.00000 Atm.
 Atom     1 has atomic number  6 and mass  12.00000

 Molecular mass:   262.09114 amu.
 Principal axes and moments of inertia in atomic units:
                           1         2         3
     Eigenvalues --  5162.022455163.296238681.28490
           X            0.99985  -0.01739   0.00001
           Y            0.01739   0.99985  -0.00000
           Z           -0.00001   0.00000   1.00000
 This molecule is an asymmetric top.
 Rotational symmetry number  1.
 Warning -- assumption of classical behavior for rotation
           may cause significant error
 Rotational temperatures (Kelvin)      0.01678     0.01677     0.00998
 Rotational constants (GHZ):           0.34962     0.34953     0.20789
 Zero-point vibrational energy     719929.4 (Joules/Mol)
                                  172.06725 (Kcal/Mol)
 Warning -- explicit consideration of  21 degrees of freedom as
           vibrations may cause significant error
 Vibrational temperatures:     31.76    32.91    54.40    76.65    76.78
          (Kelvin)            101.45   261.06   291.35   291.37   353.26
                              373.75   374.02   588.15   588.25   593.22
                              599.95   617.81   617.96   732.87   732.98
                              742.86   910.34   910.37   911.25   995.41
                             1014.47  1014.62  1024.67  1024.83  1026.14
                             1095.48  1097.58  1097.65  1246.08  1246.30
                             1249.83  1342.05  1342.39  1344.00  1403.81
                             1404.04  1406.49  1439.21  1439.36  1440.30
                             1460.86  1460.90  1461.44  1514.61  1514.65
                             1514.93  1594.02  1594.21  1596.26  1598.05
                             1598.19  1605.80  1717.15  1717.75  1717.77
                             1754.20  1754.43  1756.50  1906.31  1911.65
                             1911.83  1964.16  1964.31  1964.76  2130.06
                             2130.74  2130.81  2202.88  2203.57  2203.68
                             2345.42  2345.83  2345.87  2368.43  2368.48
                             2371.05  4569.60  4569.66  4569.70  4579.03
                             4579.09  4579.22  4593.70  4593.77  4593.94
                             4609.55  4609.73  4610.27  4618.39  4618.63
                             4619.86

 Zero-point correction=                           0.274207 (Hartree/Particle)
 Thermal correction to Energy=                    0.290134
 Thermal correction to Enthalpy=                  0.291078
 Thermal correction to Gibbs Free Energy=         0.227663
 Sum of electronic and zero-point Energies=          -1036.024023
 Sum of electronic and thermal Energies=             -1036.008096
 Sum of electronic and thermal Enthalpies=           -1036.007151
 Sum of electronic and thermal Free Energies=        -1036.070567

                     E (Thermal)             CV                S
                      KCal/Mol        Cal/Mol-Kelvin    Cal/Mol-Kelvin
 Total                  182.062             62.541            133.470
 Electronic               0.000              0.000              0.000
 Translational            0.889              2.981             42.590
 Rotational               0.889              2.981             33.803
 Vibrational            180.284             56.579             57.077
 Vibration     1          0.593              1.985              6.439
 Vibration     2          0.593              1.985              6.367
 Vibration     3          0.594              1.982              5.370
 Vibration     4          0.596              1.976              4.692
 Vibration     5          0.596              1.976              4.689
 Vibration     6          0.598              1.968              4.139
 Vibration     7          0.630              1.865              2.313
 Vibration     8          0.639              1.836              2.110
 Vibration     9          0.639              1.836              2.110
 Vibration    10          0.660              1.770              1.762
 Vibration    11          0.668              1.746              1.663
 Vibration    12          0.668              1.746              1.662
 Vibration    13          0.773              1.451              0.931
 Vibration    14          0.773              1.451              0.931
 Vibration    15          0.776              1.444              0.918
 Vibration    16          0.780              1.433              0.902
 Vibration    17          0.791              1.406              0.861
 Vibration    18          0.791              1.406              0.860
 Vibration    19          0.865              1.229              0.635
 Vibration    20          0.865              1.229              0.635
 Vibration    21          0.871              1.214              0.619

                           ! Non-Optimized Parameters !
 Normal termination of Gaussian 16 at Sun Aug 23 09:48:00 2020.
 Gaussian 16:  ES64L-G16RevA.03 25-Dec-2016

 ----------------------------------------------------------------------
 # TD(NStates=10, Root=1) B3LYP/6-31G* scf=qc volume pop=NPA density=cu
 rrent Geom=AllCheck Guess=Read
 ----------------------------------------------------------------------

 Structure from the checkpoint file:  "phosphine_1_conf253.chk"
 -------------------
 Title Card Required
 -------------------
 Charge =  0 Multiplicity = 1

                         Standard orientation:
 ---------------------------------------------------------------------
 Center     Atomic      Atomic             Coordinates (Angstroms)
 Number     Number       Type             X           Y           Z
 ---------------------------------------------------------------------
      1          6           0        4.040017    1.414754    0.651607
      2          6           0        3.998580    0.634580   -0.505901
      3          6           0        2.771573    0.231449   -1.032253
      4          6           0        1.565643    0.583649   -0.402646
      5          6           0        1.621027    1.370163    0.758141
      6          6           0        2.849125    1.783797    1.279022
      7         15           0        0.000072    0.000172   -1.206498
      8          6           0       -0.277467   -1.647386   -0.402595
      9          6           0        0.377056   -2.089189    0.757365
     10          6           0        0.121269   -3.359618    1.278170
     11          6           0       -0.794781   -4.205906    0.651521
     12          6           0       -1.450768   -3.779350   -0.505184
     13          6           0       -1.186440   -2.515140   -1.031479
     14          6           0       -1.288149    1.064045   -0.402615
     15          6           0       -1.586973    2.284177   -1.032437
     16          6           0       -2.549728    3.144939   -0.505827
     17          6           0       -3.245334    2.790767    0.652150
     18          6           0       -2.968604    1.575220    1.279796
     19          6           0       -1.996213    0.718785    0.758662
     20          1           0        4.994607    1.738539    1.058073
     21          1           0        4.920957    0.349006   -1.005093
     22          1           0        2.746729   -0.359539   -1.945074
     23          1           0        0.701664    1.664504    1.255338
     24          1           0        2.873822    2.395041    2.177758
     25          1           0        1.092519   -1.440661    1.253964
     26          1           0        0.639131   -3.687085    2.176247
     27          1           0       -0.991632   -5.194532    1.057917
     28          1           0       -2.160044   -4.434952   -1.003823
     29          1           0       -1.686644   -2.197706   -1.943708
     30          1           0       -1.063327    2.558121   -1.945603
     31          1           0       -2.764298    4.086285   -1.005180
     32          1           0       -4.003128    3.455351    1.058803
     33          1           0       -3.509714    1.291002    2.178894
     34          1           0       -1.790723   -0.224361    1.255972
 ---------------------------------------------------------------------

 SCF Done:  E(RB3LYP) =  -1036.29822962     a.u. after    1 cycles

 Excitation energies and oscillator strengths:

 Excited State   1:      Singlet-A      4.5097 eV  274.93 nm  f=0.1279  <S**2>=0.000
      69 -> 70         0.69643
 This state for optimization and/or second-order correction.
 Total Energy, E(TD-HF/TD-DFT) =  -1036.13250129
 Copying the excited state density for this state as the 1-particle RhoCI density.

 Excited State   2:      Singlet-A      4.5105 eV  274.88 nm  f=0.1281  <S**2>=0.000
      69 -> 71         0.69641

 Excited State   3:      Singlet-A      4.7560 eV  260.69 nm  f=0.0022  <S**2>=0.000
      67 -> 70         0.12392
      68 -> 71         0.12406
      69 -> 72         0.67475

 Excited State   4:      Singlet-A      5.0574 eV  245.15 nm  f=0.0002  <S**2>=0.000
      66 -> 70        -0.16559
      67 -> 71        -0.13475
      68 -> 70        -0.13472
      69 -> 74         0.63015

 Excited State   5:      Singlet-A      5.0578 eV  245.14 nm  f=0.0002  <S**2>=0.000
      66 -> 71        -0.16575
      67 -> 70        -0.13501
      68 -> 71         0.13498
      69 -> 75         0.62995

 Excited State   6:      Singlet-A      5.1501 eV  240.74 nm  f=0.0085  <S**2>=0.000
      69 -> 73         0.67912

 Excited State   7:      Singlet-A      5.4278 eV  228.42 nm  f=0.0147  <S**2>=0.000
      63 -> 72        -0.16605
      64 -> 74         0.13236
      64 -> 75         0.10076
      65 -> 74         0.10138
      65 -> 75        -0.13158
      67 -> 70         0.42203
      68 -> 71         0.41986
      69 -> 72        -0.16484

 Excited State   8:      Singlet-A      5.5142 eV  224.85 nm  f=0.0004  <S**2>=0.000
      63 -> 74         0.14427
      64 -> 70         0.11209
      64 -> 72        -0.20988
      65 -> 71         0.11202
      65 -> 72        -0.18989
      66 -> 70         0.22488
      67 -> 71         0.26772
      68 -> 70         0.26983
      68 -> 72         0.16373
      69 -> 74         0.28783

 Excited State   9:      Singlet-A      5.5146 eV  224.83 nm  f=0.0004  <S**2>=0.000
      63 -> 75         0.14438
      64 -> 71        -0.11113
      64 -> 72        -0.18997
      65 -> 70         0.11186
      65 -> 72         0.20991
      66 -> 71         0.22429
      67 -> 70         0.26740
      67 -> 72        -0.16385
      68 -> 71        -0.27096
      69 -> 75         0.28815

 Excited State  10:      Singlet-A      5.6184 eV  220.68 nm  f=0.0009  <S**2>=0.000
      67 -> 71        -0.48035
      68 -> 70         0.48388

 The electronic state is 1-A.
 Alpha  occ. eigenvalues --  -77.08113 -10.19447 -10.19447 -10.19447 -10.19147
 Alpha  occ. eigenvalues --  -10.19146 -10.19145 -10.19118 -10.19118 -10.19116
 Alpha  occ. eigenvalues --  -10.19031 -10.19031 -10.19029 -10.19008 -10.19007
 Alpha  occ. eigenvalues --  -10.19006 -10.18962 -10.18962 -10.18961  -6.54844
 Alpha  occ. eigenvalues --   -4.71103  -4.71103  -4.70602  -0.85560  -0.84846
 Alpha  occ. eigenvalues --   -0.84845  -0.76669  -0.74366  -0.74366  -0.74328
 Alpha  occ. eigenvalues --   -0.73821  -0.73821  -0.64436  -0.60335  -0.60308
 Alpha  occ. eigenvalues --   -0.60307  -0.59207  -0.59207  -0.55448  -0.51436
 Alpha  occ. eigenvalues --   -0.51435  -0.49295  -0.45441  -0.45440  -0.44773
 Alpha  occ. eigenvalues --   -0.44345  -0.44345  -0.44067  -0.41946  -0.41868
 Alpha  occ. eigenvalues --   -0.41868  -0.40378  -0.40377  -0.36844  -0.36351
 Alpha  occ. eigenvalues --   -0.36350  -0.35899  -0.34252  -0.34251  -0.34224
 Alpha  occ. eigenvalues --   -0.31884  -0.31884  -0.26781  -0.25448  -0.25446
 Alpha  occ. eigenvalues --   -0.25244  -0.24704  -0.24703  -0.21141
 Alpha virt. eigenvalues --   -0.01879  -0.01877  -0.00832   0.00172   0.00429
 Alpha virt. eigenvalues --    0.00430   0.06882   0.06885   0.09493   0.11038
 Alpha virt. eigenvalues --    0.11038   0.13905   0.14528   0.14529   0.15164

 Mulliken charges:
               1
     1  C   -0.158437
     2  C   -0.118660
     3  C   -0.175899
     4  C   -0.127063
     5  C   -0.164189
     6  C   -0.122542
     7  P    0.450657
     8  C   -0.081255
     9  C   -0.148307
    10  C   -0.119892
    11  C   -0.120653
    12  C   -0.118896
    13  C   -0.156583
    14  C   -0.113083
    15  C   -0.159744
    16  C   -0.125489
    17  C   -0.157076
    18  C   -0.115643
    19  C   -0.173037
    20  H    0.115657
    21  H    0.118871
    22  H    0.118151
    23  H    0.146166
    24  H    0.123678
    25  H    0.177031
    26  H    0.148300
    27  H    0.147837
    28  H    0.144289
    29  H    0.150327
    30  H    0.125658
    31  H    0.121393
    32  H    0.117060
    33  H    0.123691
    34  H    0.127682
 Sum of Mulliken charges =  -0.00000

 Dipole moment (field-independent basis, Debye):
    X=             -0.7715    Y=             -3.6699    Z=             -0.1952  Tot=              3.7552
 Quadrupole moment (field-independent basis, Debye-Ang):
   XX=           -120.1393   YY=           -106.9104   ZZ=           -110.6796
   XY=              2.3029   XZ=              0.5490   YZ=             -1.2292

 Summary of Natural Population Analysis:

                                       Natural Population
                Natural  -----------------------------------------------
    Atom  No    Charge         Core      Valence    Rydberg      Total
 -----------------------------------------------------------------------
      C    1   -0.27580      1.99909     4.26056    0.01615     6.27580
      C    2   -0.23680      1.99910     4.22303    0.01467     6.23680
      C    3   -0.23796      1.99902     4.22268    0.01627     6.23796
      C    4   -0.47116      1.99888     4.44602    0.02626     6.47116
      C    5   -0.23719      1.99899     4.22063    0.01757     6.23719
      C    6   -0.23632      1.99909     4.22259    0.01464     6.23632
      P    7    1.24209      9.99750     3.71017    0.05024    13.75791
      C    8   -0.37661      1.99891     4.35285    0.02486     6.37661
      C    9   -0.20498      1.99900     4.18991    0.01608     6.20498
      C   10   -0.22982      1.99909     4.21668    0.01405     6.22982
      C   11   -0.19568      1.99909     4.18291    0.01367     6.19568
      C   12   -0.23497      1.99910     4.22165    0.01423     6.23497
      C   13   -0.20232      1.99902     4.18820    0.01510     6.20232
      C   14   -0.44896      1.99887     4.42571    0.02438     6.44896
      C   15   -0.21405      1.99901     4.19918    0.01586     6.21405
      C   16   -0.24880      1.99910     4.23463    0.01507     6.24880
      C   17   -0.27311      1.99909     4.25800    0.01601     6.27311
      C   18   -0.22399      1.99909     4.21057    0.01433     6.22399
      C   19   -0.26046      1.99899     4.24375    0.01773     6.26046
      H   20    0.22888      0.00000     0.77022    0.00091     0.77112
      H   21    0.23169      0.00000     0.76735    0.00095     0.76831
      H   22    0.22549      0.00000     0.77354    0.00097     0.77451
      H   23    0.24450      0.00000     0.75394    0.00157     0.75550
      H   24    0.23499      0.00000     0.76412    0.00089     0.76501
      H   25    0.26205      0.00000     0.73675    0.00120     0.73795
      H   26    0.24632      0.00000     0.75282    0.00086     0.75368
      H   27    0.24280      0.00000     0.75638    0.00082     0.75720
      H   28    0.24381      0.00000     0.75530    0.00089     0.75619
      H   29    0.24284      0.00000     0.75596    0.00120     0.75716
      H   30    0.23086      0.00000     0.76799    0.00115     0.76914
      H   31    0.23357      0.00000     0.76555    0.00088     0.76643
      H   32    0.22958      0.00000     0.76952    0.00089     0.77042
      H   33    0.23484      0.00000     0.76428    0.00088     0.76516
      H   34    0.23466      0.00000     0.76398    0.00136     0.76534
 =======================================================================
   * Total *    0.00000     45.98001    91.64740    0.37259   138.00000

 Normal termination of Gaussian 16 at Sun Aug 23 09:59:32 2020.
