 Gaussian 16, Revision A.03,

 ---------------------------------
 # opt=CalcAll B3LYP/6-31G* scf=qc
 ---------------------------------

 -------------------
 Title Card Required
 -------------------
 Symbolic Z-matrix:
 Charge =  0 Multiplicity = 1

 SCF Done:  E(RB3LYP) =  -2415.06912104     a.u. after    8 cycles
 SCF Done:  E(RB3LYP) =  -2415.08378689     a.u. after   15 cycles
 SCF Done:  E(RB3LYP) =  -2415.08557520     a.u. after   15 cycles
 SCF Done:  E(RB3LYP) =  -2415.08620299     a.u. after   15 cycles
 SCF Done:  E(RB3LYP) =  -2415.08623084     a.u. after   11 cycles
 SCF Done:  E(RB3LYP) =  -2415.08623413     a.u. after    4 cycles
 SCF Done:  E(RB3LYP) =  -2415.08623986     a.u. after    5 cycles
 SCF Done:  E(RB3LYP) =  -2415.08624111     a.u. after    7 cycles
 SCF Done:  E(RB3LYP) =  -2415.08624338     a.u. after    2 cycles
 SCF Done:  E(RB3LYP) =  -2415.08624445     a.u. after    2 cycles
 SCF Done:  E(RB3LYP) =  -2415.08624752     a.u. after    2 cycles
 Optimization completed.
    -- Stationary point found.
 Normal termination of Gaussian 16 at Sun Aug 23 01:20:10 2020.

 ----------------------------------------------------------------------
 # freq B3LYP/6-31G* scf=qc volume NMR pop=NPA density=current Geom=All
 Check Guess=Read
 ----------------------------------------------------------------------

 Structure from the checkpoint file:  "phosphine_11_conf302.chk"
 -------------------
 Title Card Required
 -------------------
 Charge =  0 Multiplicity = 1

 SCF Done:  E(RB3LYP) =  -2415.08624752     a.u. after    1 cycles

      1  C    Isotropic =    67.5658   Anisotropy =   140.6173

      2  C    Isotropic =    60.2379   Anisotropy =   160.2916

      3  C    Isotropic =    58.7082   Anisotropy =   177.4065

      4  C    Isotropic =    61.9088   Anisotropy =   168.5447

      5  C    Isotropic =    67.5368   Anisotropy =   140.0923

      6  C    Isotropic =    51.6118   Anisotropy =   109.1243

      7  Cl   Isotropic =   721.0478   Anisotropy =   452.8820

      8  P    Isotropic =   364.8742   Anisotropy =    37.4623

      9  C    Isotropic =    58.7719   Anisotropy =   177.4207

     10  C    Isotropic =    61.8822   Anisotropy =   168.6502

     11  C    Isotropic =    67.5391   Anisotropy =   140.1192

     12  C    Isotropic =    51.5949   Anisotropy =   109.1609

     13  C    Isotropic =    67.5579   Anisotropy =   140.5755

     14  C    Isotropic =    60.2184   Anisotropy =   160.2671

     15  Cl   Isotropic =   720.9292   Anisotropy =   452.9685

     16  C    Isotropic =    58.7300   Anisotropy =   177.4430

     17  C    Isotropic =    60.2089   Anisotropy =   160.2522

     18  C    Isotropic =    67.5479   Anisotropy =   140.5795

     19  C    Isotropic =    51.5968   Anisotropy =   109.1520

     20  C    Isotropic =    67.5388   Anisotropy =   140.1118

     21  C    Isotropic =    61.8691   Anisotropy =   168.6028

     22  Cl   Isotropic =   720.9800   Anisotropy =   452.8630

     23  H    Isotropic =    25.0904   Anisotropy =     6.6381

     24  H    Isotropic =    24.7821   Anisotropy =     8.9750

     25  H    Isotropic =    25.5886   Anisotropy =    12.1188

     26  H    Isotropic =    25.2108   Anisotropy =     8.1414

     27  H    Isotropic =    25.5803   Anisotropy =    12.1116

     28  H    Isotropic =    25.2075   Anisotropy =     8.1440

     29  H    Isotropic =    25.0936   Anisotropy =     6.6303

     30  H    Isotropic =    24.7786   Anisotropy =     8.9627

     31  H    Isotropic =    24.7779   Anisotropy =     8.9654

     32  H    Isotropic =    25.0928   Anisotropy =     6.6332

     33  H    Isotropic =    25.2078   Anisotropy =     8.1410

     34  H    Isotropic =    25.5813   Anisotropy =    12.1064

  Exact polarizability: 280.652  -0.084 280.494  -0.009   0.086 185.159
 Approx polarizability: 393.504  -0.195 393.242  -0.018   0.200 343.260

                      1                      2                      3
                      A                      A                      A
 Frequencies --     22.5325                24.0696                29.6923
 Red. masses --      4.8272                 5.5052                 8.3692
 Frc consts  --      0.0014                 0.0019                 0.0043
 IR Inten    --      0.2773                 0.2307                 0.1865

                      4                      5                      6
                      A                      A                      A
 Frequencies --     30.3068                38.5406                40.6126
 Red. masses --      6.9349                 8.5750                 4.4301
 Frc consts  --      0.0038                 0.0075                 0.0043
 IR Inten    --      0.2364                 0.2003                 0.0269

                      7                      8                      9
                      A                      A                      A
 Frequencies --    109.4390               117.6741               117.8921
 Red. masses --      8.8651                 8.8371                 8.8302
 Frc consts  --      0.0626                 0.0721                 0.0723
 IR Inten    --      0.0249                 0.3504                 0.3484

                     10                     11                     12
                      A                      A                      A
 Frequencies --    181.0793               187.4542               187.6830
 Red. masses --     10.0376                 8.7920                 8.7952
 Frc consts  --      0.1939                 0.1820                 0.1825
 IR Inten    --      0.3332                 0.5717                 0.5690

                     13                     14                     15
                      A                      A                      A
 Frequencies --    264.0560               293.6932               293.8536
 Red. masses --      8.9786                 8.4130                 8.4190
 Frc consts  --      0.3688                 0.4276                 0.4283
 IR Inten    --      0.2163                 0.9077                 0.9154

                     16                     17                     18
                      A                      A                      A
 Frequencies --    310.9528               328.7350               328.9099
 Red. masses --      6.0408                 5.9840                 5.9781
 Frc consts  --      0.3441                 0.3810                 0.3810
 IR Inten    --      0.0033                 1.8813                 1.8822

                     19                     20                     21
                      A                      A                      A
 Frequencies --    384.0708               384.1093               414.7413
 Red. masses --      8.0302                 8.0210                 3.0453
 Frc consts  --      0.6979                 0.6972                 0.3086
 IR Inten    --     20.9792                21.0059                 0.0488

                     22                     23                     24
                      A                      A                      A
 Frequencies --    414.8915               416.8271               427.0278
 Red. masses --      3.0477                 3.2152                 6.6042
 Frc consts  --      0.3091                 0.3291                 0.7096
 IR Inten    --      0.0510                 0.1652                 2.9403

                     25                     26                     27
                      A                      A                      A
 Frequencies --    499.5720               509.4579               509.5797
 Red. masses --      5.5226                 3.6480                 3.6533
 Frc consts  --      0.8121                 0.5579                 0.5589
 IR Inten    --      6.8224                19.8434                19.8714

                     28                     29                     30
                      A                      A                      A
 Frequencies --    531.7410               548.8715               548.8795
 Red. masses --      4.5727                 7.4297                 7.4179
 Frc consts  --      0.7618                 1.3187                 1.3167
 IR Inten    --      9.8622                 5.4660                 5.4889

                     31                     32                     33
                      A                      A                      A
 Frequencies --    644.3546               644.3848               645.3147
 Red. masses --      7.1601                 7.1601                 7.1686
 Frc consts  --      1.7515                 1.7517                 1.7588
 IR Inten    --      0.0371                 0.0367                 0.0959

                     34                     35                     36
                      A                      A                      A
 Frequencies --    718.2819               718.3832               718.7652
 Red. masses --      4.5898                 4.5949                 4.6101
 Frc consts  --      1.3952                 1.3971                 1.4033
 IR Inten    --      1.6707                 1.6760                 0.2901

                     37                     38                     39
                      A                      A                      A
 Frequencies --    746.1335               751.6317               751.6718
 Red. masses --      7.2608                 7.2733                 7.2741
 Frc consts  --      2.3816                 2.4210                 2.4215
 IR Inten    --     14.6384                54.3763                54.3623

                     40                     41                     42
                      A                      A                      A
 Frequencies --    833.8383               834.2548               834.3607
 Red. masses --      1.4157                 1.4320                 1.4312
 Frc consts  --      0.5799                 0.5872                 0.5870
 IR Inten    --     23.2651                32.8536                32.9673

                     43                     44                     45
                      A                      A                      A
 Frequencies --    845.9688               846.1133               849.1437
 Red. masses --      1.2466                 1.2464                 1.2502
 Frc consts  --      0.5256                 0.5257                 0.5311
 IR Inten    --      0.6493                 0.6210                 0.3283

                     46                     47                     48
                      A                      A                      A
 Frequencies --    969.6363               969.7767               970.1256
 Red. masses --      1.2762                 1.2770                 1.2882
 Frc consts  --      0.7070                 0.7076                 0.7143
 IR Inten    --      0.1510                 0.1428                 0.2067

                     49                     50                     51
                      A                      A                      A
 Frequencies --    973.4556               973.7085               976.9650
 Red. masses --      1.3454                 1.3434                 1.3206
 Frc consts  --      0.7512                 0.7504                 0.7426
 IR Inten    --      0.0107                 0.0129                 0.4170

                     52                     53                     54
                      A                      A                      A
 Frequencies --   1027.9826              1028.0083              1029.6318
 Red. masses --      4.7609                 4.7636                 4.7000
 Frc consts  --      2.9642                 2.9661                 2.9357
 IR Inten    --     62.7225                62.6779                 5.1198

                     55                     56                     57
                      A                      A                      A
 Frequencies --   1097.7427              1097.8018              1101.5181
 Red. masses --      7.9022                 7.9212                 8.0763
 Frc consts  --      5.6104                 5.6246                 5.7736
 IR Inten    --     80.9081                81.5320                13.6848

                     58                     59                     60
                      A                      A                      A
 Frequencies --   1118.2672              1118.3495              1121.2133
 Red. masses --      2.1233                 2.1213                 2.1021
 Frc consts  --      1.5644                 1.5632                 1.5569
 IR Inten    --     33.2045                32.7467                 6.3866

                     61                     62                     63
                      A                      A                      A
 Frequencies --   1139.4268              1139.4563              1139.5514
 Red. masses --      1.4014                 1.4020                 1.4022
 Frc consts  --      1.0720                 1.0725                 1.0728
 IR Inten    --      0.2158                 0.4817                 3.4390

                     64                     65                     66
                      A                      A                      A
 Frequencies --   1219.3359              1219.3650              1220.8579
 Red. masses --      1.1572                 1.1573                 1.1517
 Frc consts  --      1.0137                 1.0138                 1.0114
 IR Inten    --      4.8056                 4.8195                 0.8936

                     67                     68                     69
                      A                      A                      A
 Frequencies --   1318.3289              1322.2461              1322.3430
 Red. masses --      6.9252                 7.6320                 7.6833
 Frc consts  --      7.0914                 7.8617                 7.9156
 IR Inten    --      1.3160                 2.6728                 2.6605

                     70                     71                     72
                      A                      A                      A
 Frequencies --   1337.4354              1337.5027              1337.7302
 Red. masses --      1.3342                 1.3310                 1.3514
 Frc consts  --      1.4061                 1.4029                 1.4249
 IR Inten    --      0.4150                 0.3233                 1.5466

                     73                     74                     75
                      A                      A                      A
 Frequencies --   1429.5672              1430.0147              1430.0558
 Red. masses --      2.6346                 2.6411                 2.6415
 Frc consts  --      3.1723                 3.1822                 3.1828
 IR Inten    --     19.3912                 6.3982                 6.1556

                     76                     77                     78
                      A                      A                      A
 Frequencies --   1527.1436              1527.1683              1527.2077
 Red. masses --      2.0947                 2.0765                 2.0765
 Frc consts  --      2.8783                 2.8533                 2.8535
 IR Inten    --     14.5288                64.2044                63.3062

                     79                     80                     81
                      A                      A                      A
 Frequencies --   1611.0391              1611.2830              1611.3055
 Red. masses --      6.6428                 6.6607                 6.6605
 Frc consts  --     10.1581                10.1886                10.1886
 IR Inten    --      3.8684                 3.7926                 3.8327

                     82                     83                     84
                      A                      A                      A
 Frequencies --   1633.4420              1633.4620              1634.4958
 Red. masses --      5.4273                 5.4257                 5.4923
 Frc consts  --      8.5318                 8.5295                 8.6452
 IR Inten    --     29.8068                29.6349                13.1222

                     85                     86                     87
                      A                      A                      A
 Frequencies --   3188.0868              3188.1213              3188.1329
 Red. masses --      1.0893                 1.0892                 1.0892
 Frc consts  --      6.5232                 6.5225                 6.5226
 IR Inten    --      8.7149                 2.0457                 1.9307

                     88                     89                     90
                      A                      A                      A
 Frequencies --   3205.7516              3205.8684              3206.4395
 Red. masses --      1.0878                 1.0878                 1.0879
 Frc consts  --      6.5868                 6.5871                 6.5898
 IR Inten    --      0.8578                 0.8692                 0.6479

                     91                     92                     93
                      A                      A                      A
 Frequencies --   3222.6203              3222.6355              3222.7690
 Red. masses --      1.0938                 1.0938                 1.0937
 Frc consts  --      6.6925                 6.6926                 6.6927
 IR Inten    --      2.2767                 2.2731                10.0459

                     94                     95                     96
                      A                      A                      A
 Frequencies --   3223.7015              3223.7144              3223.9553
 Red. masses --      1.0939                 1.0939                 1.0941
 Frc consts  --      6.6979                 6.6980                 6.7002
 IR Inten    --      5.7019                 5.6762                 0.0101

 - Thermochemistry -
 -------------------
 Temperature   298.150 Kelvin.  Pressure   1.00000 Atm.
 Atom     1 has atomic number  6 and mass  12.00000

 Molecular mass:   363.97422 amu.
 Principal axes and moments of inertia in atomic units:
                           1         2         3
     Eigenvalues --  ******************************
           X            0.99967  -0.02549  -0.00000
           Y            0.02549   0.99967   0.00002
           Z            0.00000  -0.00002   1.00000
 This molecule is an asymmetric top.
 Rotational symmetry number  1.
 Warning -- assumption of classical behavior for rotation
           may cause significant error
 Rotational temperatures (Kelvin)      0.00723     0.00723     0.00405
 Rotational constants (GHZ):           0.15066     0.15058     0.08440
 Zero-point vibrational energy     643802.0 (Joules/Mol)
                                  153.87237 (Kcal/Mol)
 Warning -- explicit consideration of  30 degrees of freedom as
           vibrations may cause significant error
 Vibrational temperatures:     32.42    34.63    42.72    43.60    55.45
          (Kelvin)             58.43   157.46   169.31   169.62   260.53
                              269.70   270.03   379.92   422.56   422.79
                              447.39   472.98   473.23   552.59   552.65
                              596.72   596.94   599.72   614.40   718.77
                              733.00   733.17   765.06   789.70   789.72
                              927.08   927.13   928.46  1033.45  1033.59
                             1034.14  1073.52  1081.43  1081.49  1199.71
                             1200.31  1200.46  1217.16  1217.37  1221.73
                             1395.09  1395.29  1395.79  1400.59  1400.95
                             1405.63  1479.04  1479.07  1481.41  1579.41
                             1579.49  1584.84  1608.94  1609.06  1613.18
                             1639.38  1639.42  1639.56  1754.35  1754.39
                             1756.54  1896.78  1902.42  1902.56  1924.27
                             1924.37  1924.70  2056.83  2057.47  2057.53
                             2197.22  2197.25  2197.31  2317.93  2318.28
                             2318.31  2350.16  2350.19  2351.67  4586.95
                             4587.00  4587.01  4612.36  4612.53  4613.35
                             4636.63  4636.65  4636.85  4638.19  4638.21
                             4638.55

 Zero-point correction=                           0.245211 (Hartree/Particle)
 Thermal correction to Energy=                    0.264852
 Thermal correction to Enthalpy=                  0.265796
 Thermal correction to Gibbs Free Energy=         0.192410
 Sum of electronic and zero-point Energies=          -2414.841036
 Sum of electronic and thermal Energies=             -2414.821396
 Sum of electronic and thermal Enthalpies=           -2414.820451
 Sum of electronic and thermal Free Energies=        -2414.893837

                     E (Thermal)             CV                S
                      KCal/Mol        Cal/Mol-Kelvin    Cal/Mol-Kelvin
 Total                  166.197             74.116            154.454
 Electronic               0.000              0.000              0.000
 Translational            0.889              2.981             43.569
 Rotational               0.889              2.981             36.372
 Vibrational            164.420             68.154             74.513
 Vibration     1          0.593              1.985              6.397
 Vibration     2          0.593              1.985              6.266
 Vibration     3          0.593              1.984              5.850
 Vibration     4          0.594              1.984              5.809
 Vibration     5          0.594              1.981              5.333
 Vibration     6          0.594              1.981              5.229
 Vibration     7          0.606              1.942              3.279
 Vibration     8          0.608              1.935              3.138
 Vibration     9          0.608              1.934              3.135
 Vibration    10          0.630              1.865              2.317
 Vibration    11          0.632              1.857              2.253
 Vibration    12          0.632              1.857              2.251
 Vibration    13          0.671              1.739              1.635
 Vibration    14          0.688              1.685              1.453
 Vibration    15          0.689              1.685              1.452
 Vibration    16          0.700              1.653              1.357
 Vibration    17          0.712              1.618              1.266
 Vibration    18          0.712              1.618              1.265
 Vibration    19          0.753              1.504              1.023
 Vibration    20          0.753              1.504              1.023
 Vibration    21          0.778              1.438              0.910
 Vibration    22          0.778              1.438              0.909
 Vibration    23          0.780              1.434              0.903
 Vibration    24          0.789              1.411              0.868
 Vibration    25          0.855              1.251              0.659
 Vibration    26          0.865              1.229              0.635
 Vibration    27          0.865              1.229              0.635
 Vibration    28          0.887              1.180              0.583
 Vibration    29          0.904              1.142              0.547
 Vibration    30          0.904              1.142              0.546

                           ! Non-Optimized Parameters !
 Normal termination of Gaussian 16 at Sun Aug 23 01:31:39 2020.
 Gaussian 16:  ES64L-G16RevA.03 25-Dec-2016

 ----------------------------------------------------------------------
 # TD(NStates=10, Root=1) B3LYP/6-31G* scf=qc volume pop=NPA density=cu
 rrent Geom=AllCheck Guess=Read
 ----------------------------------------------------------------------

 Structure from the checkpoint file:  "phosphine_11_conf303.chk"
 -------------------
 Title Card Required
 -------------------
 Charge =  0 Multiplicity = 1

                         Standard orientation:
 ---------------------------------------------------------------------
 Center     Atomic      Atomic             Coordinates (Angstroms)
 Number     Number       Type             X           Y           Z
 ---------------------------------------------------------------------
      1          6           0       -2.740088   -2.983209    0.851252
      2          6           0       -2.025559   -1.905318    1.370753
      3          6           0       -0.862771   -1.428431    0.742785
      4          6           0       -0.418789   -2.080899   -0.417041
      5          6           0       -1.116111   -3.169193   -0.943597
      6          6           0       -2.274958   -3.608220   -0.305554
      7         17           0       -3.159195   -4.977098   -0.963617
      8         15           0        0.000499   -0.000076    1.547726
      9          6           0        1.669031   -0.033189    0.742628
     10          6           0        2.010282    0.673585   -0.420168
     11          6           0        3.301383    0.614398   -0.946850
     12          6           0        4.262826   -0.165114   -0.305881
     13          6           0        3.955927   -0.876443    0.853846
     14          6           0        2.665128   -0.797214    1.373368
     15         17           0        5.890425   -0.245632   -0.964001
     16          6           0       -0.805293    1.461385    0.742660
     17          6           0       -0.642596    2.705953    1.373790
     18          6           0       -1.219535    3.863315    0.854162
     19          6           0       -1.988179    3.773402   -0.306112
     20          6           0       -2.181584    2.551088   -0.947518
     21          6           0       -1.587193    1.403490   -0.420687
     22         17           0       -2.732410    5.223047   -0.964401
     23          1           0       -3.638994   -3.342186    1.341183
     24          1           0       -2.378256   -1.431416    2.283650
     25          1           0        0.483511   -1.744554   -0.918442
     26          1           0       -0.765088   -3.670416   -1.839631
     27          1           0        1.266362    1.283246   -0.923732
     28          1           0        3.558580    1.165950   -1.845157
     29          1           0        4.717646   -1.471870    1.345964
     30          1           0        2.432374   -1.336430    2.288473
     31          1           0       -0.059905    2.774010    2.289315
     32          1           0       -1.085486    4.820630    1.346613
     33          1           0       -2.787193    2.498023   -1.846261
     34          1           0       -1.742512    0.454447   -0.924556
 ---------------------------------------------------------------------

 SCF Done:  E(RB3LYP) =  -2415.08624752     a.u. after    1 cycles

 Excitation energies and oscillator strengths:

 Excited State   1:      Singlet-A      4.4052 eV  281.45 nm  f=0.1828  <S**2>=0.000
      93 -> 94         0.69578
 This state for optimization and/or second-order correction.
 Total Energy, E(TD-HF/TD-DFT) =  -2414.92436019
 Copying the excited state density for this state as the 1-particle RhoCI density.

 Excited State   2:      Singlet-A      4.4074 eV  281.31 nm  f=0.1841  <S**2>=0.000
      93 -> 95         0.69575

 Excited State   3:      Singlet-A      4.6120 eV  268.83 nm  f=0.0036  <S**2>=0.000
      89 -> 94         0.10991
      90 -> 95        -0.11037
      93 -> 96         0.67971

 Excited State   4:      Singlet-A      4.9173 eV  252.14 nm  f=0.0001  <S**2>=0.000
      88 -> 94         0.11717
      89 -> 95         0.11815
      89 -> 97        -0.10036
      90 -> 94        -0.11783
      93 -> 98         0.64554

 Excited State   5:      Singlet-A      4.9183 eV  252.09 nm  f=0.0001  <S**2>=0.000
      88 -> 95         0.11704
      89 -> 94         0.11852
      90 -> 95         0.11891
      90 -> 97         0.10117
      93 -> 99         0.64501

 Excited State   6:      Singlet-A      5.0222 eV  246.87 nm  f=0.0090  <S**2>=0.000
      91 -> 94        -0.11709
      92 -> 95        -0.11753
      93 -> 97         0.66874

 Excited State   7:      Singlet-A      5.2595 eV  235.73 nm  f=0.0017  <S**2>=0.000
      89 -> 94         0.13299
      90 -> 95        -0.12992
      91 -> 94        -0.24106
      91 -> 95        -0.37124
      91 -> 98        -0.12560
      92 -> 94         0.37611
      92 -> 95        -0.24015
      92 -> 99        -0.12331
      93 -> 96        -0.10396

 Excited State   8:      Singlet-A      5.3611 eV  231.27 nm  f=0.0051  <S**2>=0.000
      88 -> 94        -0.19186
      89 -> 95        -0.18697
      89 -> 97         0.11213
      90 -> 94         0.18743
      91 -> 95         0.12982
      91 -> 96         0.38077
      91 -> 99         0.13625
      92 -> 94         0.12910
      92 -> 96         0.22417
      92 -> 98         0.13838
      93 -> 98         0.22734

 Excited State   9:      Singlet-A      5.3621 eV  231.22 nm  f=0.0049  <S**2>=0.000
      88 -> 95        -0.18988
      89 -> 94        -0.18734
      90 -> 95        -0.18640
      90 -> 97        -0.11216
      91 -> 94         0.13047
      91 -> 96        -0.22246
      91 -> 98         0.13724
      92 -> 95        -0.13297
      92 -> 96         0.38336
      92 -> 99        -0.13693
      93 -> 99         0.22827

 Excited State  10:      Singlet-A      5.4211 eV  228.71 nm  f=0.1610  <S**2>=0.000
      91 -> 94         0.35170
      91 -> 95         0.30483
      92 -> 94         0.30467
      92 -> 95        -0.34860
      92 -> 96        -0.13554

 The electronic state is 1-A.
 Alpha  occ. eigenvalues -- -101.55493-101.55493-101.55490 -77.10094 -10.26330
 Alpha  occ. eigenvalues --  -10.26330 -10.26325 -10.21418 -10.21418 -10.21416
 Alpha  occ. eigenvalues --  -10.21368 -10.21367 -10.21365 -10.21347 -10.21347
 Alpha  occ. eigenvalues --  -10.21343 -10.21313 -10.21313 -10.21310 -10.21249
 Alpha  occ. eigenvalues --  -10.21249 -10.21245  -9.47125  -9.47125  -9.47122
 Alpha  occ. eigenvalues --   -7.23520  -7.23520  -7.23517  -7.22555  -7.22555
 Alpha  occ. eigenvalues --   -7.22552  -7.22518  -7.22518  -7.22515  -6.56809
 Alpha  occ. eigenvalues --   -4.73069  -4.73069  -4.72564  -0.89964  -0.89792
 Alpha  occ. eigenvalues --   -0.89789  -0.85153  -0.84237  -0.84235  -0.76898
 Alpha  occ. eigenvalues --   -0.76780  -0.76779  -0.76742  -0.73907  -0.73905
 Alpha  occ. eigenvalues --   -0.65058  -0.63150  -0.62987  -0.62986  -0.60497
 Alpha  occ. eigenvalues --   -0.60496  -0.57615  -0.52432  -0.52430  -0.49747
 Alpha  occ. eigenvalues --   -0.48088  -0.47999  -0.47998  -0.47167  -0.47166
 Alpha  occ. eigenvalues --   -0.46321  -0.44340  -0.44246  -0.44245  -0.42726
 Alpha  occ. eigenvalues --   -0.42723  -0.40319  -0.40239  -0.40236  -0.39581
 Alpha  occ. eigenvalues --   -0.37219  -0.37218  -0.37129  -0.35190  -0.35186
 Alpha  occ. eigenvalues --   -0.34134  -0.33461  -0.33458  -0.31867  -0.31863
 Alpha  occ. eigenvalues --   -0.31861  -0.27683  -0.27414  -0.27144  -0.27140
 Alpha  occ. eigenvalues --   -0.25831  -0.25826  -0.22678
 Alpha virt. eigenvalues --   -0.03959  -0.03954  -0.03033  -0.01964  -0.01789
 Alpha virt. eigenvalues --   -0.01783   0.02242   0.02244   0.02402   0.05588
 Alpha virt. eigenvalues --    0.05597   0.10344   0.12154   0.12344   0.12346

 Mulliken charges:
               1
     1  C   -0.115343
     2  C   -0.157042
     3  C   -0.079875
     4  C   -0.148009
     5  C   -0.116820
     6  C   -0.063390
     7  Cl   0.016737
     8  P    0.446473
     9  C   -0.126625
    10  C   -0.163942
    11  C   -0.121770
    12  C   -0.095839
    13  C   -0.118530
    14  C   -0.174528
    15  Cl  -0.035679
    16  C   -0.109191
    17  C   -0.157637
    18  C   -0.125800
    19  C   -0.091728
    20  C   -0.113723
    21  C   -0.172260
    22  Cl  -0.030306
    23  H    0.170708
    24  H    0.161978
    25  H    0.184616
    26  H    0.174495
    27  H    0.152268
    28  H    0.151517
    29  H    0.147249
    30  H    0.130619
    31  H    0.140186
    32  H    0.151185
    33  H    0.153039
    34  H    0.136965
 Sum of Mulliken charges =  -0.00000

 Dipole moment (field-independent basis, Debye):
    X=             -2.5409    Y=             -3.3441    Z=              1.9742  Tot=              4.6408
 Quadrupole moment (field-independent basis, Debye-Ang):
   XX=           -172.1919   YY=           -162.9165   ZZ=           -145.0360
   XY=              7.6668   XZ=             -0.1235   YZ=              1.0392

 Summary of Natural Population Analysis:

                                       Natural Population
                Natural  -----------------------------------------------
    Atom  No    Charge         Core      Valence    Rydberg      Total
 -----------------------------------------------------------------------
      C    1   -0.24493      1.99893     4.23066    0.01534     6.24493
      C    2   -0.19246      1.99902     4.17830    0.01514     6.19246
      C    3   -0.37714      1.99891     4.35333    0.02491     6.37714
      C    4   -0.19372      1.99900     4.17875    0.01597     6.19372
      C    5   -0.24122      1.99892     4.22703    0.01527     6.24122
      C    6   -0.01492      1.99855     3.99409    0.02227     6.01492
     Cl    7    0.02891      9.99967     6.95215    0.01927    16.97109
      P    8    1.21203      9.99758     3.74055    0.04984    13.78797
      C    9   -0.47327      1.99888     4.44830    0.02609     6.47327
      C   10   -0.22686      1.99899     4.21056    0.01731     6.22686
      C   11   -0.25007      1.99893     4.23512    0.01602     6.25007
      C   12   -0.08143      1.99854     4.06063    0.02225     6.08143
      C   13   -0.25108      1.99894     4.23616    0.01598     6.25108
      C   14   -0.22543      1.99901     4.21028    0.01613     6.22543
     Cl   15   -0.01038      9.99967     6.99034    0.02036    17.01038
      C   16   -0.44456      1.99887     4.42148    0.02421     6.44456
      C   17   -0.19869      1.99901     4.18403    0.01565     6.19869
      C   18   -0.26436      1.99894     4.24887    0.01656     6.26436
      C   19   -0.07329      1.99854     4.05253    0.02222     6.07329
      C   20   -0.23576      1.99893     4.22136    0.01547     6.23576
      C   21   -0.24860      1.99899     4.23216    0.01745     6.24860
     Cl   22   -0.00663      9.99967     6.98674    0.02022    17.00663
      H   23    0.26142      0.00000     0.73752    0.00106     0.73858
      H   24    0.25029      0.00000     0.74855    0.00117     0.74971
      H   25    0.26694      0.00000     0.73187    0.00118     0.73306
      H   26    0.26373      0.00000     0.73522    0.00105     0.73627
      H   27    0.24848      0.00000     0.75000    0.00152     0.75152
      H   28    0.25309      0.00000     0.74586    0.00105     0.74691
      H   29    0.25025      0.00000     0.74866    0.00108     0.74975
      H   30    0.23330      0.00000     0.76578    0.00092     0.76670
      H   31    0.23964      0.00000     0.75925    0.00110     0.76036
      H   32    0.25283      0.00000     0.74614    0.00103     0.74717
      H   33    0.25354      0.00000     0.74541    0.00105     0.74646
      H   34    0.24035      0.00000     0.75831    0.00134     0.75965
 =======================================================================
   * Total *   -0.00000     75.97648   109.56603    0.45749   186.00000

 Normal termination of Gaussian 16 at Sun Aug 23 01:44:45 2020.
