 Gaussian 16, Revision A.03,

 ---------------------------------
 # opt=CalcAll B3LYP/6-31G* scf=qc
 ---------------------------------

 -------------------
 Title Card Required
 -------------------
 Symbolic Z-matrix:
 Charge =  0 Multiplicity = 1

 SCF Done:  E(RB3LYP) =  -1029.59281077     a.u. after    9 cycles
 SCF Done:  E(RB3LYP) =  -1029.61276241     a.u. after   17 cycles
 SCF Done:  E(RB3LYP) =  -1029.62064873     a.u. after   17 cycles
 SCF Done:  E(RB3LYP) =  -1029.62152881     a.u. after   13 cycles
 SCF Done:  E(RB3LYP) =  -1029.62158473     a.u. after   13 cycles
 SCF Done:  E(RB3LYP) =  -1029.62158663     a.u. after    5 cycles
 SCF Done:  E(RB3LYP) =  -1029.62158665     a.u. after    2 cycles
 Optimization completed.
    -- Stationary point found.
 Normal termination of Gaussian 16 at Sun Aug 23 13:27:44 2020.

 ----------------------------------------------------------------------
 # freq B3LYP/6-31G* scf=qc volume NMR pop=NPA density=current Geom=All
 Check Guess=Read
 ----------------------------------------------------------------------

 Structure from the checkpoint file:  "phosphine_9_conf142.chk"
 -------------------
 Title Card Required
 -------------------
 Charge =  0 Multiplicity = 1

 SCF Done:  E(RB3LYP) =  -1029.62158665     a.u. after    1 cycles

      1  C    Isotropic =    84.8776   Anisotropy =   120.4309

      2  C    Isotropic =    77.1688   Anisotropy =   131.0546

      3  C    Isotropic =    43.0872   Anisotropy =    87.7441

      4  O    Isotropic =    35.8136   Anisotropy =   304.7720

      5  C    Isotropic =    50.6672   Anisotropy =    98.6275

      6  P    Isotropic =   423.9414   Anisotropy =    51.9401

      7  C    Isotropic =    42.4534   Anisotropy =    93.6767

      8  C    Isotropic =    81.2783   Anisotropy =   120.3663

      9  C    Isotropic =    85.2382   Anisotropy =   119.6982

     10  C    Isotropic =    52.0281   Anisotropy =    96.5626

     11  O    Isotropic =    45.8283   Anisotropy =   299.1454

     12  C    Isotropic =    43.1791   Anisotropy =    90.7412

     13  C    Isotropic =    74.8133   Anisotropy =   134.4001

     14  C    Isotropic =    84.4401   Anisotropy =   121.0070

     15  C    Isotropic =    50.6892   Anisotropy =   101.2868

     16  O    Isotropic =    32.9263   Anisotropy =   300.6069

     17  H    Isotropic =    26.1026   Anisotropy =     2.4092

     18  H    Isotropic =    25.9845   Anisotropy =     7.6878

     19  H    Isotropic =    24.7715   Anisotropy =     3.6245

     20  H    Isotropic =    26.0801   Anisotropy =     6.9749

     21  H    Isotropic =    26.1610   Anisotropy =     2.3162

     22  H    Isotropic =    24.9394   Anisotropy =     4.0092

     23  H    Isotropic =    25.0940   Anisotropy =     6.1717

     24  H    Isotropic =    25.8513   Anisotropy =     2.1895

     25  H    Isotropic =    24.7237   Anisotropy =     3.4116

  Exact polarizability: 177.490   5.776 156.303   5.942   6.097 107.180
 Approx polarizability: 261.195  14.743 221.543  19.086  18.006 201.447

                      1                      2                      3
                      A                      A                      A
 Frequencies --     19.2101                33.4332                51.7855
 Red. masses --      4.7522                 4.6001                 5.7612
 Frc consts  --      0.0010                 0.0030                 0.0091
 IR Inten    --      0.3206                 0.2512                 0.2892

                      4                      5                      6
                      A                      A                      A
 Frequencies --     58.9901                78.0005                91.9398
 Red. masses --      5.2258                 5.0044                 5.1893
 Frc consts  --      0.0107                 0.0179                 0.0258
 IR Inten    --      0.1899                 0.4004                 0.4139

                      7                      8                      9
                      A                      A                      A
 Frequencies --    189.0052               210.6845               237.3160
 Red. masses --      5.8761                 5.5793                 5.4737
 Frc consts  --      0.1237                 0.1459                 0.1816
 IR Inten    --      1.0464                 1.4621                 0.5294

                     10                     11                     12
                      A                      A                      A
 Frequencies --    275.8232               284.7660               299.2998
 Red. masses --      7.6603                 6.9463                 6.4782
 Frc consts  --      0.3434                 0.3319                 0.3419
 IR Inten    --      2.5350                 2.8925                 3.3705

                     13                     14                     15
                      A                      A                      A
 Frequencies --    468.7389               489.9971               509.4149
 Red. masses --     11.3552                12.9271                13.7414
 Frc consts  --      1.4700                 1.8287                 2.1010
 IR Inten    --     23.2079                35.3731                41.2445

                     16                     17                     18
                      A                      A                      A
 Frequencies --    607.3633               610.9956               614.3635
 Red. masses --      3.3247                 3.2496                 3.3000
 Frc consts  --      0.7226                 0.7147                 0.7339
 IR Inten    --      7.7469                 8.0346                 7.6879

                     19                     20                     21
                      A                      A                      A
 Frequencies --    645.2929               660.9096               674.8832
 Red. masses --      6.1632                 6.2093                 5.9491
 Frc consts  --      1.5121                 1.5980                 1.5965
 IR Inten    --      2.0577                 2.8555                 1.5368

                     22                     23                     24
                      A                      A                      A
 Frequencies --    743.7609               755.3674               761.6997
 Red. masses --      1.3081                 1.2880                 1.2816
 Frc consts  --      0.4263                 0.4330                 0.4381
 IR Inten    --     41.4614                42.1883                43.6475

                     25                     26                     27
                      A                      A                      A
 Frequencies --    816.4099               824.7042               834.1776
 Red. masses --      1.2291                 1.2454                 1.2455
 Frc consts  --      0.4827                 0.4990                 0.5106
 IR Inten    --     17.5663                 8.5231                 3.6890

                     28                     29                     30
                      A                      A                      A
 Frequencies --    869.2978               877.9591               887.2770
 Red. masses --      1.2910                 1.3013                 1.2955
 Frc consts  --      0.5748                 0.5910                 0.6009
 IR Inten    --      0.8455                 1.0008                 1.0233

                     31                     32                     33
                      A                      A                      A
 Frequencies --    899.4465               900.1457               900.6430
 Red. masses --      6.2353                 6.2491                 6.2640
 Frc consts  --      2.9720                 2.9833                 2.9937
 IR Inten    --      4.2889                 2.4735                 2.7279

                     34                     35                     36
                      A                      A                      A
 Frequencies --    923.2918               925.2230               927.3570
 Red. masses --      4.7762                 4.6905                 4.6782
 Frc consts  --      2.3989                 2.3657                 2.3704
 IR Inten    --      9.2488                 6.5177                 6.9008

                     37                     38                     39
                      A                      A                      A
 Frequencies --   1036.2573              1037.1339              1039.9783
 Red. masses --      1.4179                 1.4150                 1.3918
 Frc consts  --      0.8971                 0.8968                 0.8869
 IR Inten    --      1.7267                31.6320                45.1801

                     40                     41                     42
                      A                      A                      A
 Frequencies --   1103.8612              1104.6969              1107.7694
 Red. masses --      2.1596                 2.2457                 2.2080
 Frc consts  --      1.5504                 1.6147                 1.5964
 IR Inten    --      1.0899                 1.6332                 1.2676

                     43                     44                     45
                      A                      A                      A
 Frequencies --   1136.1397              1140.1871              1149.0777
 Red. masses --      4.5880                 5.4891                 4.7597
 Frc consts  --      3.4893                 4.2044                 3.7028
 IR Inten    --      3.6931                 3.6402                21.6947

                     46                     47                     48
                      A                      A                      A
 Frequencies --   1198.2305              1198.8611              1202.1655
 Red. masses --      2.2450                 2.3876                 2.4220
 Frc consts  --      1.8991                 2.0219                 2.0623
 IR Inten    --     11.5139                 7.6726                 1.4038

                     49                     50                     51
                      A                      A                      A
 Frequencies --   1246.8661              1252.0610              1254.4496
 Red. masses --      1.6705                 1.6945                 1.6869
 Frc consts  --      1.5301                 1.5651                 1.5640
 IR Inten    --     15.2261                22.8124                 8.0680

                     52                     53                     54
                      A                      A                      A
 Frequencies --   1413.3443              1418.9517              1421.9780
 Red. masses --      2.4712                 2.5904                 2.6040
 Frc consts  --      2.9084                 3.0729                 3.1023
 IR Inten    --      2.9209                 1.7148                 4.0395

                     55                     56                     57
                      A                      A                      A
 Frequencies --   1487.8501              1491.1251              1501.9082
 Red. masses --      5.3810                 5.3319                 5.8221
 Frc consts  --      7.0183                 6.9849                 7.7378
 IR Inten    --     16.9988                15.4713                 9.6993

                     58                     59                     60
                      A                      A                      A
 Frequencies --   1605.1210              1606.3369              1607.2648
 Red. masses --      4.8312                 4.8387                 4.8096
 Frc consts  --      7.3337                 7.3561                 7.3204
 IR Inten    --      3.7451                 3.2079                 1.8454

                     61                     62                     63
                      A                      A                      A
 Frequencies --   3263.9677              3264.7428              3265.3071
 Red. masses --      1.0904                 1.0906                 1.0906
 Frc consts  --      6.8445                 6.8489                 6.8509
 IR Inten    --      4.3362                 6.1621                 2.7218

                     64                     65                     66
                      A                      A                      A
 Frequencies --   3279.2746              3281.4131              3284.1151
 Red. masses --      1.0975                 1.0970                 1.0968
 Frc consts  --      6.9535                 6.9594                 6.9698
 IR Inten    --      0.3684                 1.2255                 1.3500

                     67                     68                     69
                      A                      A                      A
 Frequencies --   3298.9325              3300.1890              3302.1643
 Red. masses --      1.1045                 1.1044                 1.1044
 Frc consts  --      7.0820                 7.0871                 7.0954
 IR Inten    --      2.4820                 1.6505                 1.6670

 - Thermochemistry -
 -------------------
 Temperature   298.150 Kelvin.  Pressure   1.00000 Atm.
 Atom     1 has atomic number  6 and mass  12.00000

 Molecular mass:   232.02893 amu.
 Principal axes and moments of inertia in atomic units:
                           1         2         3
     Eigenvalues --  3349.835603824.193186221.27799
           X            0.99985   0.01703   0.00376
           Y           -0.01703   0.99985  -0.00089
           Z           -0.00378   0.00082   0.99999
 This molecule is an asymmetric top.
 Rotational symmetry number  1.
 Warning -- assumption of classical behavior for rotation
           may cause significant error
 Rotational temperatures (Kelvin)      0.02586     0.02265     0.01392
 Rotational constants (GHZ):           0.53876     0.47193     0.29009
 Zero-point vibrational energy     480065.6 (Joules/Mol)
                                  114.73842 (Kcal/Mol)
 Warning -- explicit consideration of  18 degrees of freedom as
           vibrations may cause significant error
 Vibrational temperatures:     27.64    48.10    74.51    84.87   112.23
          (Kelvin)            132.28   271.94   303.13   341.44   396.85
                              409.71   430.63   674.41   705.00   732.93
                              873.86   879.09   883.93   928.43   950.90
                              971.01  1070.11  1086.81  1095.92  1174.63
                             1186.57  1200.20  1250.73  1263.19  1276.59
                             1294.10  1295.11  1295.82  1328.41  1331.19
                             1334.26  1490.94  1492.20  1496.30  1588.21
                             1589.41  1593.83  1634.65  1640.47  1653.27
                             1723.99  1724.89  1729.65  1793.96  1801.44
                             1804.87  2033.49  2041.56  2045.91  2140.68
                             2145.40  2160.91  2309.41  2311.16  2312.50
                             4696.12  4697.24  4698.05  4718.14  4721.22
                             4725.11  4746.43  4748.24  4751.08

 Zero-point correction=                           0.182847 (Hartree/Particle)
 Thermal correction to Energy=                    0.196460
 Thermal correction to Enthalpy=                  0.197404
 Thermal correction to Gibbs Free Energy=         0.139161
 Sum of electronic and zero-point Energies=          -1029.438739
 Sum of electronic and thermal Energies=             -1029.425126
 Sum of electronic and thermal Enthalpies=           -1029.424182
 Sum of electronic and thermal Free Energies=        -1029.482426

                     E (Thermal)             CV                S
                      KCal/Mol        Cal/Mol-Kelvin    Cal/Mol-Kelvin
 Total                  123.281             50.836            122.584
 Electronic               0.000              0.000              0.000
 Translational            0.889              2.981             42.227
 Rotational               0.889              2.981             32.744
 Vibrational            121.503             44.874             47.613
 Vibration     1          0.593              1.986              6.714
 Vibration     2          0.594              1.983              5.615
 Vibration     3          0.596              1.977              4.748
 Vibration     4          0.596              1.974              4.491
 Vibration     5          0.599              1.964              3.941
 Vibration     6          0.602              1.955              3.618
 Vibration     7          0.633              1.855              2.238
 Vibration     8          0.643              1.825              2.038
 Vibration     9          0.656              1.784              1.823
 Vibration    10          0.677              1.718              1.559
 Vibration    11          0.683              1.702              1.505
 Vibration    12          0.692              1.675              1.421
 Vibration    13          0.826              1.319              0.741
 Vibration    14          0.846              1.272              0.684
 Vibration    15          0.865              1.229              0.635
 Vibration    16          0.966              1.016              0.437
 Vibration    17          0.970              1.009              0.431
 Vibration    18          0.974              1.001              0.426

 Optimization completed.
    -- Stationary point found.
 Normal termination of Gaussian 16 at Sun Aug 23 13:34:28 2020.
 Gaussian 16:  ES64L-G16RevA.03 25-Dec-2016

 ----------------------------------------------------------------------
 # TD(NStates=10, Root=1) B3LYP/6-31G* scf=qc volume pop=NPA density=cu
 rrent Geom=AllCheck Guess=Read
 ----------------------------------------------------------------------

 Structure from the checkpoint file:  "phosphine_9_conf143.chk"
 -------------------
 Title Card Required
 -------------------
 Charge =  0 Multiplicity = 1

                         Standard orientation:
 ---------------------------------------------------------------------
 Center     Atomic      Atomic             Coordinates (Angstroms)
 Number     Number       Type             X           Y           Z
 ---------------------------------------------------------------------
      1          6           0       -1.541386   -3.081525    1.112950
      2          6           0       -0.544267   -2.060311    1.027067
      3          6           0       -0.774153   -1.378061   -0.137954
      4          8           0       -1.856931   -1.933934   -0.781423
      5          6           0       -2.309021   -2.952187   -0.005588
      6         15           0        0.031714   -0.013348   -1.054651
      7          6           0       -0.712219    1.460953   -0.251579
      8          6           0       -0.235865    2.660683    0.204856
      9          6           0       -1.380793    3.461336    0.527281
     10          6           0       -2.469104    2.698979    0.238197
     11          8           0       -2.084544    1.482992   -0.244527
     12          6           0        1.664067    0.018582   -0.243568
     13          6           0        2.163659    0.393207    0.977265
     14          6           0        3.570222    0.138869    0.948947
     15          6           0        3.832188   -0.375208   -0.285922
     16          8           0        2.696924   -0.452231   -1.024556
     17          1           0       -1.667175   -3.812234    1.900053
     18          1           0        0.247757   -1.857351    1.733545
     19          1           0       -3.171267   -3.481336   -0.383029
     20          1           0        0.803327    2.939939    0.299312
     21          1           0       -1.384792    4.466545    0.925738
     22          1           0       -3.534528    2.853097    0.317644
     23          1           0        1.588433    0.806494    1.793703
     24          1           0        4.286471    0.315562    1.739446
     25          1           0        4.732485   -0.717011   -0.774320
 ---------------------------------------------------------------------

 SCF Done:  E(RB3LYP) =  -1029.62158665     a.u. after    1 cycles

 Excitation energies and oscillator strengths:

 Excited State   1:      Singlet-A      4.5064 eV  275.13 nm  f=0.0449  <S**2>=0.000
      60 -> 61         0.69584
 This state for optimization and/or second-order correction.
 Total Energy, E(TD-HF/TD-DFT) =  -1029.45598118
 Copying the excited state density for this state as the 1-particle RhoCI density.

 Excited State   2:      Singlet-A      4.9473 eV  250.61 nm  f=0.0245  <S**2>=0.000
      59 -> 61        -0.18651
      60 -> 62         0.64363
      60 -> 63         0.16941

 Excited State   3:      Singlet-A      4.9801 eV  248.96 nm  f=0.0638  <S**2>=0.000
      59 -> 61         0.64808
      59 -> 62         0.17876
      60 -> 62         0.13070
      60 -> 63         0.14794

 Excited State   4:      Singlet-A      5.3548 eV  231.54 nm  f=0.1371  <S**2>=0.000
      59 -> 63        -0.36332
      60 -> 62        -0.15277
      60 -> 63         0.56989

 Excited State   5:      Singlet-A      5.4515 eV  227.43 nm  f=0.1377  <S**2>=0.000
      58 -> 61         0.46996
      58 -> 62        -0.12723
      59 -> 61        -0.12492
      59 -> 62         0.47173

 Excited State   6:      Singlet-A      5.6441 eV  219.67 nm  f=0.3204  <S**2>=0.000
      58 -> 61         0.28577
      58 -> 62        -0.15221
      59 -> 62        -0.34879
      59 -> 63         0.44314
      60 -> 63         0.24350

 Excited State   7:      Singlet-A      5.7901 eV  214.13 nm  f=0.0192  <S**2>=0.000
      58 -> 61        -0.29458
      58 -> 63         0.30079
      59 -> 62         0.27382
      59 -> 63         0.36205
      59 -> 64         0.12497
      60 -> 62        -0.14266
      60 -> 63         0.20734

 Excited State   8:      Singlet-A      5.9042 eV  209.99 nm  f=0.1542  <S**2>=0.000
      58 -> 61         0.15618
      58 -> 62         0.64694
      58 -> 63        -0.11686
      58 -> 64         0.10431
      60 -> 64         0.10655

 Excited State   9:      Singlet-A      6.0426 eV  205.18 nm  f=0.0263  <S**2>=0.000
      58 -> 63         0.36235
      60 -> 64         0.57265

 Excited State  10:      Singlet-A      6.1636 eV  201.15 nm  f=0.0081  <S**2>=0.000
      55 -> 61         0.10698
      58 -> 61         0.21018
      58 -> 63         0.46583
      59 -> 63        -0.10174
      59 -> 64        -0.13785
      60 -> 64        -0.35830

 The electronic state is 1-A.
 Alpha  occ. eigenvalues --  -77.10534 -19.22113 -19.21284 -19.21187 -10.24456
 Alpha  occ. eigenvalues --  -10.24283 -10.23630 -10.23627 -10.23408 -10.23404
 Alpha  occ. eigenvalues --  -10.19696 -10.19460 -10.18809 -10.18652 -10.18613
 Alpha  occ. eigenvalues --  -10.18571  -6.57200  -4.73481  -4.73446  -4.72947
 Alpha  occ. eigenvalues --   -1.11267  -1.10476  -1.10303  -0.80526  -0.79590
 Alpha  occ. eigenvalues --   -0.79429  -0.77575  -0.74138  -0.73655  -0.64934
 Alpha  occ. eigenvalues --   -0.60517  -0.59736  -0.59460  -0.56009  -0.55671
 Alpha  occ. eigenvalues --   -0.54805  -0.53349  -0.52998  -0.48966  -0.45546
 Alpha  occ. eigenvalues --   -0.44841  -0.44330  -0.43230  -0.42698  -0.41939
 Alpha  occ. eigenvalues --   -0.40981  -0.40178  -0.39760  -0.39129  -0.38398
 Alpha  occ. eigenvalues --   -0.37502  -0.36656  -0.35705  -0.28504  -0.28390
 Alpha  occ. eigenvalues --   -0.27573  -0.27371  -0.23915  -0.22205  -0.20909
 Alpha virt. eigenvalues --   -0.01491   0.00220   0.00791   0.04274   0.05386
 Alpha virt. eigenvalues --    0.06925   0.07397   0.09804   0.11454   0.12154
 Alpha virt. eigenvalues --    0.13011   0.13665   0.14372   0.15050   0.15613

 Mulliken charges:
               1
     1  C   -0.177271
     2  C   -0.175496
     3  C    0.067331
     4  O   -0.428985
     5  C    0.064962
     6  P    0.413462
     7  C    0.174188
     8  C   -0.158565
     9  C   -0.169187
    10  C    0.143423
    11  O   -0.396511
    12  C    0.043548
    13  C   -0.214577
    14  C   -0.177422
    15  C    0.051807
    16  O   -0.442274
    17  H    0.132796
    18  H    0.147503
    19  H    0.141306
    20  H    0.211410
    21  H    0.183968
    22  H    0.204373
    23  H    0.108717
    24  H    0.119708
    25  H    0.131786
 Sum of Mulliken charges =   0.00000

 Dipole moment (field-independent basis, Debye):
    X=             -4.0075    Y=              5.6871    Z=              1.8723  Tot=              7.2048
 Quadrupole moment (field-independent basis, Debye-Ang):
   XX=            -91.4828   YY=            -80.0890   ZZ=            -98.0140
   XY=             -7.3616   XZ=             -0.2045   YZ=              1.6577

 Summary of Natural Population Analysis:

                                       Natural Population
                Natural  -----------------------------------------------
    Atom  No    Charge         Core      Valence    Rydberg      Total
 -----------------------------------------------------------------------
      C    1   -0.33024      1.99908     4.31845    0.01272     6.33024
      C    2   -0.32216      1.99891     4.30694    0.01632     6.32216
      C    3   -0.11850      1.99886     4.08095    0.03869     6.11850
      O    4   -0.47364      1.99975     6.46033    0.01356     8.47364
      C    5    0.07588      1.99905     3.90046    0.02461     5.92412
      P    6    1.04892      9.99754     3.89009    0.06346    13.95108
      C    7    0.06540      1.99895     3.89962    0.03603     5.93460
      C    8   -0.25099      1.99895     4.23769    0.01434     6.25099
      C    9   -0.30405      1.99911     4.29187    0.01306     6.30405
      C   10    0.21026      1.99905     3.76873    0.02197     5.78974
      O   11   -0.45531      1.99974     6.43630    0.01927     8.45531
      C   12   -0.18220      1.99884     4.14794    0.03542     6.18220
      C   13   -0.38900      1.99892     4.37193    0.01815     6.38900
      C   14   -0.33302      1.99907     4.32095    0.01299     6.33302
      C   15    0.05263      1.99905     3.92319    0.02513     5.94737
      O   16   -0.48037      1.99975     6.46752    0.01310     8.48037
      H   17    0.24327      0.00000     0.75628    0.00045     0.75673
      H   18    0.25208      0.00000     0.74675    0.00117     0.74792
      H   19    0.21691      0.00000     0.78257    0.00052     0.78309
      H   20    0.28367      0.00000     0.71590    0.00043     0.71633
      H   21    0.26598      0.00000     0.73374    0.00029     0.73402
      H   22    0.24384      0.00000     0.75581    0.00036     0.75616
      H   23    0.23002      0.00000     0.76965    0.00033     0.76998
      H   24    0.23700      0.00000     0.76255    0.00045     0.76300
      H   25    0.21363      0.00000     0.78597    0.00039     0.78637
 =======================================================================
   * Total *   -0.00000     39.98461    79.63218    0.38321   120.00000

 Normal termination of Gaussian 16 at Sun Aug 23 13:42:54 2020.
