 Gaussian 16, Revision A.03,

 ---------------------------------
 # opt=CalcAll B3LYP/6-31G* scf=qc
 ---------------------------------

 -------------------
 Title Card Required
 -------------------
 Symbolic Z-matrix:
 Charge =  0 Multiplicity = 1

 SCF Done:  E(RB3LYP) =  -1333.98438097     a.u. after    7 cycles
 SCF Done:  E(RB3LYP) =  -1333.99442480     a.u. after   17 cycles
 SCF Done:  E(RB3LYP) =  -1333.99726780     a.u. after   17 cycles
 SCF Done:  E(RB3LYP) =  -1333.99841457     a.u. after   17 cycles
 SCF Done:  E(RB3LYP) =  -1333.99885714     a.u. after   17 cycles
 SCF Done:  E(RB3LYP) =  -1333.99894281     a.u. after   15 cycles
 SCF Done:  E(RB3LYP) =  -1333.99897681     a.u. after   11 cycles
 SCF Done:  E(RB3LYP) =  -1333.99897546     a.u. after    5 cycles
 SCF Done:  E(RB3LYP) =  -1333.99897539     a.u. after    3 cycles
 SCF Done:  E(RB3LYP) =  -1333.99897868     a.u. after    4 cycles
 SCF Done:  E(RB3LYP) =  -1333.99897298     a.u. after    5 cycles
 SCF Done:  E(RB3LYP) =  -1333.99897932     a.u. after    3 cycles
 SCF Done:  E(RB3LYP) =  -1333.99898001     a.u. after    2 cycles
 Optimization completed.
    -- Stationary point found.
 Normal termination of Gaussian 16 at Sun Aug 23 15:35:15 2020.

 ----------------------------------------------------------------------
 # freq B3LYP/6-31G* scf=qc volume NMR pop=NPA density=current Geom=All
 Check Guess=Read
 ----------------------------------------------------------------------

 Structure from the checkpoint file:  "phosphine_5_conf82.chk"
 -------------------
 Title Card Required
 -------------------
 Charge =  0 Multiplicity = 1

 SCF Done:  E(RB3LYP) =  -1333.99898001     a.u. after    1 cycles

      1  C    Isotropic =    79.9272   Anisotropy =   137.4257

      2  C    Isotropic =    59.0331   Anisotropy =   162.7738

      3  C    Isotropic =    61.5940   Anisotropy =   173.4876

      4  C    Isotropic =    60.6987   Anisotropy =   171.8492

      5  C    Isotropic =    80.0610   Anisotropy =   136.7104

      6  C    Isotropic =    32.6689   Anisotropy =    98.8145

      7  F    Isotropic =   295.8118   Anisotropy =   113.0674

      8  P    Isotropic =   366.1573   Anisotropy =    39.8249

      9  C    Isotropic =    61.5891   Anisotropy =   173.4566

     10  C    Isotropic =    60.7165   Anisotropy =   171.8082

     11  C    Isotropic =    80.0600   Anisotropy =   136.6942

     12  C    Isotropic =    32.6720   Anisotropy =    98.8253

     13  C    Isotropic =    79.9236   Anisotropy =   137.4220

     14  C    Isotropic =    59.0470   Anisotropy =   162.7984

     15  F    Isotropic =   295.8237   Anisotropy =   113.0569

     16  C    Isotropic =    61.6295   Anisotropy =   173.4725

     17  C    Isotropic =    60.7001   Anisotropy =   171.8879

     18  C    Isotropic =    80.0666   Anisotropy =   136.7267

     19  C    Isotropic =    32.6622   Anisotropy =    98.8282

     20  C    Isotropic =    79.9388   Anisotropy =   137.4322

     21  C    Isotropic =    59.0309   Anisotropy =   162.7699

     22  F    Isotropic =   295.7792   Anisotropy =   113.0219

     23  H    Isotropic =    25.3584   Anisotropy =     4.2598

     24  H    Isotropic =    24.6199   Anisotropy =     8.9194

     25  H    Isotropic =    25.3667   Anisotropy =    12.0178

     26  H    Isotropic =    25.4657   Anisotropy =     5.7376

     27  H    Isotropic =    25.3707   Anisotropy =    12.0211

     28  H    Isotropic =    25.4664   Anisotropy =     5.7375

     29  H    Isotropic =    25.3559   Anisotropy =     4.2641

     30  H    Isotropic =    24.6226   Anisotropy =     8.9235

     31  H    Isotropic =    25.3643   Anisotropy =    12.0126

     32  H    Isotropic =    25.4639   Anisotropy =     5.7392

     33  H    Isotropic =    25.3579   Anisotropy =     4.2578

     34  H    Isotropic =    24.6195   Anisotropy =     8.9148

  Exact polarizability: 226.250  -0.044 226.096   0.014   0.060 167.715
 Approx polarizability: 337.945  -0.095 337.669   0.035   0.137 314.849

                      1                      2                      3
                      A                      A                      A
 Frequencies --     24.6908                25.9683                37.5448
 Red. masses --      4.0991                 4.1595                 8.8522
 Frc consts  --      0.0015                 0.0017                 0.0074
 IR Inten    --      0.2537                 0.2432                 0.0954

                      4                      5                      6
                      A                      A                      A
 Frequencies --     37.7757                40.5219                50.7138
 Red. masses --      8.6201                 3.7468                 9.9574
 Frc consts  --      0.0072                 0.0036                 0.0151
 IR Inten    --      0.1063                 0.0061                 0.1145

                      7                      8                      9
                      A                      A                      A
 Frequencies --    133.1109               145.4694               145.7809
 Red. masses --      8.0517                 8.3690                 8.3724
 Frc consts  --      0.0841                 0.1043                 0.1048
 IR Inten    --      0.0227                 0.5184                 0.5150

                     10                     11                     12
                      A                      A                      A
 Frequencies --    208.9889               219.1192               219.2940
 Red. masses --      8.0479                 6.9925                 6.9907
 Frc consts  --      0.2071                 0.1978                 0.1981
 IR Inten    --      0.2912                 0.5264                 0.5229

                     13                     14                     15
                      A                      A                      A
 Frequencies --    307.9435               336.0665               336.2226
 Red. masses --      8.4346                 8.3091                 8.3116
 Frc consts  --      0.4713                 0.5529                 0.5536
 IR Inten    --      1.0304                 0.0447                 0.0455

                     16                     17                     18
                      A                      A                      A
 Frequencies --    397.2344               404.1067               404.1874
 Red. masses --      7.7316                 8.0334                 8.0038
 Frc consts  --      0.7188                 0.7729                 0.7704
 IR Inten    --      0.3069                10.0486                10.0743

                     19                     20                     21
                      A                      A                      A
 Frequencies --    420.7682               420.7961               424.7227
 Red. masses --      3.2811                 3.2818                 3.1339
 Frc consts  --      0.3423                 0.3424                 0.3331
 IR Inten    --      1.1050                 1.1725                 0.0223

                     22                     23                     24
                      A                      A                      A
 Frequencies --    435.0981               435.1723               463.5208
 Red. masses --      6.1558                 6.1452                 6.6407
 Frc consts  --      0.6866                 0.6857                 0.8406
 IR Inten    --     19.0349                19.0232                 7.3584

                     25                     26                     27
                      A                      A                      A
 Frequencies --    533.1242               533.2869               535.6019
 Red. masses --      2.8113                 2.8115                 2.9082
 Frc consts  --      0.4708                 0.4711                 0.4915
 IR Inten    --     21.8169                21.8312                13.4992

                     28                     29                     30
                      A                      A                      A
 Frequencies --    608.0751               630.0015               630.0198
 Red. masses --      7.9073                 7.8285                 7.8295
 Frc consts  --      1.7226                 1.8307                 1.8310
 IR Inten    --      0.0087                 0.0380                 0.0380

                     31                     32                     33
                      A                      A                      A
 Frequencies --    648.2370               648.4097               648.4376
 Red. masses --      7.2777                 7.3789                 7.3793
 Frc consts  --      1.8018                 1.8279                 1.8281
 IR Inten    --      0.0060                 0.1281                 0.1272

                     34                     35                     36
                      A                      A                      A
 Frequencies --    715.1777               715.7170               715.8103
 Red. masses --      4.8112                 4.8295                 4.8329
 Frc consts  --      1.4499                 1.4576                 1.4590
 IR Inten    --      1.0057                 3.9624                 3.9853

                     37                     38                     39
                      A                      A                      A
 Frequencies --    835.8222               835.8865               836.9024
 Red. masses --      1.2629                 1.2646                 1.3261
 Frc consts  --      0.5198                 0.5206                 0.5473
 IR Inten    --      0.5662                 0.6221                11.1179

                     40                     41                     42
                      A                      A                      A
 Frequencies --    839.5553               839.5819               839.7721
 Red. masses --      3.2330                 3.2923                 3.9748
 Frc consts  --      1.3426                 1.3673                 1.6515
 IR Inten    --     62.0894                61.0741                18.4380

                     43                     44                     45
                      A                      A                      A
 Frequencies --    843.6953               843.7513               844.0323
 Red. masses --      1.9989                 1.9881                 1.6758
 Frc consts  --      0.8383                 0.8339                 0.7034
 IR Inten    --     10.2638                10.2991                12.1591

                     46                     47                     48
                      A                      A                      A
 Frequencies --    958.6723               958.8038               959.9162
 Red. masses --      1.2559                 1.2558                 1.2582
 Frc consts  --      0.6801                 0.6802                 0.6830
 IR Inten    --      0.1658                 0.1627                 0.3371

                     49                     50                     51
                      A                      A                      A
 Frequencies --    969.9643               970.1131               973.2942
 Red. masses --      1.3353                 1.3350                 1.3203
 Frc consts  --      0.7402                 0.7403                 0.7369
 IR Inten    --      0.0331                 0.0299                 0.3060

                     52                     53                     54
                      A                      A                      A
 Frequencies --   1034.7492              1034.7795              1035.1889
 Red. masses --      3.0283                 3.0303                 3.0228
 Frc consts  --      1.9104                 1.9117                 1.9086
 IR Inten    --      7.9741                 7.9347                 0.0940

                     55                     56                     57
                      A                      A                      A
 Frequencies --   1102.9107              1103.0513              1108.6899
 Red. masses --      3.6663                 3.6668                 3.5547
 Frc consts  --      2.6276                 2.6286                 2.5744
 IR Inten    --     19.2111                19.2542                 1.9186

                     58                     59                     60
                      A                      A                      A
 Frequencies --   1127.6207              1127.6792              1127.8787
 Red. masses --      1.3308                 1.3304                 1.3291
 Frc consts  --      0.9970                 0.9968                 0.9962
 IR Inten    --      1.0569                 0.8448                 7.1054

                     61                     62                     63
                      A                      A                      A
 Frequencies --   1195.3429              1195.4768              1199.4186
 Red. masses --      1.1839                 1.1848                 1.1798
 Frc consts  --      0.9967                 0.9976                 1.0000
 IR Inten    --     60.7034                61.0521                 2.4664

                     64                     65                     66
                      A                      A                      A
 Frequencies --   1285.3638              1285.4295              1286.1829
 Red. masses --      3.7535                 3.7468                 3.7872
 Frc consts  --      3.6538                 3.6476                 3.6913
 IR Inten    --    166.8790               167.1427                38.5746

                     67                     68                     69
                      A                      A                      A
 Frequencies --   1324.2347              1327.4823              1327.6545
 Red. masses --      2.7372                 2.2506                 2.2715
 Frc consts  --      2.8281                 2.3368                 2.3590
 IR Inten    --      8.8460                 3.9659                 3.8472

                     70                     71                     72
                      A                      A                      A
 Frequencies --   1336.7588              1336.8305              1337.0899
 Red. masses --      2.3026                 2.2639                 1.9482
 Frc consts  --      2.4242                 2.3837                 2.0522
 IR Inten    --      0.3346                 0.3178                 0.9282

                     73                     74                     75
                      A                      A                      A
 Frequencies --   1437.9619              1438.1561              1438.2064
 Red. masses --      2.9848                 2.9908                 2.9912
 Frc consts  --      3.6363                 3.6446                 3.6453
 IR Inten    --      7.0259                 2.8235                 2.3115

                     76                     77                     78
                      A                      A                      A
 Frequencies --   1545.6204              1545.6505              1546.4869
 Red. masses --      2.4071                 2.4062                 2.4453
 Frc consts  --      3.3881                 3.3869                 3.4457
 IR Inten    --    116.6012               116.5489                24.1065

                     79                     80                     81
                      A                      A                      A
 Frequencies --   1633.9651              1633.9932              1634.0051
 Red. masses --      6.9684                 6.9715                 6.9590
 Frc consts  --     10.9615                10.9668                10.9472
 IR Inten    --     10.2146                 9.1255                15.4176

                     82                     83                     84
                      A                      A                      A
 Frequencies --   1653.5374              1653.5479              1654.3931
 Red. masses --      5.8073                 5.8073                 5.8786
 Frc consts  --      9.3551                 9.3554                 9.4798
 IR Inten    --     82.7756                82.6797                22.5021

                     85                     86                     87
                      A                      A                      A
 Frequencies --   3188.8594              3188.8832              3188.8974
 Red. masses --      1.0893                 1.0891                 1.0892
 Frc consts  --      6.5262                 6.5255                 6.5256
 IR Inten    --      9.4071                 1.8209                 2.1782

                     88                     89                     90
                      A                      A                      A
 Frequencies --   3205.8321              3205.9552              3206.5586
 Red. masses --      1.0878                 1.0878                 1.0878
 Frc consts  --      6.5868                 6.5871                 6.5902
 IR Inten    --      2.0077                 2.0456                 0.3656

                     91                     92                     93
                      A                      A                      A
 Frequencies --   3221.8829              3221.9280              3222.1557
 Red. masses --      1.0942                 1.0942                 1.0941
 Frc consts  --      6.6923                 6.6923                 6.6926
 IR Inten    --      3.3616                 3.2936                11.8421

                     94                     95                     96
                      A                      A                      A
 Frequencies --   3222.6375              3222.7228              3222.9194
 Red. masses --      1.0937                 1.0936                 1.0939
 Frc consts  --      6.6920                 6.6921                 6.6945
 IR Inten    --     11.8598                12.0383                 0.3688

 - Thermochemistry -
 -------------------
 Temperature   298.150 Kelvin.  Pressure   1.00000 Atm.
 Atom     1 has atomic number  6 and mass  12.00000

 Molecular mass:   316.06287 amu.
 Principal axes and moments of inertia in atomic units:
                           1         2         3
     Eigenvalues --  8316.052248320.76870**********
           X            0.99986  -0.01646  -0.00000
           Y            0.01646   0.99986   0.00002
           Z           -0.00000  -0.00002   1.00000
 This molecule is an asymmetric top.
 Rotational symmetry number  1.
 Warning -- assumption of classical behavior for rotation
           may cause significant error
 Rotational temperatures (Kelvin)      0.01042     0.01041     0.00597
 Rotational constants (GHZ):           0.21702     0.21690     0.12430
 Zero-point vibrational energy     655320.6 (Joules/Mol)
                                  156.62538 (Kcal/Mol)
 Warning -- explicit consideration of  28 degrees of freedom as
           vibrations may cause significant error
 Vibrational temperatures:     35.52    37.36    54.02    54.35    58.30
          (Kelvin)             72.97   191.52   209.30   209.75   300.69
                              315.26   315.52   443.06   483.52   483.75
                              571.53   581.42   581.54   605.39   605.43
                              611.08   626.01   626.12   666.90   767.05
                              767.28   770.61   874.88   906.43   906.46
                              932.67   932.92   932.96  1028.98  1029.76
                             1029.89  1202.56  1202.65  1204.12  1207.93
                             1207.97  1208.24  1213.89  1213.97  1214.37
                             1379.32  1379.50  1381.11  1395.56  1395.78
                             1400.35  1488.77  1488.82  1489.41  1586.84
                             1587.04  1595.16  1622.39  1622.48  1622.77
                             1719.83  1720.02  1725.70  1849.35  1849.45
                             1850.53  1905.28  1909.95  1910.20  1923.30
                             1923.40  1923.77  2068.91  2069.19  2069.26
                             2223.80  2223.85  2225.05  2350.91  2350.95
                             2350.97  2379.07  2379.09  2380.30  4588.06
                             4588.09  4588.11  4612.48  4612.65  4613.52
                             4635.57  4635.64  4635.96  4636.66  4636.78
                             4637.06

 Zero-point correction=                           0.249598 (Hartree/Particle)
 Thermal correction to Energy=                    0.268020
 Thermal correction to Enthalpy=                  0.268965
 Thermal correction to Gibbs Free Energy=         0.199632
 Sum of electronic and zero-point Energies=          -1333.749382
 Sum of electronic and thermal Energies=             -1333.730960
 Sum of electronic and thermal Enthalpies=           -1333.730015
 Sum of electronic and thermal Free Energies=        -1333.799348

                     E (Thermal)             CV                S
                      KCal/Mol        Cal/Mol-Kelvin    Cal/Mol-Kelvin
 Total                  168.185             71.391            145.922
 Electronic               0.000              0.000              0.000
 Translational            0.889              2.981             43.148
 Rotational               0.889              2.981             35.262
 Vibrational            166.408             65.429             67.512
 Vibration     1          0.593              1.985              6.216
 Vibration     2          0.593              1.985              6.116
 Vibration     3          0.594              1.982              5.385
 Vibration     4          0.594              1.982              5.372
 Vibration     5          0.594              1.981              5.233
 Vibration     6          0.595              1.977              4.789
 Vibration     7          0.613              1.920              2.901
 Vibration     8          0.617              1.908              2.731
 Vibration     9          0.617              1.907              2.727
 Vibration    10          0.642              1.827              2.052
 Vibration    11          0.647              1.812              1.966
 Vibration    12          0.647              1.812              1.965
 Vibration    13          0.698              1.659              1.373
 Vibration    14          0.717              1.603              1.231
 Vibration    15          0.717              1.603              1.230
 Vibration    16          0.764              1.476              0.973
 Vibration    17          0.769              1.461              0.948
 Vibration    18          0.769              1.461              0.947
 Vibration    19          0.783              1.425              0.889
 Vibration    20          0.783              1.425              0.889
 Vibration    21          0.787              1.416              0.876
 Vibration    22          0.796              1.394              0.842
 Vibration    23          0.796              1.394              0.842
 Vibration    24          0.821              1.331              0.756
 Vibration    25          0.888              1.177              0.580
 Vibration    26          0.888              1.176              0.580
 Vibration    27          0.891              1.171              0.575
 Vibration    28          0.967              1.015              0.436

                           ! Non-Optimized Parameters !
 Normal termination of Gaussian 16 at Sun Aug 23 15:48:40 2020.
 Gaussian 16:  ES64L-G16RevA.03 25-Dec-2016

 ----------------------------------------------------------------------
 # TD(NStates=10, Root=1) B3LYP/6-31G* scf=qc volume pop=NPA density=cu
 rrent Geom=AllCheck Guess=Read
 ----------------------------------------------------------------------

 Structure from the checkpoint file:  "phosphine_5_conf83.chk"
 -------------------
 Title Card Required
 -------------------
 Charge =  0 Multiplicity = 1

                         Standard orientation:
 ---------------------------------------------------------------------
 Center     Atomic      Atomic             Coordinates (Angstroms)
 Number     Number       Type             X           Y           Z
 ---------------------------------------------------------------------
      1          6           0       -1.199182    3.873110    0.698691
      2          6           0       -0.633377    2.709365    1.216305
      3          6           0       -0.791251    1.469973    0.571707
      4          6           0       -1.557539    1.423414   -0.603760
      5          6           0       -2.141020    2.576788   -1.129988
      6          6           0       -1.947584    3.784411   -0.469869
      7          9           0       -2.508735    4.902688   -0.973414
      8         15           0        0.000481   -0.000030    1.374753
      9          6           0       -0.877275   -1.420510    0.571994
     10          6           0       -0.452652   -2.063114   -0.601812
     11          6           0       -1.160484   -3.144755   -1.127840
     12          6           0       -2.304915   -3.578375   -0.469256
     13          6           0       -2.757085   -2.972346    0.697708
     14          6           0       -2.031413   -1.900937    1.215209
     15          9           0       -2.993556   -4.623044   -0.972692
     16          6           0        1.669346   -0.049684    0.571627
     17          6           0        2.012033    0.636210   -0.604476
     18          6           0        3.302644    0.564587   -1.130611
     19          6           0        4.251908   -0.205929   -0.469746
     20          6           0        3.954676   -0.897349    0.699479
     21          6           0        2.663911   -0.805249    1.216981
     22          9           0        5.500954   -0.279311   -0.973214
     23          1           0       -1.079834    4.833782    1.189012
     24          1           0       -0.062901    2.765283    2.140201
     25          1           0       -1.708418    0.477413   -1.114538
     26          1           0       -2.738175    2.550463   -2.035895
     27          1           0        0.443462   -1.722885   -1.111514
     28          1           0       -0.838242   -3.650442   -2.032492
     29          1           0       -3.650191   -3.347283    1.186920
     30          1           0       -2.366026   -1.433126    2.137894
     31          1           0        1.268105    1.239259   -1.115828
     32          1           0        3.578344    1.094117   -2.037001
     33          1           0        4.727091   -1.480393    1.190383
     34          1           0        2.427163   -1.326387    2.141382
 ---------------------------------------------------------------------

 SCF Done:  E(RB3LYP) =  -1333.99898001     a.u. after    1 cycles

 Excitation energies and oscillator strengths:

 Excited State   1:      Singlet-A      4.5735 eV  271.09 nm  f=0.1355  <S**2>=0.000
      81 -> 82         0.69411
 This state for optimization and/or second-order correction.
 Total Energy, E(TD-HF/TD-DFT) =  -1333.83090618
 Copying the excited state density for this state as the 1-particle RhoCI density.

 Excited State   2:      Singlet-A      4.5749 eV  271.01 nm  f=0.1358  <S**2>=0.000
      81 -> 83         0.69388

 Excited State   3:      Singlet-A      4.5858 eV  270.36 nm  f=0.0090  <S**2>=0.000
      81 -> 84         0.68915

 Excited State   4:      Singlet-A      4.9051 eV  252.76 nm  f=0.0017  <S**2>=0.000
      81 -> 85         0.67632

 Excited State   5:      Singlet-A      4.9059 eV  252.72 nm  f=0.0017  <S**2>=0.000
      81 -> 86         0.67615

 Excited State   6:      Singlet-A      5.2391 eV  236.65 nm  f=0.0075  <S**2>=0.000
      79 -> 82         0.10780
      80 -> 83        -0.10818
      81 -> 87         0.67233

 Excited State   7:      Singlet-A      5.4171 eV  228.88 nm  f=0.0000  <S**2>=0.000
      75 -> 84        -0.14228
      77 -> 82         0.17700
      78 -> 83         0.16855
      79 -> 82        -0.26945
      79 -> 83         0.30578
      79 -> 85        -0.14821
      80 -> 82         0.30545
      80 -> 83         0.26748
      80 -> 86        -0.14255

 Excited State   8:      Singlet-A      5.4452 eV  227.69 nm  f=0.0020  <S**2>=0.000
      76 -> 82        -0.20983
      77 -> 82        -0.17660
      77 -> 87        -0.12299
      78 -> 83         0.18451
      79 -> 84         0.31181
      79 -> 86         0.14215
      80 -> 84         0.39255
      80 -> 85         0.14072
      81 -> 85         0.12665

 Excited State   9:      Singlet-A      5.4457 eV  227.67 nm  f=0.0021  <S**2>=0.000
      76 -> 83        -0.20848
      77 -> 83         0.17924
      78 -> 82         0.18023
      78 -> 87        -0.12298
      79 -> 84         0.39071
      79 -> 85        -0.13924
      80 -> 84        -0.31497
      80 -> 86         0.14269
      81 -> 86        -0.12710

 Excited State  10:      Singlet-A      5.6625 eV  218.96 nm  f=0.0010  <S**2>=0.000
      75 -> 84         0.16530
      76 -> 84         0.10256
      77 -> 82        -0.24672
      78 -> 83        -0.24109
      79 -> 83         0.26033
      79 -> 85         0.22426
      79 -> 86        -0.11609
      80 -> 82         0.32013
      80 -> 85         0.11707
      80 -> 86         0.23141

 The electronic state is 1-A.
 Alpha  occ. eigenvalues --  -77.09285 -24.70934 -24.70933 -24.70931 -10.27930
 Alpha  occ. eigenvalues --  -10.27929 -10.27927 -10.20802 -10.20801 -10.20800
 Alpha  occ. eigenvalues --  -10.20702 -10.20700 -10.20698 -10.20479 -10.20478
 Alpha  occ. eigenvalues --  -10.20478 -10.20318 -10.20316 -10.20315 -10.20310
 Alpha  occ. eigenvalues --  -10.20308 -10.20308  -6.55986  -4.72248  -4.72248
 Alpha  occ. eigenvalues --   -4.71743  -1.22113  -1.22111  -1.22109  -0.87207
 Alpha  occ. eigenvalues --   -0.86556  -0.86554  -0.77802  -0.76322  -0.76286
 Alpha  occ. eigenvalues --   -0.76285  -0.74868  -0.74866  -0.65458  -0.63137
 Alpha  occ. eigenvalues --   -0.62959  -0.62958  -0.60998  -0.60997  -0.57074
 Alpha  occ. eigenvalues --   -0.54665  -0.54664  -0.54254  -0.49447  -0.49445
 Alpha  occ. eigenvalues --   -0.49381  -0.48018  -0.48018  -0.46310  -0.46309
 Alpha  occ. eigenvalues --   -0.46296  -0.45864  -0.44921  -0.44921  -0.43857
 Alpha  occ. eigenvalues --   -0.43706  -0.43705  -0.42082  -0.40157  -0.40108
 Alpha  occ. eigenvalues --   -0.40107  -0.37161  -0.37158  -0.36439  -0.34998
 Alpha  occ. eigenvalues --   -0.34996  -0.34951  -0.33923  -0.33923  -0.27232
 Alpha  occ. eigenvalues --   -0.26849  -0.26600  -0.26597  -0.25425  -0.25422
 Alpha  occ. eigenvalues --   -0.21917
 Alpha virt. eigenvalues --   -0.02512  -0.02508  -0.02414  -0.01173  -0.01170
 Alpha virt. eigenvalues --   -0.00311   0.05882   0.05889   0.08467   0.10088
 Alpha virt. eigenvalues --    0.10089   0.12848   0.13529   0.13530   0.14052

 Mulliken charges:
               1
     1  C   -0.196508
     2  C   -0.154026
     3  C   -0.095125
     4  C   -0.178924
     5  C   -0.179114
     6  C    0.365695
     7  F   -0.294008
     8  P    0.435396
     9  C   -0.085846
    10  C   -0.150025
    11  C   -0.188110
    12  C    0.387085
    13  C   -0.181786
    14  C   -0.168232
    15  F   -0.283778
    16  C   -0.128494
    17  C   -0.175164
    18  C   -0.185068
    19  C    0.340838
    20  C   -0.187406
    21  C   -0.175813
    22  F   -0.304155
    23  H    0.147091
    24  H    0.145584
    25  H    0.142378
    26  H    0.149251
    27  H    0.181142
    28  H    0.162746
    29  H    0.159077
    30  H    0.153781
    31  H    0.140627
    32  H    0.139141
    33  H    0.135502
    34  H    0.126248
 Sum of Mulliken charges =  -0.00000

 Dipole moment (field-independent basis, Debye):
    X=             -2.7593    Y=             -1.6271    Z=              1.4565  Tot=              3.5189
 Quadrupole moment (field-independent basis, Debye-Ang):
   XX=           -144.5297   YY=           -134.5001   ZZ=           -121.8308
   XY=              3.6950   XZ=              0.0731   YZ=              0.8454

 Summary of Natural Population Analysis:

                                       Natural Population
                Natural  -----------------------------------------------
    Atom  No    Charge         Core      Valence    Rydberg      Total
 -----------------------------------------------------------------------
      C    1   -0.32538      1.99899     4.31040    0.01599     6.32538
      C    2   -0.18393      1.99903     4.16963    0.01527     6.18393
      C    3   -0.42649      1.99888     4.40334    0.02427     6.42649
      C    4   -0.25571      1.99900     4.23870    0.01800     6.25571
      C    5   -0.28652      1.99899     4.27280    0.01473     6.28652
      C    6    0.41481      1.99844     3.55916    0.02759     5.58519
      F    7   -0.32984      1.99994     7.32437    0.00553     9.32984
      P    8    1.21004      9.99756     3.74083    0.05156    13.78996
      C    9   -0.40154      1.99891     4.37688    0.02575     6.40154
      C   10   -0.18998      1.99901     4.17492    0.01605     6.18998
      C   11   -0.30408      1.99898     4.29014    0.01496     6.30408
      C   12    0.44878      1.99844     3.52558    0.02720     5.55122
      C   13   -0.29839      1.99899     4.28455    0.01485     6.29839
      C   14   -0.20636      1.99903     4.19165    0.01568     6.20636
      F   15   -0.32089      1.99994     7.31536    0.00559     9.32089
      C   16   -0.49014      1.99887     4.46484    0.02642     6.49014
      C   17   -0.24433      1.99900     4.22744    0.01789     6.24433
      C   18   -0.29575      1.99899     4.28165    0.01511     6.29575
      C   19    0.37269      1.99844     3.60082    0.02805     5.62731
      C   20   -0.30714      1.99900     4.29272    0.01543     6.30714
      C   21   -0.22244      1.99903     4.20719    0.01622     6.22244
      F   22   -0.33895      1.99994     7.33351    0.00550     9.33895
      H   23    0.25205      0.00000     0.74678    0.00117     0.74795
      H   24    0.24174      0.00000     0.75706    0.00119     0.75826
      H   25    0.24317      0.00000     0.75552    0.00132     0.75683
      H   26    0.25268      0.00000     0.74611    0.00120     0.74732
      H   27    0.26437      0.00000     0.73436    0.00127     0.73563
      H   28    0.25946      0.00000     0.73937    0.00117     0.74054
      H   29    0.25699      0.00000     0.74181    0.00120     0.74301
      H   30    0.24505      0.00000     0.75382    0.00112     0.75495
      H   31    0.24157      0.00000     0.75677    0.00166     0.75843
      H   32    0.24809      0.00000     0.75071    0.00120     0.75191
      H   33    0.24587      0.00000     0.75290    0.00123     0.75413
      H   34    0.23047      0.00000     0.76863    0.00089     0.76953
 =======================================================================
   * Total *   -0.00000     51.97740   109.59033    0.43227   162.00000

 Normal termination of Gaussian 16 at Sun Aug 23 16:02:24 2020.
