 Gaussian 16, Revision A.03,

 ---------------------------------
 # opt=CalcAll B3LYP/6-31G* scf=qc
 ---------------------------------

 -------------------
 Title Card Required
 -------------------
 Symbolic Z-matrix:
 Charge =  0 Multiplicity = 1

 SCF Done:  E(RB3LYP) =  -2415.05614862     a.u. after    8 cycles
 SCF Done:  E(RB3LYP) =  -2415.06579132     a.u. after   17 cycles
 SCF Done:  E(RB3LYP) =  -2415.07055351     a.u. after   15 cycles
 SCF Done:  E(RB3LYP) =  -2415.08050313     a.u. after   15 cycles
 SCF Done:  E(RB3LYP) =  -2415.08456806     a.u. after   15 cycles
 SCF Done:  E(RB3LYP) =  -2415.08566204     a.u. after   15 cycles
 SCF Done:  E(RB3LYP) =  -2415.08610219     a.u. after   15 cycles
 SCF Done:  E(RB3LYP) =  -2415.08621127     a.u. after   15 cycles
 SCF Done:  E(RB3LYP) =  -2415.08623565     a.u. after    9 cycles
 SCF Done:  E(RB3LYP) =  -2415.08623865     a.u. after    6 cycles
 SCF Done:  E(RB3LYP) =  -2415.08624224     a.u. after    2 cycles
 SCF Done:  E(RB3LYP) =  -2415.08624444     a.u. after    4 cycles
 SCF Done:  E(RB3LYP) =  -2415.08624249     a.u. after    2 cycles
 SCF Done:  E(RB3LYP) =  -2415.08624521     a.u. after    2 cycles
 SCF Done:  E(RB3LYP) =  -2415.08624438     a.u. after    2 cycles
 SCF Done:  E(RB3LYP) =  -2415.08624010     a.u. after    3 cycles
 SCF Done:  E(RB3LYP) =  -2415.08624261     a.u. after    2 cycles
 SCF Done:  E(RB3LYP) =  -2415.08624306     a.u. after    4 cycles
 Optimization completed.
    -- Stationary point found.
 Normal termination of Gaussian 16 at Sun Aug 23 03:05:28 2020.

 ----------------------------------------------------------------------
 # freq B3LYP/6-31G* scf=qc volume NMR pop=NPA density=current Geom=All
 Check Guess=Read
 ----------------------------------------------------------------------

 Structure from the checkpoint file:  "phosphine_11_conf242.chk"
 -------------------
 Title Card Required
 -------------------
 Charge =  0 Multiplicity = 1

 SCF Done:  E(RB3LYP) =  -2415.08624306     a.u. after    1 cycles

      1  C    Isotropic =    67.5387   Anisotropy =   140.0921

      2  C    Isotropic =    61.9325   Anisotropy =   168.5888

      3  C    Isotropic =    58.7290   Anisotropy =   177.4329

      4  C    Isotropic =    60.2717   Anisotropy =   160.3418

      5  C    Isotropic =    67.5696   Anisotropy =   140.5833

      6  C    Isotropic =    51.6185   Anisotropy =   109.1162

      7  Cl   Isotropic =   720.9824   Anisotropy =   453.0191

      8  P    Isotropic =   364.7300   Anisotropy =    37.2817

      9  C    Isotropic =    58.7735   Anisotropy =   177.4095

     10  C    Isotropic =    61.8748   Anisotropy =   168.6545

     11  C    Isotropic =    67.5369   Anisotropy =   140.1269

     12  C    Isotropic =    51.5943   Anisotropy =   109.1591

     13  C    Isotropic =    67.5543   Anisotropy =   140.5607

     14  C    Isotropic =    60.1977   Anisotropy =   160.2773

     15  Cl   Isotropic =   720.9301   Anisotropy =   452.9104

     16  C    Isotropic =    58.7201   Anisotropy =   177.4246

     17  C    Isotropic =    60.2044   Anisotropy =   160.2729

     18  C    Isotropic =    67.5432   Anisotropy =   140.5862

     19  C    Isotropic =    51.5942   Anisotropy =   109.1579

     20  C    Isotropic =    67.5409   Anisotropy =   140.1050

     21  C    Isotropic =    61.8809   Anisotropy =   168.5811

     22  Cl   Isotropic =   720.9910   Anisotropy =   452.8442

     23  H    Isotropic =    25.2115   Anisotropy =     8.1434

     24  H    Isotropic =    25.5870   Anisotropy =    12.1350

     25  H    Isotropic =    24.7823   Anisotropy =     8.9776

     26  H    Isotropic =    25.0939   Anisotropy =     6.6313

     27  H    Isotropic =    25.5773   Anisotropy =    12.1101

     28  H    Isotropic =    25.2064   Anisotropy =     8.1418

     29  H    Isotropic =    25.0939   Anisotropy =     6.6278

     30  H    Isotropic =    24.7772   Anisotropy =     8.9641

     31  H    Isotropic =    24.7769   Anisotropy =     8.9709

     32  H    Isotropic =    25.0905   Anisotropy =     6.6363

     33  H    Isotropic =    25.2095   Anisotropy =     8.1382

     34  H    Isotropic =    25.5818   Anisotropy =    12.1045

  Exact polarizability: 280.774  -0.090 280.501   0.000  -0.130 185.067
 Approx polarizability: 393.760  -0.210 393.220  -0.001  -0.299 343.055

                      1                      2                      3
                      A                      A                      A
 Frequencies --     21.2538                22.8371                29.3391
 Red. masses --      4.5129                 4.6639                 8.9174
 Frc consts  --      0.0012                 0.0014                 0.0045
 IR Inten    --      0.2820                 0.2834                 0.1936

                      4                      5                      6
                      A                      A                      A
 Frequencies --     29.3746                37.8813                39.8589
 Red. masses --      9.5408                 6.0802                 5.6129
 Frc consts  --      0.0049                 0.0051                 0.0053
 IR Inten    --      0.1671                 0.1539                 0.0742

                      7                      8                      9
                      A                      A                      A
 Frequencies --    109.1611               117.5328               117.7228
 Red. masses --      8.8627                 8.8285                 8.8328
 Frc consts  --      0.0622                 0.0719                 0.0721
 IR Inten    --      0.0246                 0.3535                 0.3503

                     10                     11                     12
                      A                      A                      A
 Frequencies --    181.0274               187.2967               187.6859
 Red. masses --     10.0366                 8.7781                 8.7955
 Frc consts  --      0.1938                 0.1814                 0.1825
 IR Inten    --      0.3327                 0.5763                 0.5716

                     13                     14                     15
                      A                      A                      A
 Frequencies --    263.9543               293.6254               293.6595
 Red. masses --      8.9762                 8.4044                 8.3971
 Frc consts  --      0.3685                 0.4269                 0.4266
 IR Inten    --      0.2164                 0.8954                 0.9091

                     16                     17                     18
                      A                      A                      A
 Frequencies --    310.8459               328.6820               328.7393
 Red. masses --      6.0436                 5.9825                 5.9913
 Frc consts  --      0.3441                 0.3808                 0.3815
 IR Inten    --      0.0037                 1.8816                 1.9031

                     19                     20                     21
                      A                      A                      A
 Frequencies --    383.9166               384.1428               414.5679
 Red. masses --      8.0352                 8.0124                 3.0433
 Frc consts  --      0.6978                 0.6966                 0.3082
 IR Inten    --     20.9416                20.9915                 0.0625

                     22                     23                     24
                      A                      A                      A
 Frequencies --    414.6627               416.6198               426.8795
 Red. masses --      3.0451                 3.2075                 6.6179
 Frc consts  --      0.3085                 0.3280                 0.7105
 IR Inten    --      0.0525                 0.1622                 2.9314

                     25                     26                     27
                      A                      A                      A
 Frequencies --    499.4887               509.3046               509.4569
 Red. masses --      5.5146                 3.6425                 3.6438
 Frc consts  --      0.8106                 0.5567                 0.5572
 IR Inten    --      6.8660                20.0366                19.8059

                     28                     29                     30
                      A                      A                      A
 Frequencies --    531.5643               548.7839               548.8241
 Red. masses --      4.5710                 7.4521                 7.4333
 Frc consts  --      0.7610                 1.3223                 1.3192
 IR Inten    --      9.8822                 5.4196                 5.4363

                     31                     32                     33
                      A                      A                      A
 Frequencies --    644.3285               644.3698               645.2865
 Red. masses --      7.1595                 7.1598                 7.1683
 Frc consts  --      1.7513                 1.7515                 1.7586
 IR Inten    --      0.0371                 0.0381                 0.0963

                     34                     35                     36
                      A                      A                      A
 Frequencies --    718.1418               718.2492               718.7013
 Red. masses --      4.5828                 4.5874                 4.6031
 Frc consts  --      1.3925                 1.3943                 1.4009
 IR Inten    --      1.6935                 1.6047                 0.3659

                     37                     38                     39
                      A                      A                      A
 Frequencies --    746.1287               751.6373               751.6706
 Red. masses --      7.2616                 7.2732                 7.2765
 Frc consts  --      2.3818                 2.4210                 2.4223
 IR Inten    --     14.6082                54.4202                54.1985

                     40                     41                     42
                      A                      A                      A
 Frequencies --    833.6062               834.1264               834.1559
 Red. masses --      1.4177                 1.4321                 1.4320
 Frc consts  --      0.5804                 0.5871                 0.5871
 IR Inten    --     23.5758                32.8794                32.6465

                     43                     44                     45
                      A                      A                      A
 Frequencies --    845.7851               845.8176               848.8355
 Red. masses --      1.2467                 1.2467                 1.2500
 Frc consts  --      0.5255                 0.5255                 0.5307
 IR Inten    --      0.6342                 0.6370                 0.2859

                     46                     47                     48
                      A                      A                      A
 Frequencies --    969.4929               969.5249               969.9316
 Red. masses --      1.2758                 1.2763                 1.2871
 Frc consts  --      0.7065                 0.7069                 0.7134
 IR Inten    --      0.1549                 0.1520                 0.2242

                     49                     50                     51
                      A                      A                      A
 Frequencies --    973.2092               973.3070               976.4326
 Red. masses --      1.3466                 1.3456                 1.3234
 Frc consts  --      0.7515                 0.7510                 0.7434
 IR Inten    --      0.0097                 0.0128                 0.4177

                     52                     53                     54
                      A                      A                      A
 Frequencies --   1027.9409              1027.9810              1029.6242
 Red. masses --      4.7561                 4.7652                 4.7024
 Frc consts  --      2.9610                 2.9669                 2.9371
 IR Inten    --     62.7128                62.7152                 5.1161

                     55                     56                     57
                      A                      A                      A
 Frequencies --   1097.7412              1097.8223              1101.5341
 Red. masses --      7.8992                 7.9414                 8.0708
 Frc consts  --      5.6084                 5.6391                 5.7698
 IR Inten    --     81.1095                81.5324                13.7168

                     58                     59                     60
                      A                      A                      A
 Frequencies --   1118.1600              1118.4629              1121.3371
 Red. masses --      2.1233                 2.1205                 2.1024
 Frc consts  --      1.5641                 1.5629                 1.5576
 IR Inten    --     33.1917                32.3408                 6.4997

                     61                     62                     63
                      A                      A                      A
 Frequencies --   1139.2140              1139.4103              1139.6760
 Red. masses --      1.4012                 1.4018                 1.4026
 Frc consts  --      1.0714                 1.0723                 1.0733
 IR Inten    --      0.1314                 1.9111                 2.0529

                     64                     65                     66
                      A                      A                      A
 Frequencies --   1218.9787              1219.5019              1220.9858
 Red. masses --      1.1568                 1.1572                 1.1520
 Frc consts  --      1.0127                 1.0140                 1.0119
 IR Inten    --      4.8625                 4.6866                 1.0055

                     67                     68                     69
                      A                      A                      A
 Frequencies --   1318.2871              1322.1893              1322.3815
 Red. masses --      6.9298                 7.5044                 7.7912
 Frc consts  --      7.0957                 7.7295                 8.0273
 IR Inten    --      1.3147                 2.6629                 2.6573

                     70                     71                     72
                      A                      A                      A
 Frequencies --   1337.1621              1337.4728              1337.9884
 Red. masses --      1.3360                 1.3430                 1.3381
 Frc consts  --      1.4074                 1.4154                 1.4114
 IR Inten    --      0.3256                 0.8727                 1.0763

                     73                     74                     75
                      A                      A                      A
 Frequencies --   1429.5530              1429.8846              1430.1490
 Red. masses --      2.6345                 2.6446                 2.6380
 Frc consts  --      3.1721                 3.1858                 3.1789
 IR Inten    --     19.1966                 6.0473                 6.6515

                     76                     77                     78
                      A                      A                      A
 Frequencies --   1527.0690              1527.1487              1527.2704
 Red. masses --      2.0778                 2.0907                 2.0794
 Frc consts  --      2.8548                 2.8728                 2.8577
 IR Inten    --     64.1009                26.7603                51.2008

                     79                     80                     81
                      A                      A                      A
 Frequencies --   1611.0259              1611.2389              1611.3344
 Red. masses --      6.6393                 6.6648                 6.6568
 Frc consts  --     10.1526                10.1942                10.1832
 IR Inten    --      3.8351                 3.7971                 3.8719

                     82                     83                     84
                      A                      A                      A
 Frequencies --   1633.4099              1633.4686              1634.4970
 Red. masses --      5.4314                 5.4251                 5.4920
 Frc consts  --      8.5379                 8.5287                 8.6446
 IR Inten    --     29.8782                29.5815                13.1084

                     85                     86                     87
                      A                      A                      A
 Frequencies --   3188.0597              3188.1264              3188.1930
 Red. masses --      1.0893                 1.0892                 1.0892
 Frc consts  --      6.5228                 6.5227                 6.5230
 IR Inten    --      6.0281                 3.6127                 3.0451

                     88                     89                     90
                      A                      A                      A
 Frequencies --   3205.6112              3205.7145              3206.2999
 Red. masses --      1.0879                 1.0879                 1.0879
 Frc consts  --      6.5864                 6.5867                 6.5895
 IR Inten    --      0.8675                 0.8601                 0.6642

                     91                     92                     93
                      A                      A                      A
 Frequencies --   3222.5799              3222.6098              3222.7416
 Red. masses --      1.0937                 1.0937                 1.0937
 Frc consts  --      6.6922                 6.6923                 6.6925
 IR Inten    --      2.4701                 2.4290                 9.7033

                     94                     95                     96
                      A                      A                      A
 Frequencies --   3223.6129              3223.6869              3223.9194
 Red. masses --      1.0940                 1.0939                 1.0941
 Frc consts  --      6.6979                 6.6979                 6.7001
 IR Inten    --      5.6673                 5.4356                 0.2818

 - Thermochemistry -
 -------------------
 Temperature   298.150 Kelvin.  Pressure   1.00000 Atm.
 Atom     1 has atomic number  6 and mass  12.00000

 Molecular mass:   363.97422 amu.
 Principal axes and moments of inertia in atomic units:
                           1         2         3
     Eigenvalues --  ******************************
           X            0.99968  -0.02517   0.00000
           Y            0.02517   0.99968  -0.00002
           Z           -0.00000   0.00002   1.00000
 This molecule is an asymmetric top.
 Rotational symmetry number  1.
 Warning -- assumption of classical behavior for rotation
           may cause significant error
 Rotational temperatures (Kelvin)      0.00723     0.00723     0.00405
 Rotational constants (GHZ):           0.15065     0.15057     0.08439
 Zero-point vibrational energy     643725.4 (Joules/Mol)
                                  153.85407 (Kcal/Mol)
 Warning -- explicit consideration of  30 degrees of freedom as
           vibrations may cause significant error
 Vibrational temperatures:     30.58    32.86    42.21    42.26    54.50
          (Kelvin)             57.35   157.06   169.10   169.38   260.46
                              269.48   270.04   379.77   422.46   422.51
                              447.24   472.90   472.98   552.37   552.70
                              596.47   596.61   599.42   614.18   718.65
                              732.78   732.99   764.80   789.58   789.64
                              927.04   927.10   928.42  1033.25  1033.40
                             1034.05  1073.51  1081.44  1081.49  1199.37
                             1200.12  1200.16  1216.90  1216.94  1221.28
                             1394.88  1394.93  1395.52  1400.23  1400.37
                             1404.87  1478.98  1479.04  1481.40  1579.40
                             1579.52  1584.86  1608.78  1609.22  1613.35
                             1639.07  1639.36  1639.74  1753.84  1754.59
                             1756.73  1896.72  1902.34  1902.61  1923.88
                             1924.33  1925.07  2056.81  2057.29  2057.67
                             2197.11  2197.23  2197.40  2317.91  2318.21
                             2318.35  2350.11  2350.20  2351.68  4586.91
                             4587.00  4587.10  4612.16  4612.31  4613.15
                             4636.57  4636.62  4636.81  4638.06  4638.17
                             4638.50

 Zero-point correction=                           0.245182 (Hartree/Particle)
 Thermal correction to Energy=                    0.264839
 Thermal correction to Enthalpy=                  0.265783
 Thermal correction to Gibbs Free Energy=         0.192206
 Sum of electronic and zero-point Energies=          -2414.841061
 Sum of electronic and thermal Energies=             -2414.821405
 Sum of electronic and thermal Enthalpies=           -2414.820460
 Sum of electronic and thermal Free Energies=        -2414.894037

                     E (Thermal)             CV                S
                      KCal/Mol        Cal/Mol-Kelvin    Cal/Mol-Kelvin
 Total                  166.189             74.127            154.854
 Electronic               0.000              0.000              0.000
 Translational            0.889              2.981             43.569
 Rotational               0.889              2.981             36.372
 Vibrational            164.411             68.166             74.914
 Vibration     1          0.593              1.985              6.513
 Vibration     2          0.593              1.985              6.371
 Vibration     3          0.593              1.984              5.874
 Vibration     4          0.593              1.984              5.871
 Vibration     5          0.594              1.982              5.367
 Vibration     6          0.594              1.981              5.266
 Vibration     7          0.606              1.942              3.284
 Vibration     8          0.608              1.935              3.141
 Vibration     9          0.608              1.935              3.137
 Vibration    10          0.630              1.866              2.318
 Vibration    11          0.632              1.857              2.254
 Vibration    12          0.632              1.857              2.251
 Vibration    13          0.671              1.739              1.635
 Vibration    14          0.688              1.686              1.453
 Vibration    15          0.688              1.686              1.453
 Vibration    16          0.700              1.653              1.358
 Vibration    17          0.712              1.618              1.267
 Vibration    18          0.712              1.618              1.266
 Vibration    19          0.753              1.505              1.024
 Vibration    20          0.753              1.504              1.023
 Vibration    21          0.778              1.439              0.911
 Vibration    22          0.778              1.438              0.910
 Vibration    23          0.780              1.434              0.904
 Vibration    24          0.789              1.412              0.869
 Vibration    25          0.855              1.251              0.659
 Vibration    26          0.864              1.229              0.635
 Vibration    27          0.865              1.229              0.635
 Vibration    28          0.887              1.180              0.584
 Vibration    29          0.904              1.142              0.547
 Vibration    30          0.904              1.142              0.547

                           ! Non-Optimized Parameters !
 Normal termination of Gaussian 16 at Sun Aug 23 03:19:37 2020.
 Gaussian 16:  ES64L-G16RevA.03 25-Dec-2016

 ----------------------------------------------------------------------
 # TD(NStates=10, Root=1) B3LYP/6-31G* scf=qc volume pop=NPA density=cu
 rrent Geom=AllCheck Guess=Read
 ----------------------------------------------------------------------

 Structure from the checkpoint file:  "phosphine_11_conf243.chk"
 -------------------
 Title Card Required
 -------------------
 Charge =  0 Multiplicity = 1

                         Standard orientation:
 ---------------------------------------------------------------------
 Center     Atomic      Atomic             Coordinates (Angstroms)
 Number     Number       Type             X           Y           Z
 ---------------------------------------------------------------------
      1          6           0        0.828009    3.257871   -0.941745
      2          6           0        0.230462    2.111680   -0.415403
      3          6           0        0.732542    1.499493    0.742712
      4          6           0        1.849897    2.076401    1.369219
      5          6           0        2.465510    3.213787    0.849888
      6          6           0        1.944848    3.796682   -0.305227
      7         17           0        2.703627    5.238964   -0.963103
      8         15           0       -0.000443   -0.000137    1.547235
      9          6           0       -1.665360   -0.115377    0.742164
     10          6           0       -1.942463   -0.849014   -0.421053
     11          6           0       -3.233805   -0.904893   -0.947489
     12          6           0       -4.260834   -0.214710   -0.305834
     13          6           0       -4.018376    0.520349    0.854347
     14          6           0       -2.725533    0.556248    1.373609
     15         17           0       -5.889275   -0.279341   -0.963628
     16          6           0        0.932107   -1.384173    0.742222
     17          6           0        0.879941   -2.638476    1.372911
     18          6           0        1.557670   -3.739945    0.853485
     19          6           0        2.316224   -3.581861   -0.306147
     20          6           0        2.400945   -2.347017   -0.947105
     21          6           0        1.706696   -1.256822   -0.420484
     22         17           0        3.186627   -4.959578   -0.964177
     23          1           0        0.432392    3.727225   -1.836460
     24          1           0       -0.639607    1.697658   -0.915646
     25          1           0        2.244840    1.634388    2.280801
     26          1           0        3.330188    3.650081    1.338677
     27          1           0       -1.147279   -1.389638   -0.925115
     28          1           0       -3.440968   -1.476610   -1.846120
     29          1           0       -4.830081    1.045053    1.347040
     30          1           0       -2.541632    1.113350    2.289122
     31          1           0        0.304838   -2.758259    2.287926
     32          1           0        1.508661   -4.705526    1.345605
     33          1           0        3.000152   -2.240164   -1.845352
     34          1           0        1.777633   -0.297601   -0.924001
 ---------------------------------------------------------------------

 SCF Done:  E(RB3LYP) =  -2415.08624306     a.u. after    1 cycles

 Excitation energies and oscillator strengths:

 Excited State   1:      Singlet-A      4.4040 eV  281.52 nm  f=0.1826  <S**2>=0.000
      93 -> 94         0.69579
 This state for optimization and/or second-order correction.
 Total Energy, E(TD-HF/TD-DFT) =  -2414.92439785
 Copying the excited state density for this state as the 1-particle RhoCI density.

 Excited State   2:      Singlet-A      4.4072 eV  281.32 nm  f=0.1846  <S**2>=0.000
      93 -> 95         0.69575

 Excited State   3:      Singlet-A      4.6110 eV  268.89 nm  f=0.0036  <S**2>=0.000
      89 -> 94        -0.10962
      90 -> 95         0.11028
      93 -> 96         0.67977

 Excited State   4:      Singlet-A      4.9165 eV  252.18 nm  f=0.0001  <S**2>=0.000
      88 -> 94         0.11744
      89 -> 95         0.11617
      89 -> 97         0.10034
      90 -> 94        -0.11579
      93 -> 98         0.64583

 Excited State   5:      Singlet-A      4.9180 eV  252.10 nm  f=0.0001  <S**2>=0.000
      88 -> 95         0.11720
      89 -> 94         0.11661
      90 -> 95         0.11727
      90 -> 97        -0.10156
      93 -> 99         0.64510

 Excited State   6:      Singlet-A      5.0215 eV  246.91 nm  f=0.0090  <S**2>=0.000
      91 -> 94         0.12018
      92 -> 95        -0.12085
      93 -> 97         0.66871

 Excited State   7:      Singlet-A      5.2599 eV  235.72 nm  f=0.0018  <S**2>=0.000
      89 -> 94         0.13371
      90 -> 95        -0.12922
      91 -> 94        -0.22350
      91 -> 95         0.38086
      91 -> 98        -0.12824
      92 -> 94         0.38817
      92 -> 95         0.22198
      92 -> 99         0.12490
      93 -> 96         0.10371

 Excited State   8:      Singlet-A      5.3608 eV  231.28 nm  f=0.0050  <S**2>=0.000
      88 -> 94         0.19271
      89 -> 95         0.16874
      89 -> 97         0.11205
      90 -> 94        -0.16962
      91 -> 95        -0.14250
      91 -> 96         0.39047
      91 -> 99        -0.14972
      92 -> 94         0.14506
      92 -> 96         0.20703
      92 -> 98         0.15321
      93 -> 98        -0.22678

 Excited State   9:      Singlet-A      5.3622 eV  231.22 nm  f=0.0047  <S**2>=0.000
      88 -> 95        -0.18969
      89 -> 94        -0.16942
      90 -> 95        -0.16839
      90 -> 97         0.11210
      91 -> 94         0.14242
      91 -> 96        -0.20462
      91 -> 98         0.15090
      92 -> 95         0.14559
      92 -> 96         0.39433
      92 -> 99         0.15053
      93 -> 99         0.22829

 Excited State  10:      Singlet-A      5.4209 eV  228.71 nm  f=0.1609  <S**2>=0.000
      91 -> 94         0.43432
      91 -> 95        -0.16967
      92 -> 94         0.16759
      92 -> 95         0.43195
      92 -> 96        -0.13490

 The electronic state is 1-A.
 Alpha  occ. eigenvalues -- -101.55494-101.55493-101.55489 -77.10095 -10.26331
 Alpha  occ. eigenvalues --  -10.26329 -10.26324 -10.21420 -10.21418 -10.21417
 Alpha  occ. eigenvalues --  -10.21369 -10.21367 -10.21365 -10.21348 -10.21347
 Alpha  occ. eigenvalues --  -10.21342 -10.21314 -10.21313 -10.21310 -10.21250
 Alpha  occ. eigenvalues --  -10.21249 -10.21244  -9.47126  -9.47125  -9.47121
 Alpha  occ. eigenvalues --   -7.23521  -7.23520  -7.23516  -7.22557  -7.22555
 Alpha  occ. eigenvalues --   -7.22551  -7.22519  -7.22518  -7.22514  -6.56810
 Alpha  occ. eigenvalues --   -4.73070  -4.73070  -4.72565  -0.89964  -0.89792
 Alpha  occ. eigenvalues --   -0.89789  -0.85153  -0.84238  -0.84235  -0.76898
 Alpha  occ. eigenvalues --   -0.76781  -0.76779  -0.76742  -0.73908  -0.73905
 Alpha  occ. eigenvalues --   -0.65058  -0.63149  -0.62987  -0.62986  -0.60498
 Alpha  occ. eigenvalues --   -0.60496  -0.57615  -0.52432  -0.52430  -0.49746
 Alpha  occ. eigenvalues --   -0.48087  -0.47999  -0.47998  -0.47167  -0.47167
 Alpha  occ. eigenvalues --   -0.46321  -0.44339  -0.44246  -0.44244  -0.42726
 Alpha  occ. eigenvalues --   -0.42723  -0.40320  -0.40239  -0.40236  -0.39581
 Alpha  occ. eigenvalues --   -0.37220  -0.37218  -0.37129  -0.35190  -0.35185
 Alpha  occ. eigenvalues --   -0.34136  -0.33463  -0.33458  -0.31868  -0.31863
 Alpha  occ. eigenvalues --   -0.31860  -0.27685  -0.27415  -0.27144  -0.27139
 Alpha  occ. eigenvalues --   -0.25832  -0.25825  -0.22675
 Alpha virt. eigenvalues --   -0.03960  -0.03952  -0.03034  -0.01965  -0.01789
 Alpha virt. eigenvalues --   -0.01781   0.02241   0.02245   0.02402   0.05585
 Alpha virt. eigenvalues --    0.05600   0.10343   0.12157   0.12343   0.12346

 Mulliken charges:
               1
     1  C   -0.117646
     2  C   -0.147386
     3  C   -0.082319
     4  C   -0.158905
     5  C   -0.114649
     6  C   -0.064189
     7  Cl   0.015649
     8  P    0.446607
     9  C   -0.129653
    10  C   -0.166565
    11  C   -0.121352
    12  C   -0.098786
    13  C   -0.119722
    14  C   -0.174409
    15  Cl  -0.040623
    16  C   -0.103942
    17  C   -0.155887
    18  C   -0.125290
    19  C   -0.088000
    20  C   -0.113284
    21  C   -0.170266
    22  Cl  -0.024295
    23  H    0.174111
    24  H    0.185944
    25  H    0.160672
    26  H    0.170046
    27  H    0.147056
    28  H    0.149259
    29  H    0.145224
    30  H    0.128421
    31  H    0.143718
    32  H    0.153878
    33  H    0.155685
    34  H    0.140897
 Sum of Mulliken charges =  -0.00000

 Dipole moment (field-independent basis, Debye):
    X=              2.8837    Y=              3.0734    Z=              1.9740  Tot=              4.6538
 Quadrupole moment (field-independent basis, Debye-Ang):
   XX=           -174.6684   YY=           -160.4294   ZZ=           -145.0538
   XY=              5.4797   XZ=              0.0176   YZ=             -1.0599

 Summary of Natural Population Analysis:

                                       Natural Population
                Natural  -----------------------------------------------
    Atom  No    Charge         Core      Valence    Rydberg      Total
 -----------------------------------------------------------------------
      C    1   -0.24269      1.99892     4.22843    0.01534     6.24269
      C    2   -0.19187      1.99900     4.17690    0.01597     6.19187
      C    3   -0.38126      1.99891     4.35722    0.02513     6.38126
      C    4   -0.19542      1.99902     4.18120    0.01520     6.19542
      C    5   -0.24372      1.99893     4.22950    0.01529     6.24372
      C    6   -0.01649      1.99855     3.99566    0.02228     6.01649
     Cl    7    0.02814      9.99967     6.95289    0.01931    16.97186
      P    8    1.21207      9.99758     3.74051    0.04984    13.78793
      C    9   -0.48019      1.99887     4.45534    0.02597     6.48019
      C   10   -0.23286      1.99899     4.21642    0.01745     6.23286
      C   11   -0.24935      1.99893     4.23439    0.01603     6.24935
      C   12   -0.08752      1.99854     4.06674    0.02224     6.08752
      C   13   -0.25328      1.99894     4.23823    0.01611     6.25328
      C   14   -0.22585      1.99901     4.21066    0.01617     6.22585
     Cl   15   -0.01412      9.99967     6.99400    0.02044    17.01412
      C   16   -0.43372      1.99887     4.41075    0.02410     6.43372
      C   17   -0.19527      1.99901     4.18072    0.01554     6.19527
      C   18   -0.26338      1.99894     4.24796    0.01648     6.26338
      C   19   -0.06567      1.99854     4.04490    0.02222     6.06567
      C   20   -0.23499      1.99893     4.22068    0.01539     6.23499
      C   21   -0.24434      1.99899     4.22804    0.01731     6.24434
     Cl   22   -0.00213      9.99967     6.98235    0.02011    17.00213
      H   23    0.26357      0.00000     0.73538    0.00105     0.73643
      H   24    0.26764      0.00000     0.73117    0.00120     0.73236
      H   25    0.24945      0.00000     0.74940    0.00115     0.75055
      H   26    0.26103      0.00000     0.73790    0.00107     0.73897
      H   27    0.24558      0.00000     0.75290    0.00152     0.75442
      H   28    0.25201      0.00000     0.74694    0.00105     0.74799
      H   29    0.24937      0.00000     0.74955    0.00108     0.75063
      H   30    0.23224      0.00000     0.76685    0.00091     0.76776
      H   31    0.24155      0.00000     0.75732    0.00113     0.75845
      H   32    0.25410      0.00000     0.74487    0.00103     0.74590
      H   33    0.25477      0.00000     0.74418    0.00106     0.74523
      H   34    0.24258      0.00000     0.75610    0.00132     0.75742
 =======================================================================
   * Total *    0.00000     75.97648   109.56605    0.45746   186.00000

 Normal termination of Gaussian 16 at Sun Aug 23 03:36:08 2020.
