 Gaussian 16, Revision A.03,

 ---------------------------------
 # opt=CalcAll B3LYP/6-31G* scf=qc
 ---------------------------------

 -------------------
 Title Card Required
 -------------------
 Symbolic Z-matrix:
 Charge =  0 Multiplicity = 1

 SCF Done:  E(RB3LYP) =  -814.875713963     a.u. after    7 cycles
 SCF Done:  E(RB3LYP) =  -814.883088632     a.u. after   13 cycles
 SCF Done:  E(RB3LYP) =  -814.904596908     a.u. after   13 cycles
 SCF Done:  E(RB3LYP) =  -814.905475823     a.u. after   15 cycles
 SCF Done:  E(RB3LYP) =  -814.908559291     a.u. after   13 cycles
 SCF Done:  E(RB3LYP) =  -814.909164391     a.u. after   11 cycles
 SCF Done:  E(RB3LYP) =  -814.909271914     a.u. after   11 cycles
 SCF Done:  E(RB3LYP) =  -814.909296912     a.u. after    7 cycles
 SCF Done:  E(RB3LYP) =  -814.909297783     a.u. after    3 cycles
 SCF Done:  E(RB3LYP) =  -814.909297861     a.u. after    2 cycles
 Optimization completed.
    -- Stationary point found.
 Normal termination of Gaussian 16 at Sun Aug 23 08:45:05 2020.

 ----------------------------------------------------------------------
 # freq B3LYP/6-31G* scf=qc volume NMR pop=NPA density=current Geom=All
 Check Guess=Read
 ----------------------------------------------------------------------

 Structure from the checkpoint file:  "phosphine_2_conf22.chk"
 -------------------
 Title Card Required
 -------------------
 Charge =  0 Multiplicity = 1

 SCF Done:  E(RB3LYP) =  -814.909297861     a.u. after    1 cycles

      1  C    Isotropic =   173.5289   Anisotropy =    24.6983

      2  C    Isotropic =   164.9515   Anisotropy =    14.9881

      3  C    Isotropic =   160.6663   Anisotropy =    24.6570

      4  C    Isotropic =   160.7324   Anisotropy =    29.5294

      5  H    Isotropic =    30.2219   Anisotropy =     4.5699

      6  H    Isotropic =    31.0992   Anisotropy =     7.0305

      7  P    Isotropic =   395.2073   Anisotropy =    44.5298

      8  C    Isotropic =   165.3107   Anisotropy =    20.6076

      9  H    Isotropic =    31.1188   Anisotropy =     7.1635

     10  H    Isotropic =    30.2512   Anisotropy =     6.1660

     11  C    Isotropic =   166.7163   Anisotropy =    16.1769

     12  C    Isotropic =   164.1732   Anisotropy =    16.9350

     13  C    Isotropic =   175.6925   Anisotropy =    19.1368

     14  C    Isotropic =   163.4211   Anisotropy =    29.1352

     15  H    Isotropic =    30.3566   Anisotropy =     4.2155

     16  H    Isotropic =    31.2257   Anisotropy =     7.4229

     17  C    Isotropic =   156.6064   Anisotropy =    23.2469

     18  C    Isotropic =   164.1274   Anisotropy =    17.8183

     19  C    Isotropic =   173.3298   Anisotropy =    25.7277

     20  H    Isotropic =    31.0544   Anisotropy =    10.2398

     21  H    Isotropic =    31.3358   Anisotropy =     7.4298

     22  H    Isotropic =    31.3119   Anisotropy =     8.5686

     23  H    Isotropic =    30.1366   Anisotropy =     5.9717

     24  H    Isotropic =    30.8918   Anisotropy =     6.8340

     25  H    Isotropic =    30.5841   Anisotropy =     7.8101

     26  H    Isotropic =    30.7491   Anisotropy =     5.2240

     27  H    Isotropic =    30.5209   Anisotropy =     6.4312

     28  H    Isotropic =    30.8465   Anisotropy =     5.1852

     29  H    Isotropic =    30.8172   Anisotropy =     7.0543

     30  H    Isotropic =    30.4280   Anisotropy =     9.2390

     31  H    Isotropic =    30.9428   Anisotropy =     5.8727

     32  H    Isotropic =    31.1344   Anisotropy =    10.5665

     33  H    Isotropic =    31.4750   Anisotropy =     7.7931

     34  H    Isotropic =    30.4786   Anisotropy =     5.8784

     35  H    Isotropic =    30.5398   Anisotropy =     8.0384

     36  H    Isotropic =    30.9773   Anisotropy =     5.1235

     37  H    Isotropic =    30.5149   Anisotropy =     6.9678

     38  H    Isotropic =    31.3335   Anisotropy =     8.6964

     39  H    Isotropic =    31.0780   Anisotropy =     9.8899

     40  H    Isotropic =    31.2722   Anisotropy =     8.2814

  Exact polarizability: 176.848   0.818 154.634   0.104   3.426 128.682
 Approx polarizability: 214.884   0.572 210.346  -0.184   5.909 198.763

                      1                      2                      3
                      A                      A                      A
 Frequencies --     20.2449                25.7401                36.5712
 Red. masses --      3.0879                 3.3248                 2.5714
 Frc consts  --      0.0007                 0.0013                 0.0020
 IR Inten    --      0.0060                 0.0299                 0.0295

                      4                      5                      6
                      A                      A                      A
 Frequencies --     55.1113                69.6720                84.8792
 Red. masses --      3.1589                 1.6048                 1.6271
 Frc consts  --      0.0057                 0.0046                 0.0069
 IR Inten    --      0.0358                 0.0659                 0.0089

                      7                      8                      9
                      A                      A                      A
 Frequencies --     96.4814               105.0958               128.0166
 Red. masses --      2.6173                 2.7716                 2.4130
 Frc consts  --      0.0144                 0.0180                 0.0233
 IR Inten    --      0.0026                 0.3395                 0.1258

                     10                     11                     12
                      A                      A                      A
 Frequencies --    153.4660               162.9165               200.4612
 Red. masses --      2.7759                 2.8433                 2.1818
 Frc consts  --      0.0385                 0.0445                 0.0517
 IR Inten    --      0.0353                 0.0473                 0.0628

                     13                     14                     15
                      A                      A                      A
 Frequencies --    213.3319               235.2527               246.2318
 Red. masses --      1.7563                 1.6227                 1.1947
 Frc consts  --      0.0471                 0.0529                 0.0427
 IR Inten    --      0.0225                 0.2331                 0.0139

                     16                     17                     18
                      A                      A                      A
 Frequencies --    254.6772               259.4405               281.6711
 Red. masses --      1.3897                 2.1478                 1.8658
 Frc consts  --      0.0531                 0.0852                 0.0872
 IR Inten    --      0.1543                 0.0356                 0.0711

                     19                     20                     21
                      A                      A                      A
 Frequencies --    290.0009               314.0997               364.4040
 Red. masses --      1.7675                 2.6873                 2.7685
 Frc consts  --      0.0876                 0.1562                 0.2166
 IR Inten    --      0.2431                 0.1731                 0.0542

                     22                     23                     24
                      A                      A                      A
 Frequencies --    428.1723               468.6675               488.4757
 Red. masses --      2.5010                 3.0810                 2.6482
 Frc consts  --      0.2701                 0.3987                 0.3723
 IR Inten    --      1.0216                 0.6459                 0.3408

                     25                     26                     27
                      A                      A                      A
 Frequencies --    633.9485               636.2926               699.3802
 Red. masses --      2.7384                 3.5617                 2.2895
 Frc consts  --      0.6484                 0.8496                 0.6598
 IR Inten    --      2.6457                 6.6123                 9.0332

                     28                     29                     30
                      A                      A                      A
 Frequencies --    712.6094               748.6437               760.3121
 Red. masses --      1.4594                 1.1932                 1.2352
 Frc consts  --      0.4366                 0.3940                 0.4207
 IR Inten    --      5.1303                 9.5921                 1.3267

                     31                     32                     33
                      A                      A                      A
 Frequencies --    785.4338               793.4886               805.8798
 Red. masses --      1.4339                 1.4983                 1.6096
 Frc consts  --      0.5212                 0.5558                 0.6159
 IR Inten    --      4.8815                 6.5182                 2.1128

                     34                     35                     36
                      A                      A                      A
 Frequencies --    874.1817               886.7624               893.1791
 Red. masses --      2.5009                 1.4073                 1.4827
 Frc consts  --      1.1260                 0.6520                 0.6969
 IR Inten    --      0.1606                 0.7095                 2.9625

                     37                     38                     39
                      A                      A                      A
 Frequencies --    900.0208               919.9164               936.9394
 Red. masses --      1.3779                 1.4791                 1.3942
 Frc consts  --      0.6576                 0.7375                 0.7211
 IR Inten    --      0.3268                11.7951                 8.3713

                     40                     41                     42
                      A                      A                      A
 Frequencies --    985.5296              1009.4731              1015.8364
 Red. masses --      2.0272                 2.8315                 2.6873
 Frc consts  --      1.1601                 1.7000                 1.6339
 IR Inten    --      7.7710                 2.2542                 1.0241

                     43                     44                     45
                      A                      A                      A
 Frequencies --   1059.7954              1068.4346              1070.6513
 Red. masses --      1.3070                 2.0235                 1.9178
 Frc consts  --      0.8649                 1.3610                 1.2953
 IR Inten    --      0.7242                 0.1424                 0.1466

                     46                     47                     48
                      A                      A                      A
 Frequencies --   1076.6329              1082.1556              1092.1844
 Red. masses --      1.7337                 1.5473                 1.4664
 Frc consts  --      1.1840                 1.0676                 1.0306
 IR Inten    --      2.1849                 1.2572                 7.7519

                     49                     50                     51
                      A                      A                      A
 Frequencies --   1106.9950              1120.4221              1124.1124
 Red. masses --      1.6475                 1.7421                 1.7558
 Frc consts  --      1.1895                 1.2885                 1.3072
 IR Inten    --      2.4500                 3.2224                 1.9499

                     52                     53                     54
                      A                      A                      A
 Frequencies --   1228.1990              1231.3877              1232.1785
 Red. masses --      1.4828                 1.4421                 1.4430
 Frc consts  --      1.3178                 1.2883                 1.2909
 IR Inten    --      0.6950                 3.1142                 7.5573

                     55                     56                     57
                      A                      A                      A
 Frequencies --   1256.8320              1263.6566              1271.2633
 Red. masses --      1.4443                 1.3663                 1.3619
 Frc consts  --      1.3442                 1.2855                 1.2968
 IR Inten    --      0.7514                 1.5589                 1.1681

                     58                     59                     60
                      A                      A                      A
 Frequencies --   1317.2093              1317.5522              1326.5599
 Red. masses --      1.2534                 1.2202                 1.2460
 Frc consts  --      1.2813                 1.2480                 1.2919
 IR Inten    --      5.9737                 0.3357                 1.0363

                     61                     62                     63
                      A                      A                      A
 Frequencies --   1338.3931              1344.4560              1345.8711
 Red. masses --      1.1610                 1.2627                 1.2416
 Frc consts  --      1.2254                 1.3448                 1.3251
 IR Inten    --      5.3455                11.9471                 4.5045

                     64                     65                     66
                      A                      A                      A
 Frequencies --   1352.3506              1356.0389              1390.7592
 Red. masses --      1.1389                 1.1264                 1.3914
 Frc consts  --      1.2273                 1.2204                 1.5856
 IR Inten    --      0.1267                 1.3616                 0.3237

                     67                     68                     69
                      A                      A                      A
 Frequencies --   1398.1953              1418.0036              1420.0165
 Red. masses --      1.3310                 1.5296                 1.5363
 Frc consts  --      1.5331                 1.8121                 1.8252
 IR Inten    --     10.4961                 3.2308                 2.0176

                     70                     71                     72
                      A                      A                      A
 Frequencies --   1440.4997              1440.8194              1442.4816
 Red. masses --      1.2380                 1.2419                 1.2591
 Frc consts  --      1.5135                 1.5190                 1.5436
 IR Inten    --      0.5465                 1.0970                 5.9130

                     73                     74                     75
                      A                      A                      A
 Frequencies --   1484.4752              1491.2514              1498.5871
 Red. masses --      1.0845                 1.0866                 1.0866
 Frc consts  --      1.4081                 1.4237                 1.4378
 IR Inten    --      2.3433                 1.2606                 9.9671

                     76                     77                     78
                      A                      A                      A
 Frequencies --   1513.7443              1516.5863              1518.2331
 Red. masses --      1.0748                 1.0749                 1.0664
 Frc consts  --      1.4510                 1.4566                 1.4482
 IR Inten    --      0.6506                 1.1301                 0.4637

                     79                     80                     81
                      A                      A                      A
 Frequencies --   1519.7564              1523.5422              1526.8761
 Red. masses --      1.0753                 1.0671                 1.0702
 Frc consts  --      1.4633                 1.4594                 1.4700
 IR Inten    --      1.9558                 1.5982                 1.4044

                     82                     83                     84
                      A                      A                      A
 Frequencies --   1529.7209              1529.9043              1532.3065
 Red. masses --      1.0411                 1.0412                 1.0524
 Frc consts  --      1.4354                 1.4359                 1.4559
 IR Inten    --      5.7581                 6.1950                 5.2039

                     85                     86                     87
                      A                      A                      A
 Frequencies --   1538.4452              1538.9254              1541.3496
 Red. masses --      1.0612                 1.0772                 1.0834
 Frc consts  --      1.4799                 1.5031                 1.5165
 IR Inten    --      7.7626                 1.4936                 3.5799

                     88                     89                     90
                      A                      A                      A
 Frequencies --   3014.9193              3016.0611              3024.2089
 Red. masses --      1.0615                 1.0601                 1.0649
 Frc consts  --      5.6848                 5.6815                 5.7382
 IR Inten    --     23.2878                12.4383                53.0445

                     91                     92                     93
                      A                      A                      A
 Frequencies --   3024.8918              3027.9871              3030.5463
 Red. masses --      1.0609                 1.0637                 1.0685
 Frc consts  --      5.7195                 5.7463                 5.7819
 IR Inten    --     31.1068                 3.8430                22.9663

                     94                     95                     96
                      A                      A                      A
 Frequencies --   3031.6993              3036.3433              3039.5282
 Red. masses --      1.0609                 1.0623                 1.0372
 Frc consts  --      5.7452                 5.7704                 5.6459
 IR Inten    --      2.5334                25.4569                44.6025

                     97                     98                     99
                      A                      A                      A
 Frequencies --   3041.3918              3042.1000              3044.3145
 Red. masses --      1.0369                 1.0538                 1.0513
 Frc consts  --      5.6513                 5.7458                 5.7406
 IR Inten    --     39.2539                 7.1843                17.0875

                    100                    101                    102
                      A                      A                      A
 Frequencies --   3047.9361              3049.6045              3059.0990
 Red. masses --      1.0884                 1.0891                 1.0956
 Frc consts  --      5.9572                 5.9678                 6.0408
 IR Inten    --     40.1686                18.7971                32.8327

                    103                    104                    105
                      A                      A                      A
 Frequencies --   3066.1165              3067.1168              3071.9887
 Red. masses --      1.1016                 1.1025                 1.1006
 Frc consts  --      6.1020                 6.1105                 6.1198
 IR Inten    --      1.4660                35.0877                20.3002

                    106                    107                    108
                      A                      A                      A
 Frequencies --   3075.5574              3079.7030              3088.8419
 Red. masses --      1.1026                 1.1024                 1.1029
 Frc consts  --      6.1450                 6.1601                 6.1997
 IR Inten    --     20.3058                49.1509                53.1611

                    109                    110                    111
                      A                      A                      A
 Frequencies --   3104.5687              3106.7385              3106.9304
 Red. masses --      1.1029                 1.1028                 1.1012
 Frc consts  --      6.2630                 6.2715                 6.2632
 IR Inten    --     73.2965                57.9634                43.1438

                    112                    113                    114
                      A                      A                      A
 Frequencies --   3110.5445              3110.9995              3115.9450
 Red. masses --      1.1014                 1.1019                 1.1018
 Frc consts  --      6.2789                 6.2836                 6.3027
 IR Inten    --     41.2568                39.9256                48.9075

 - Thermochemistry -
 -------------------
 Temperature   298.150 Kelvin.  Pressure   1.00000 Atm.
 Atom     1 has atomic number  6 and mass  12.00000

 Molecular mass:   202.18504 amu.
 Principal axes and moments of inertia in atomic units:
                           1         2         3
     Eigenvalues --  2878.844265097.394717104.88636
           X            1.00000   0.00240   0.00047
           Y           -0.00240   0.99999   0.00308
           Z           -0.00046  -0.00308   1.00000
 This molecule is an asymmetric top.
 Rotational symmetry number  1.
 Warning -- assumption of classical behavior for rotation
           may cause significant error
 Rotational temperatures (Kelvin)      0.03009     0.01699     0.01219
 Rotational constants (GHZ):           0.62690     0.35405     0.25401
 Zero-point vibrational energy     977076.3 (Joules/Mol)
                                  233.52684 (Kcal/Mol)
 Warning -- explicit consideration of  24 degrees of freedom as
           vibrations may cause significant error
 Vibrational temperatures:     29.13    37.03    52.62    79.29   100.24
          (Kelvin)            122.12   138.82   151.21   184.19   220.80
                              234.40   288.42   306.94   338.48   354.27
                              366.42   373.28   405.26   417.25   451.92
                              524.30   616.04   674.31   702.81   912.11
                              915.48  1006.25  1025.29  1077.13  1093.92
                             1130.06  1141.65  1159.48  1257.75  1275.85
                             1285.09  1294.93  1323.55  1348.05  1417.96
                             1452.41  1461.56  1524.81  1537.24  1540.43
                             1549.03  1556.98  1571.41  1592.72  1612.04
                             1617.35  1767.10  1771.69  1772.83  1808.30
                             1818.12  1829.06  1895.17  1895.66  1908.62
                             1925.65  1934.37  1936.41  1945.73  1951.04
                             2000.99  2011.69  2040.19  2043.09  2072.56
                             2073.02  2075.41  2135.83  2145.58  2156.13
                             2177.94  2182.03  2184.40  2186.59  2192.04
                             2196.83  2200.93  2201.19  2204.65  2213.48
                             2214.17  2217.66  4337.80  4339.44  4351.16
                             4352.14  4356.60  4360.28  4361.94  4368.62
                             4373.20  4375.88  4376.90  4380.09  4385.30
                             4387.70  4401.36  4411.46  4412.90  4419.91
                             4425.04  4431.01  4444.15  4466.78  4469.90
                             4470.18  4475.38  4476.03  4483.15

 Zero-point correction=                           0.372149 (Hartree/Particle)
 Thermal correction to Energy=                    0.390733
 Thermal correction to Enthalpy=                  0.391678
 Thermal correction to Gibbs Free Energy=         0.323119
 Sum of electronic and zero-point Energies=           -814.537149
 Sum of electronic and thermal Energies=              -814.518564
 Sum of electronic and thermal Enthalpies=            -814.517620
 Sum of electronic and thermal Free Energies=         -814.586179

                     E (Thermal)             CV                S
                      KCal/Mol        Cal/Mol-Kelvin    Cal/Mol-Kelvin
 Total                  245.189             66.294            144.294
 Electronic               0.000              0.000              0.000
 Translational            0.889              2.981             41.817
 Rotational               0.889              2.981             33.011
 Vibrational            243.411             60.333             69.467
 Vibration     1          0.593              1.986              6.610
 Vibration     2          0.593              1.985              6.133
 Vibration     3          0.594              1.982              5.437
 Vibration     4          0.596              1.976              4.625
 Vibration     5          0.598              1.969              4.163
 Vibration     6          0.601              1.960              3.775
 Vibration     7          0.603              1.952              3.524
 Vibration     8          0.605              1.945              3.358
 Vibration     9          0.611              1.925              2.976
 Vibration    10          0.619              1.899              2.629
 Vibration    11          0.623              1.888              2.516
 Vibration    12          0.638              1.839              2.129
 Vibration    13          0.644              1.821              2.015
 Vibration    14          0.655              1.787              1.839
 Vibration    15          0.661              1.769              1.757
 Vibration    16          0.665              1.755              1.698
 Vibration    17          0.668              1.747              1.666
 Vibration    18          0.681              1.708              1.524
 Vibration    19          0.686              1.692              1.474
 Vibration    20          0.702              1.647              1.341
 Vibration    21          0.738              1.546              1.103
 Vibration    22          0.790              1.409              0.865
 Vibration    23          0.826              1.320              0.741
 Vibration    24          0.844              1.276              0.688

 Optimization completed.
    -- Stationary point found.
 Normal termination of Gaussian 16 at Sun Aug 23 08:52:20 2020.
 Gaussian 16:  ES64L-G16RevA.03 25-Dec-2016

 ----------------------------------------------------------------------
 # TD(NStates=10, Root=1) B3LYP/6-31G* scf=qc volume pop=NPA density=cu
 rrent Geom=AllCheck Guess=Read
 ----------------------------------------------------------------------

 Structure from the checkpoint file:  "phosphine_2_conf23.chk"
 -------------------
 Title Card Required
 -------------------
 Charge =  0 Multiplicity = 1

                         Standard orientation:
 ---------------------------------------------------------------------
 Center     Atomic      Atomic             Coordinates (Angstroms)
 Number     Number       Type             X           Y           Z
 ---------------------------------------------------------------------
      1          6           0        4.592386   -1.528300    1.002455
      2          6           0        3.172551   -1.798333    0.494352
      3          6           0        2.719727   -0.790253   -0.571381
      4          6           0        1.313277   -1.046684   -1.141961
      5          1           0        1.139439   -0.396475   -2.009158
      6          1           0        1.257038   -2.079661   -1.512422
      7         15           0       -0.093829   -0.866378    0.097491
      8          6           0       -0.059480    0.989849    0.431291
      9          1           0       -0.962299    1.204533    1.018682
     10          1           0        0.779260    1.142562    1.122416
     11          6           0        0.037811    1.974745   -0.743614
     12          6           0       -0.063439    3.454417   -0.326134
     13          6           0        1.098171    3.952057    0.541934
     14          6           0       -1.535315   -1.077381   -1.098728
     15          1           0       -1.680358   -0.178094   -1.712231
     16          1           0       -1.225127   -1.871530   -1.790766
     17          6           0       -2.862569   -1.492604   -0.439724
     18          6           0       -3.488101   -0.438337    0.482718
     19          6           0       -4.853705   -0.863962    1.032022
     20          1           0        4.894234   -2.265144    1.755494
     21          1           0        4.667632   -0.534593    1.461576
     22          1           0        5.322780   -1.569437    0.184585
     23          1           0        2.469844   -1.786492    1.337080
     24          1           0        3.120016   -2.812148    0.072141
     25          1           0        3.439297   -0.809523   -1.403200
     26          1           0        2.775525    0.226423   -0.156047
     27          1           0       -0.760616    1.766650   -1.467433
     28          1           0        0.984308    1.823344   -1.280099
     29          1           0       -1.012565    3.614982    0.205082
     30          1           0       -0.116296    4.068855   -1.235442
     31          1           0        1.145359    3.427793    1.502937
     32          1           0        0.997544    5.021972    0.757283
     33          1           0        2.060412    3.804569    0.035177
     34          1           0       -2.708466   -2.419802    0.129438
     35          1           0       -3.583295   -1.736567   -1.234495
     36          1           0       -3.592116    0.509610   -0.065239
     37          1           0       -2.809180   -0.237329    1.322403
     38          1           0       -5.570445   -1.038832    0.220022
     39          1           0       -5.277360   -0.097805    1.691367
     40          1           0       -4.775015   -1.793479    1.609090
 ---------------------------------------------------------------------

 SCF Done:  E(RB3LYP) =  -814.909297861     a.u. after    1 cycles

 Excitation energies and oscillator strengths:

 Excited State   1:      Singlet-A      6.4671 eV  191.71 nm  f=0.0886  <S**2>=0.000
      57 -> 58         0.68440
      57 -> 59         0.12739
 This state for optimization and/or second-order correction.
 Total Energy, E(TD-HF/TD-DFT) =  -814.671635706
 Copying the excited state density for this state as the 1-particle RhoCI density.

 Excited State   2:      Singlet-A      6.5928 eV  188.06 nm  f=0.1407  <S**2>=0.000
      57 -> 58        -0.12842
      57 -> 59         0.68491

 Excited State   3:      Singlet-A      6.8956 eV  179.80 nm  f=0.0204  <S**2>=0.000
      57 -> 60         0.69864

 Excited State   4:      Singlet-A      7.5312 eV  164.63 nm  f=0.0200  <S**2>=0.000
      57 -> 61         0.68480

 Excited State   5:      Singlet-A      7.7658 eV  159.65 nm  f=0.0049  <S**2>=0.000
      57 -> 62         0.63107
      57 -> 63        -0.21858
      57 -> 64        -0.19990

 Excited State   6:      Singlet-A      7.8547 eV  157.85 nm  f=0.0463  <S**2>=0.000
      57 -> 61        -0.10564
      57 -> 62         0.22343
      57 -> 63         0.64282

 Excited State   7:      Singlet-A      8.1672 eV  151.81 nm  f=0.0138  <S**2>=0.000
      57 -> 64         0.20322
      57 -> 65         0.62190
      57 -> 66        -0.19902

 Excited State   8:      Singlet-A      8.1944 eV  151.30 nm  f=0.0015  <S**2>=0.000
      57 -> 62         0.17184
      57 -> 64         0.63913
      57 -> 65        -0.20417

 Excited State   9:      Singlet-A      8.3421 eV  148.62 nm  f=0.0038  <S**2>=0.000
      55 -> 58         0.33886
      55 -> 59        -0.14416
      56 -> 58        -0.25561
      56 -> 59        -0.19654
      57 -> 65         0.15633
      57 -> 66         0.46401

 Excited State  10:      Singlet-A      8.3446 eV  148.58 nm  f=0.0023  <S**2>=0.000
      55 -> 58        -0.24778
      55 -> 59         0.13568
      56 -> 58         0.29358
      56 -> 59         0.29514
      57 -> 65         0.12918
      57 -> 66         0.44520

 The electronic state is 1-A.
 Alpha  occ. eigenvalues --  -77.06297 -10.18094 -10.18050 -10.18033 -10.17985
 Alpha  occ. eigenvalues --  -10.17979 -10.17974 -10.17793 -10.17716 -10.17399
 Alpha  occ. eigenvalues --  -10.17269 -10.17059 -10.16948  -6.53051  -4.69316
 Alpha  occ. eigenvalues --   -4.69295  -4.68800  -0.79954  -0.78788  -0.78712
 Alpha  occ. eigenvalues --   -0.74034  -0.71593  -0.71295  -0.65488  -0.63534
 Alpha  occ. eigenvalues --   -0.61885  -0.58308  -0.56962  -0.56739  -0.51476
 Alpha  occ. eigenvalues --   -0.46709  -0.46031  -0.45192  -0.44165  -0.43034
 Alpha  occ. eigenvalues --   -0.42447  -0.41996  -0.41536  -0.40980  -0.39800
 Alpha  occ. eigenvalues --   -0.38570  -0.38441  -0.37021  -0.36397  -0.35879
 Alpha  occ. eigenvalues --   -0.34520  -0.33734  -0.33588  -0.33052  -0.32777
 Alpha  occ. eigenvalues --   -0.32432  -0.32310  -0.31910  -0.31742  -0.29055
 Alpha  occ. eigenvalues --   -0.28884  -0.20958
 Alpha virt. eigenvalues --    0.05753   0.06181   0.07442   0.09671   0.10601
 Alpha virt. eigenvalues --    0.10972   0.11764   0.12021   0.12637   0.13067
 Alpha virt. eigenvalues --    0.14405   0.15160   0.15340   0.15470   0.16302

 Mulliken charges:
               1
     1  C   -0.436280
     2  C   -0.221456
     3  C   -0.215664
     4  C   -0.435564
     5  H    0.187379
     6  H    0.170372
     7  P    0.342004
     8  C   -0.375651
     9  H    0.126613
    10  H    0.131958
    11  C   -0.266618
    12  C   -0.242813
    13  C   -0.435753
    14  C   -0.430406
    15  H    0.146406
    16  H    0.162397
    17  C   -0.247387
    18  C   -0.256158
    19  C   -0.442697
    20  H    0.134784
    21  H    0.133080
    22  H    0.134456
    23  H    0.105340
    24  H    0.108956
    25  H    0.096350
    26  H    0.101256
    27  H    0.136676
    28  H    0.136725
    29  H    0.132028
    30  H    0.131496
    31  H    0.141725
    32  H    0.139055
    33  H    0.137638
    34  H    0.127750
    35  H    0.134594
    36  H    0.133894
    37  H    0.141440
    38  H    0.142690
    39  H    0.144444
    40  H    0.144942
 Sum of Mulliken charges =  -0.00000

 Dipole moment (field-independent basis, Debye):
    X=             -1.6856    Y=              0.2556    Z=             -1.5259  Tot=              2.2880
 Quadrupole moment (field-independent basis, Debye-Ang):
   XX=            -99.4442   YY=            -96.2347   ZZ=            -94.7000
   XY=              0.7543   XZ=             -1.7280   YZ=              0.5791

 Summary of Natural Population Analysis:

                                       Natural Population
                Natural  -----------------------------------------------
    Atom  No    Charge         Core      Valence    Rydberg      Total
 -----------------------------------------------------------------------
      C    1   -0.67380      1.99946     4.66622    0.00812     6.67380
      C    2   -0.45939      1.99935     4.44805    0.01200     6.45939
      C    3   -0.46754      1.99931     4.45267    0.01556     6.46754
      C    4   -0.74891      1.99930     4.73468    0.01493     6.74891
      H    5    0.27435      0.00000     0.72360    0.00205     0.72565
      H    6    0.25231      0.00000     0.74478    0.00292     0.74769
      P    7    1.03070      9.99768     3.85333    0.11828    13.96930
      C    8   -0.83317      1.99929     4.81346    0.02041     6.83317
      H    9    0.22696      0.00000     0.76466    0.00838     0.77304
      H   10    0.23908      0.00000     0.74326    0.01766     0.76092
      C   11   -0.45423      1.99929     4.44209    0.01285     6.45423
      C   12   -0.44902      1.99934     4.43843    0.01125     6.44902
      C   13   -0.68039      1.99946     4.67303    0.00790     6.68039
      C   14   -0.82697      1.99930     4.80446    0.02320     6.82697
      H   15    0.23149      0.00000     0.76149    0.00702     0.76851
      H   16    0.25722      0.00000     0.74138    0.00140     0.74278
      C   17   -0.46200      1.99932     4.44950    0.01318     6.46200
      C   18   -0.45700      1.99935     4.44606    0.01160     6.45700
      C   19   -0.67313      1.99947     4.66588    0.00779     6.67313
      H   20    0.22731      0.00000     0.77089    0.00180     0.77269
      H   21    0.21806      0.00000     0.77707    0.00487     0.78194
      H   22    0.22101      0.00000     0.77647    0.00252     0.77899
      H   23    0.20166      0.00000     0.78290    0.01544     0.79834
      H   24    0.21376      0.00000     0.78073    0.00551     0.78624
      H   25    0.21093      0.00000     0.77712    0.01196     0.78907
      H   26    0.20366      0.00000     0.77950    0.01685     0.79634
      H   27    0.22857      0.00000     0.76935    0.00208     0.77143
      H   28    0.22189      0.00000     0.77339    0.00472     0.77811
      H   29    0.22773      0.00000     0.76906    0.00320     0.77227
      H   30    0.23327      0.00000     0.76393    0.00280     0.76673
      H   31    0.22104      0.00000     0.77483    0.00413     0.77896
      H   32    0.23063      0.00000     0.76775    0.00162     0.76937
      H   33    0.22128      0.00000     0.77528    0.00343     0.77872
      H   34    0.22316      0.00000     0.77051    0.00633     0.77684
      H   35    0.23587      0.00000     0.76220    0.00194     0.76413
      H   36    0.22747      0.00000     0.77083    0.00170     0.77253
      H   37    0.22181      0.00000     0.77614    0.00205     0.77819
      H   38    0.22496      0.00000     0.77390    0.00115     0.77504
      H   39    0.23318      0.00000     0.76590    0.00093     0.76682
      H   40    0.22621      0.00000     0.77262    0.00117     0.77379
 =======================================================================
   * Total *   -0.00000     33.98993    79.59739    0.41268   114.00000

 Normal termination of Gaussian 16 at Sun Aug 23 09:00:42 2020.
