 Gaussian 16, Revision A.03,

 ---------------------------------
 # opt=CalcAll B3LYP/6-31G* scf=qc
 ---------------------------------

 -------------------
 Title Card Required
 -------------------
 Symbolic Z-matrix:
 Charge =  0 Multiplicity = 1

 SCF Done:  E(RB3LYP) =  -1029.60559800     a.u. after    9 cycles
 SCF Done:  E(RB3LYP) =  -1029.62112455     a.u. after   19 cycles
 SCF Done:  E(RB3LYP) =  -1029.62446258     a.u. after   17 cycles
 SCF Done:  E(RB3LYP) =  -1029.62585437     a.u. after   15 cycles
 SCF Done:  E(RB3LYP) =  -1029.62633014     a.u. after   17 cycles
 SCF Done:  E(RB3LYP) =  -1029.62648356     a.u. after   15 cycles
 SCF Done:  E(RB3LYP) =  -1029.62651405     a.u. after   13 cycles
 SCF Done:  E(RB3LYP) =  -1029.62652660     a.u. after   11 cycles
 SCF Done:  E(RB3LYP) =  -1029.62652795     a.u. after    7 cycles
 SCF Done:  E(RB3LYP) =  -1029.62652670     a.u. after    7 cycles
 SCF Done:  E(RB3LYP) =  -1029.62652674     a.u. after    9 cycles
 SCF Done:  E(RB3LYP) =  -1029.62652674     a.u. after    6 cycles
 SCF Done:  E(RB3LYP) =  -1029.62652646     a.u. after    9 cycles
 SCF Done:  E(RB3LYP) =  -1029.62652662     a.u. after    8 cycles
 SCF Done:  E(RB3LYP) =  -1029.62652657     a.u. after    3 cycles
 SCF Done:  E(RB3LYP) =  -1029.62652679     a.u. after    9 cycles
 SCF Done:  E(RB3LYP) =  -1029.62652680     a.u. after    2 cycles
 SCF Done:  E(RB3LYP) =  -1029.62652683     a.u. after    2 cycles
 Optimization completed.
    -- Stationary point found.
 Normal termination of Gaussian 16 at Sun Aug 23 22:23:35 2020.

 ----------------------------------------------------------------------
 # freq B3LYP/6-31G* scf=qc volume NMR pop=NPA density=current Geom=All
 Check Guess=Read
 ----------------------------------------------------------------------

 Structure from the checkpoint file:  "phosphine_9_conf172.chk"
 -------------------
 Title Card Required
 -------------------
 Charge =  0 Multiplicity = 1

 SCF Done:  E(RB3LYP) =  -1029.62652683     a.u. after    1 cycles

      1  C    Isotropic =    85.3574   Anisotropy =   118.3459

      2  C    Isotropic =    73.4582   Anisotropy =   124.0342

      3  C    Isotropic =    44.5170   Anisotropy =    90.9047

      4  O    Isotropic =    39.6656   Anisotropy =   298.8476

      5  C    Isotropic =    50.8610   Anisotropy =    98.7092

      6  P    Isotropic =   455.7792   Anisotropy =    30.8472

      7  C    Isotropic =    44.1483   Anisotropy =    85.3127

      8  C    Isotropic =    73.0224   Anisotropy =   130.3487

      9  C    Isotropic =    84.4934   Anisotropy =   119.2576

     10  C    Isotropic =    52.8354   Anisotropy =    98.4004

     11  O    Isotropic =    35.5333   Anisotropy =   287.8685

     12  C    Isotropic =    44.5171   Anisotropy =    90.9048

     13  C    Isotropic =    73.4582   Anisotropy =   124.0343

     14  C    Isotropic =    85.3574   Anisotropy =   118.3458

     15  C    Isotropic =    50.8610   Anisotropy =    98.7092

     16  O    Isotropic =    39.6654   Anisotropy =   298.8480

     17  H    Isotropic =    26.2048   Anisotropy =     2.5720

     18  H    Isotropic =    25.7058   Anisotropy =     5.0006

     19  H    Isotropic =    24.7666   Anisotropy =     4.1205

     20  H    Isotropic =    24.7456   Anisotropy =     6.4576

     21  H    Isotropic =    26.0002   Anisotropy =     2.2746

     22  H    Isotropic =    24.9922   Anisotropy =     3.5991

     23  H    Isotropic =    25.7058   Anisotropy =     5.0006

     24  H    Isotropic =    26.2048   Anisotropy =     2.5720

     25  H    Isotropic =    24.7666   Anisotropy =     4.1205

  Exact polarizability: 153.337  -0.000 151.661   1.756   0.000 138.769
 Approx polarizability: 210.770  -0.000 210.573   2.218   0.001 260.645

                      1                      2                      3
                      A                      A                      A
 Frequencies --     10.7963                41.4966                49.1203
 Red. masses --      4.5585                 4.7163                 4.8606
 Frc consts  --      0.0003                 0.0048                 0.0069
 IR Inten    --      0.3188                 0.1244                 0.7552

                      4                      5                      6
                      A                      A                      A
 Frequencies --     57.8095                58.2550                83.2243
 Red. masses --      5.6540                 5.5184                 5.7222
 Frc consts  --      0.0111                 0.0110                 0.0234
 IR Inten    --      0.4697                 0.0072                 0.6055

                      7                      8                      9
                      A                      A                      A
 Frequencies --    175.4979               215.9192               234.9941
 Red. masses --      5.7754                 6.1810                 5.6446
 Frc consts  --      0.1048                 0.1698                 0.1837
 IR Inten    --      0.0005                 0.3353                 1.1704

                     10                     11                     12
                      A                      A                      A
 Frequencies --    288.9851               295.9939               301.2345
 Red. masses --      7.0020                 5.8891                 5.7612
 Frc consts  --      0.3445                 0.3040                 0.3080
 IR Inten    --      4.5609                 7.2890                 4.7482

                     13                     14                     15
                      A                      A                      A
 Frequencies --    488.0526               491.8393               501.0236
 Red. masses --     14.5279                14.8916                13.1976
 Frc consts  --      2.0388                 2.1224                 1.9519
 IR Inten    --     58.8381                55.8765                21.2515

                     16                     17                     18
                      A                      A                      A
 Frequencies --    610.4430               610.5134               612.3196
 Red. masses --      3.1964                 3.2471                 3.2578
 Frc consts  --      0.7018                 0.7131                 0.7197
 IR Inten    --      7.1471                 4.1508                10.3954

                     19                     20                     21
                      A                      A                      A
 Frequencies --    644.5977               666.3714               673.6851
 Red. masses --      5.8884                 5.7823                 6.1911
 Frc consts  --      1.4415                 1.5128                 1.6555
 IR Inten    --      0.0630                 4.7650                 4.2066

                     22                     23                     24
                      A                      A                      A
 Frequencies --    755.6731               757.4049               757.7191
 Red. masses --      1.2897                 1.2865                 1.2887
 Frc consts  --      0.4339                 0.4348                 0.4359
 IR Inten    --     14.1830                53.7761                61.3900

                     25                     26                     27
                      A                      A                      A
 Frequencies --    825.2268               828.2688               829.4291
 Red. masses --      1.2523                 1.2483                 1.2518
 Frc consts  --      0.5025                 0.5046                 0.5074
 IR Inten    --      6.4645                 6.4082                11.7337

                     28                     29                     30
                      A                      A                      A
 Frequencies --    878.6050               879.1683               879.8253
 Red. masses --      1.3113                 1.3072                 1.3082
 Frc consts  --      0.5964                 0.5953                 0.5966
 IR Inten    --      1.1936                 0.5895                 0.9176

                     31                     32                     33
                      A                      A                      A
 Frequencies --    899.2542               900.2507               900.8076
 Red. masses --      6.2520                 6.3612                 6.2761
 Frc consts  --      2.9788                 3.0375                 3.0006
 IR Inten    --      5.5944                 1.1470                 5.5157

                     34                     35                     36
                      A                      A                      A
 Frequencies --    922.2615               923.2673               925.8616
 Red. masses --      4.7825                 4.7940                 4.6801
 Frc consts  --      2.3967                 2.4077                 2.3637
 IR Inten    --      5.2675                 7.9536                17.1789

                     37                     38                     39
                      A                      A                      A
 Frequencies --   1036.9740              1037.6288              1038.1719
 Red. masses --      1.4011                 1.4146                 1.4228
 Frc consts  --      0.8877                 0.8974                 0.9035
 IR Inten    --     42.9067                 3.2818                51.5215

                     40                     41                     42
                      A                      A                      A
 Frequencies --   1100.6408              1101.4472              1104.3343
 Red. masses --      2.4121                 2.3695                 2.1799
 Frc consts  --      1.7216                 1.6937                 1.5663
 IR Inten    --      0.2241                 2.0719                 2.4494

                     43                     44                     45
                      A                      A                      A
 Frequencies --   1140.6049              1149.4956              1152.2940
 Red. masses --      5.5183                 5.2622                 6.0951
 Frc consts  --      4.2299                 4.0967                 4.7682
 IR Inten    --      8.9229                22.1392                12.6374

                     46                     47                     48
                      A                      A                      A
 Frequencies --   1191.7008              1192.1955              1198.2618
 Red. masses --      2.1796                 2.1123                 2.1870
 Frc consts  --      1.8237                 1.7689                 1.8502
 IR Inten    --      4.5690                 9.1147                 4.6068

                     49                     50                     51
                      A                      A                      A
 Frequencies --   1247.4845              1249.8885              1255.9789
 Red. masses --      1.6511                 1.6274                 1.6650
 Frc consts  --      1.5139                 1.4979                 1.5475
 IR Inten    --      7.4954                 1.2217                20.2594

                     52                     53                     54
                      A                      A                      A
 Frequencies --   1419.3381              1419.9976              1422.6894
 Red. masses --      2.5024                 2.5524                 2.6291
 Frc consts  --      2.9701                 3.0323                 3.1353
 IR Inten    --      0.4081                 1.2046                10.2078

                     55                     56                     57
                      A                      A                      A
 Frequencies --   1487.0982              1491.2939              1502.2222
 Red. masses --      5.2765                 5.5439                 5.4801
 Frc consts  --      6.8750                 7.2642                 7.2863
 IR Inten    --     21.7204                 0.7418                18.6000

                     58                     59                     60
                      A                      A                      A
 Frequencies --   1606.7940              1608.2828              1611.5390
 Red. masses --      4.8604                 4.7836                 4.9098
 Frc consts  --      7.3934                 7.2901                 7.5127
 IR Inten    --      2.7456                 2.9326                 4.1726

                     61                     62                     63
                      A                      A                      A
 Frequencies --   3263.8548              3264.3545              3264.4041
 Red. masses --      1.0907                 1.0903                 1.0903
 Frc consts  --      6.8457                 6.8451                 6.8454
 IR Inten    --      4.6445                 3.7807                 1.9936

                     64                     65                     66
                      A                      A                      A
 Frequencies --   3275.8194              3275.9313              3288.7633
 Red. masses --      1.0968                 1.0968                 1.0966
 Frc consts  --      6.9342                 6.9352                 6.9881
 IR Inten    --      0.7626                 1.8947                 0.3583

                     67                     68                     69
                      A                      A                      A
 Frequencies --   3296.5080              3296.5911              3297.8320
 Red. masses --      1.1055                 1.1055                 1.1049
 Frc consts  --      7.0778                 7.0782                 7.0802
 IR Inten    --      2.5321                 2.8372                 2.5111

 - Thermochemistry -
 -------------------
 Temperature   298.150 Kelvin.  Pressure   1.00000 Atm.
 Atom     1 has atomic number  6 and mass  12.00000

 Molecular mass:   232.02893 amu.
 Principal axes and moments of inertia in atomic units:
                           1         2         3
     Eigenvalues --  3529.981463711.231885768.17162
           X            0.99994  -0.00000   0.01057
           Y            0.00000   1.00000   0.00000
           Z           -0.01057  -0.00000   0.99994
 This molecule is an asymmetric top.
 Rotational symmetry number  1.
 Warning -- assumption of classical behavior for rotation
           may cause significant error
 Rotational temperatures (Kelvin)      0.02454     0.02334     0.01502
 Rotational constants (GHZ):           0.51126     0.48629     0.31288
 Zero-point vibrational energy     480095.0 (Joules/Mol)
                                  114.74545 (Kcal/Mol)
 Warning -- explicit consideration of  18 degrees of freedom as
           vibrations may cause significant error
 Vibrational temperatures:     15.53    59.70    70.67    83.18    83.82
          (Kelvin)            119.74   252.50   310.66   338.10   415.79
                              425.87   433.41   702.20   707.65   720.86
                              878.29   878.39   880.99   927.43   958.76
                              969.28  1087.25  1089.74  1090.19  1187.32
                             1191.69  1193.36  1264.12  1264.93  1265.87
                             1293.83  1295.26  1296.06  1326.93  1328.38
                             1332.11  1491.97  1492.92  1493.70  1583.58
                             1584.74  1588.89  1641.08  1653.87  1657.89
                             1714.59  1715.30  1724.03  1794.85  1798.31
                             1807.07  2042.11  2043.06  2046.93  2139.60
                             2145.64  2161.36  2311.82  2313.96  2318.65
                             4695.96  4696.68  4696.75  4713.17  4713.33
                             4731.80  4742.94  4743.06  4744.84

 Zero-point correction=                           0.182859 (Hartree/Particle)
 Thermal correction to Energy=                    0.196504
 Thermal correction to Enthalpy=                  0.197448
 Thermal correction to Gibbs Free Energy=         0.138503
 Sum of electronic and zero-point Energies=          -1029.443668
 Sum of electronic and thermal Energies=             -1029.430023
 Sum of electronic and thermal Enthalpies=           -1029.429078
 Sum of electronic and thermal Free Energies=        -1029.488024

                     E (Thermal)             CV                S
                      KCal/Mol        Cal/Mol-Kelvin    Cal/Mol-Kelvin
 Total                  123.308             50.755            124.061
 Electronic               0.000              0.000              0.000
 Translational            0.889              2.981             42.227
 Rotational               0.889              2.981             32.691
 Vibrational            121.531             44.794             49.143
 Vibration     1          0.593              1.987              7.859
 Vibration     2          0.594              1.981              5.186
 Vibration     3          0.595              1.978              4.852
 Vibration     4          0.596              1.974              4.531
 Vibration     5          0.596              1.974              4.515
 Vibration     6          0.600              1.961              3.813
 Vibration     7          0.627              1.873              2.376
 Vibration     8          0.645              1.817              1.993
 Vibration     9          0.655              1.787              1.840
 Vibration    10          0.686              1.694              1.480
 Vibration    11          0.690              1.681              1.439
 Vibration    12          0.693              1.671              1.410
 Vibration    13          0.844              1.277              0.689
 Vibration    14          0.848              1.268              0.679
 Vibration    15          0.856              1.248              0.656
 Vibration    16          0.969              1.010              0.432
 Vibration    17          0.970              1.010              0.432
 Vibration    18          0.972              1.006              0.429

 Optimization completed.
    -- Stationary point found.
 Normal termination of Gaussian 16 at Sun Aug 23 22:30:06 2020.
 Gaussian 16:  ES64L-G16RevA.03 25-Dec-2016

 ----------------------------------------------------------------------
 # TD(NStates=10, Root=1) B3LYP/6-31G* scf=qc volume pop=NPA density=cu
 rrent Geom=AllCheck Guess=Read
 ----------------------------------------------------------------------

 Structure from the checkpoint file:  "phosphine_9_conf173.chk"
 -------------------
 Title Card Required
 -------------------
 Charge =  0 Multiplicity = 1

                         Standard orientation:
 ---------------------------------------------------------------------
 Center     Atomic      Atomic             Coordinates (Angstroms)
 Number     Number       Type             X           Y           Z
 ---------------------------------------------------------------------
      1          6           0       -1.973779    3.315259   -0.026293
      2          6           0       -1.436786    2.471295   -1.048701
      3          6           0       -0.826313    1.417616   -0.421026
      4          8           0       -0.959214    1.567746    0.942016
      5          6           0       -1.652250    2.717092    1.154564
      6         15           0        0.046329    0.000001   -1.154030
      7          6           0        1.612677    0.000032   -0.216739
      8          6           0        1.979161    0.000053    1.103283
      9          6           0        3.407582    0.000071    1.139177
     10          6           0        3.815862    0.000060   -0.161796
     11          8           0        2.749249    0.000036   -1.000049
     12          6           0       -0.826259   -1.417647   -0.421024
     13          6           0       -1.436698   -2.471346   -1.048697
     14          6           0       -1.973656   -3.315331   -0.026288
     15          6           0       -1.652141   -2.717154    1.154568
     16          8           0       -0.959147   -1.567783    0.942019
     17          1           0       -2.521207    4.238773   -0.153546
     18          1           0       -1.491447    2.621107   -2.118217
     19          1           0       -1.834390    2.969289    2.188841
     20          1           0        1.298295    0.000054    1.941850
     21          1           0        4.043612    0.000089    2.013758
     22          1           0        4.785380    0.000066   -0.637385
     23          1           0       -1.491359   -2.621159   -2.118213
     24          1           0       -2.521052   -4.238864   -0.153538
     25          1           0       -1.834267   -2.969359    2.188847
 ---------------------------------------------------------------------

 SCF Done:  E(RB3LYP) =  -1029.62652683     a.u. after    1 cycles

 Excitation energies and oscillator strengths:

 Excited State   1:      Singlet-A      4.8578 eV  255.23 nm  f=0.0716  <S**2>=0.000
      59 -> 61         0.18135
      60 -> 61         0.67551
 This state for optimization and/or second-order correction.
 Total Energy, E(TD-HF/TD-DFT) =  -1029.44800656
 Copying the excited state density for this state as the 1-particle RhoCI density.

 Excited State   2:      Singlet-A      4.9666 eV  249.64 nm  f=0.1357  <S**2>=0.000
      58 -> 61         0.13124
      59 -> 62        -0.13791
      60 -> 62         0.67666

 Excited State   3:      Singlet-A      5.2166 eV  237.67 nm  f=0.0230  <S**2>=0.000
      58 -> 62        -0.40957
      59 -> 61         0.56224

 Excited State   4:      Singlet-A      5.3788 eV  230.50 nm  f=0.1909  <S**2>=0.000
      58 -> 61        -0.42243
      59 -> 62         0.52629
      60 -> 62         0.18092

 Excited State   5:      Singlet-A      5.4699 eV  226.67 nm  f=0.2765  <S**2>=0.000
      58 -> 62         0.55960
      59 -> 61         0.37892
      60 -> 61        -0.17181

 Excited State   6:      Singlet-A      5.5768 eV  222.32 nm  f=0.0241  <S**2>=0.000
      57 -> 61         0.68750

 Excited State   7:      Singlet-A      5.6090 eV  221.05 nm  f=0.0049  <S**2>=0.000
      57 -> 62         0.69773

 Excited State   8:      Singlet-A      5.6658 eV  218.83 nm  f=0.0432  <S**2>=0.000
      57 -> 61        -0.13954
      58 -> 61         0.47036
      59 -> 62         0.34806
      60 -> 63        -0.35217

 Excited State   9:      Singlet-A      6.3475 eV  195.33 nm  f=0.0593  <S**2>=0.000
      56 -> 62        -0.21391
      58 -> 61         0.23832
      59 -> 62         0.23846
      60 -> 63         0.54713
      60 -> 64        -0.12823

 Excited State  10:      Singlet-A      6.3622 eV  194.88 nm  f=0.0104  <S**2>=0.000
      56 -> 61         0.68862
      60 -> 65        -0.10548

 The electronic state is 1-A.
 Alpha  occ. eigenvalues --  -77.09958 -19.21324 -19.21324 -19.21096 -10.23901
 Alpha  occ. eigenvalues --  -10.23901 -10.23453 -10.23372 -10.23372 -10.23004
 Alpha  occ. eigenvalues --  -10.19060 -10.19060 -10.18774 -10.18774 -10.18439
 Alpha  occ. eigenvalues --  -10.18393  -6.56605  -4.72873  -4.72862  -4.72377
 Alpha  occ. eigenvalues --   -1.10529  -1.10309  -1.10149  -0.79842  -0.79679
 Alpha  occ. eigenvalues --   -0.79333  -0.77196  -0.73720  -0.73489  -0.64603
 Alpha  occ. eigenvalues --   -0.59956  -0.59449  -0.59147  -0.55941  -0.55568
 Alpha  occ. eigenvalues --   -0.54613  -0.53018  -0.52810  -0.48845  -0.45155
 Alpha  occ. eigenvalues --   -0.44895  -0.43793  -0.43303  -0.42986  -0.41514
 Alpha  occ. eigenvalues --   -0.40340  -0.40298  -0.39581  -0.38684  -0.38371
 Alpha  occ. eigenvalues --   -0.37093  -0.35916  -0.35314  -0.27892  -0.27716
 Alpha  occ. eigenvalues --   -0.27268  -0.25511  -0.23602  -0.23309  -0.21471
 Alpha virt. eigenvalues --   -0.01375  -0.01154   0.02817   0.05766   0.06516
 Alpha virt. eigenvalues --    0.07626   0.08249   0.09395   0.10059   0.12446
 Alpha virt. eigenvalues --    0.13174   0.13324   0.13857   0.14936   0.15885

 Mulliken charges:
               1
     1  C   -0.174962
     2  C   -0.196987
     3  C    0.077058
     4  O   -0.434184
     5  C    0.059652
     6  P    0.270427
     7  C    0.185026
     8  C   -0.125982
     9  C   -0.168323
    10  C    0.153860
    11  O   -0.386203
    12  C    0.077059
    13  C   -0.196987
    14  C   -0.174962
    15  C    0.059653
    16  O   -0.434183
    17  H    0.127375
    18  H    0.131099
    19  H    0.135159
    20  H    0.223801
    21  H    0.187804
    22  H    0.211167
    23  H    0.131099
    24  H    0.127376
    25  H    0.135159
 Sum of Mulliken charges =  -0.00000

 Dipole moment (field-independent basis, Debye):
    X=              6.8823    Y=              0.0001    Z=              2.4053  Tot=              7.2905
 Quadrupole moment (field-independent basis, Debye-Ang):
   XX=            -73.6793   YY=            -97.4304   ZZ=            -93.3144
   XY=              0.0005   XZ=              3.1168   YZ=              0.0001

 Summary of Natural Population Analysis:

                                       Natural Population
                Natural  -----------------------------------------------
    Atom  No    Charge         Core      Valence    Rydberg      Total
 -----------------------------------------------------------------------
      C    1   -0.32962      1.99908     4.31741    0.01313     6.32962
      C    2   -0.32381      1.99892     4.30962    0.01527     6.32381
      C    3   -0.11323      1.99885     4.07762    0.03675     6.11323
      O    4   -0.49109      1.99974     6.47686    0.01448     8.49109
      C    5    0.07008      1.99905     3.90541    0.02547     5.92992
      P    6    0.80328      9.99806     4.13282    0.06584    14.19672
      C    7    0.13573      1.99899     3.82641    0.03887     5.86427
      C    8   -0.23747      1.99897     4.22270    0.01580     6.23747
      C    9   -0.29933      1.99912     4.28709    0.01312     6.29933
      C   10    0.23778      1.99907     3.74080    0.02234     5.76222
      O   11   -0.45701      1.99975     6.43839    0.01886     8.45701
      C   12   -0.11322      1.99885     4.07762    0.03675     6.11322
      C   13   -0.32381      1.99892     4.30961    0.01527     6.32381
      C   14   -0.32962      1.99908     4.31741    0.01313     6.32962
      C   15    0.07008      1.99905     3.90541    0.02547     5.92992
      O   16   -0.49109      1.99974     6.47686    0.01448     8.49109
      H   17    0.23985      0.00000     0.75971    0.00044     0.76015
      H   18    0.24271      0.00000     0.75678    0.00051     0.75729
      H   19    0.21332      0.00000     0.78609    0.00059     0.78668
      H   20    0.28907      0.00000     0.71009    0.00084     0.71093
      H   21    0.26662      0.00000     0.73300    0.00038     0.73338
      H   22    0.24489      0.00000     0.75486    0.00025     0.75511
      H   23    0.24271      0.00000     0.75678    0.00051     0.75729
      H   24    0.23985      0.00000     0.75971    0.00044     0.76015
      H   25    0.21332      0.00000     0.78609    0.00059     0.78668
 =======================================================================
   * Total *   -0.00000     39.98526    79.62515    0.38959   120.00000

 Normal termination of Gaussian 16 at Sun Aug 23 22:38:23 2020.
