 Gaussian 16, Revision A.03,

 ---------------------------------
 # opt=CalcAll B3LYP/6-31G* scf=qc
 ---------------------------------

 -------------------
 Title Card Required
 -------------------
 Symbolic Z-matrix:
 Charge =  0 Multiplicity = 1

 SCF Done:  E(RB3LYP) =  -1333.97050331     a.u. after    7 cycles
 SCF Done:  E(RB3LYP) =  -1333.97982524     a.u. after   17 cycles
 SCF Done:  E(RB3LYP) =  -1333.98463221     a.u. after   17 cycles
 SCF Done:  E(RB3LYP) =  -1333.99313352     a.u. after   19 cycles
 SCF Done:  E(RB3LYP) =  -1333.99714905     a.u. after   19 cycles
 SCF Done:  E(RB3LYP) =  -1333.99831290     a.u. after   17 cycles
 SCF Done:  E(RB3LYP) =  -1333.99880958     a.u. after   15 cycles
 SCF Done:  E(RB3LYP) =  -1333.99893115     a.u. after   15 cycles
 SCF Done:  E(RB3LYP) =  -1333.99897253     a.u. after   11 cycles
 SCF Done:  E(RB3LYP) =  -1333.99897995     a.u. after    5 cycles
 SCF Done:  E(RB3LYP) =  -1333.99897587     a.u. after    4 cycles
 SCF Done:  E(RB3LYP) =  -1333.99897584     a.u. after    5 cycles
 SCF Done:  E(RB3LYP) =  -1333.99897302     a.u. after    3 cycles
 SCF Done:  E(RB3LYP) =  -1333.99897279     a.u. after    4 cycles
 SCF Done:  E(RB3LYP) =  -1333.99897787     a.u. after    2 cycles
 SCF Done:  E(RB3LYP) =  -1333.99897788     a.u. after    2 cycles
 SCF Done:  E(RB3LYP) =  -1333.99897788     a.u. after    2 cycles
 SCF Done:  E(RB3LYP) =  -1333.99897826     a.u. after    2 cycles
 Optimization completed.
    -- Stationary point found.
 Normal termination of Gaussian 16 at Sun Aug 23 17:08:46 2020.

 ----------------------------------------------------------------------
 # freq B3LYP/6-31G* scf=qc volume NMR pop=NPA density=current Geom=All
 Check Guess=Read
 ----------------------------------------------------------------------

 Structure from the checkpoint file:  "phosphine_5_conf162.chk"
 -------------------
 Title Card Required
 -------------------
 Charge =  0 Multiplicity = 1

 SCF Done:  E(RB3LYP) =  -1333.99897826     a.u. after    1 cycles

      1  C    Isotropic =    80.0726   Anisotropy =   136.7188

      2  C    Isotropic =    60.7105   Anisotropy =   171.8547

      3  C    Isotropic =    61.5794   Anisotropy =   173.5210

      4  C    Isotropic =    59.0487   Anisotropy =   162.7709

      5  C    Isotropic =    79.9354   Anisotropy =   137.4308

      6  C    Isotropic =    32.6720   Anisotropy =    98.8192

      7  F    Isotropic =   295.8008   Anisotropy =   113.0047

      8  P    Isotropic =   366.1438   Anisotropy =    39.7907

      9  C    Isotropic =    61.6039   Anisotropy =   173.4693

     10  C    Isotropic =    60.7259   Anisotropy =   171.8442

     11  C    Isotropic =    80.0626   Anisotropy =   136.7114

     12  C    Isotropic =    32.6713   Anisotropy =    98.8106

     13  C    Isotropic =    79.9219   Anisotropy =   137.4282

     14  C    Isotropic =    59.0440   Anisotropy =   162.8097

     15  F    Isotropic =   295.8273   Anisotropy =   113.0607

     16  C    Isotropic =    61.6381   Anisotropy =   173.4829

     17  C    Isotropic =    59.0185   Anisotropy =   162.7616

     18  C    Isotropic =    79.9350   Anisotropy =   137.4301

     19  C    Isotropic =    32.6578   Anisotropy =    98.8341

     20  C    Isotropic =    80.0687   Anisotropy =   136.7289

     21  C    Isotropic =    60.6884   Anisotropy =   171.9032

     22  F    Isotropic =   295.7756   Anisotropy =   113.0604

     23  H    Isotropic =    25.4647   Anisotropy =     5.7395

     24  H    Isotropic =    25.3665   Anisotropy =    12.0194

     25  H    Isotropic =    24.6212   Anisotropy =     8.9190

     26  H    Isotropic =    25.3602   Anisotropy =     4.2564

     27  H    Isotropic =    25.3661   Anisotropy =    12.0249

     28  H    Isotropic =    25.4667   Anisotropy =     5.7356

     29  H    Isotropic =    25.3569   Anisotropy =     4.2626

     30  H    Isotropic =    24.6206   Anisotropy =     8.9287

     31  H    Isotropic =    24.6183   Anisotropy =     8.9124

     32  H    Isotropic =    25.3566   Anisotropy =     4.2592

     33  H    Isotropic =    25.4660   Anisotropy =     5.7374

     34  H    Isotropic =    25.3640   Anisotropy =    12.0119

  Exact polarizability: 226.224  -0.075 226.089  -0.071  -0.034 167.740
 Approx polarizability: 337.885  -0.166 337.667  -0.159  -0.069 314.904

                      1                      2                      3
                      A                      A                      A
 Frequencies --     24.6534                25.2517                37.5057
 Red. masses --      4.1128                 4.1108                 8.8655
 Frc consts  --      0.0015                 0.0015                 0.0073
 IR Inten    --      0.2486                 0.2464                 0.1008

                      4                      5                      6
                      A                      A                      A
 Frequencies --     37.6148                40.7173                50.5340
 Red. masses --      8.7906                 3.7420                 9.9526
 Frc consts  --      0.0073                 0.0037                 0.0150
 IR Inten    --      0.1038                 0.0059                 0.1143

                      7                      8                      9
                      A                      A                      A
 Frequencies --    133.1173               145.4876               145.7917
 Red. masses --      8.0536                 8.3701                 8.3743
 Frc consts  --      0.0841                 0.1044                 0.1049
 IR Inten    --      0.0228                 0.5189                 0.5140

                     10                     11                     12
                      A                      A                      A
 Frequencies --    208.9604               219.0370               219.1722
 Red. masses --      8.0464                 6.9872                 6.9905
 Frc consts  --      0.2070                 0.1975                 0.1978
 IR Inten    --      0.2910                 0.5248                 0.5275

                     13                     14                     15
                      A                      A                      A
 Frequencies --    307.9411               336.0333               336.1464
 Red. masses --      8.4333                 8.3057                 8.3095
 Frc consts  --      0.4712                 0.5526                 0.5532
 IR Inten    --      1.0290                 0.0443                 0.0447

                     16                     17                     18
                      A                      A                      A
 Frequencies --    397.1976               404.1078               404.1590
 Red. masses --      7.7320                 8.0316                 8.0080
 Frc consts  --      0.7187                 0.7728                 0.7707
 IR Inten    --      0.3063                10.0703                10.0909

                     19                     20                     21
                      A                      A                      A
 Frequencies --    420.6840               420.7784               424.7242
 Red. masses --      3.2817                 3.2790                 3.1351
 Frc consts  --      0.3422                 0.3421                 0.3332
 IR Inten    --      1.1127                 1.1324                 0.0263

                     22                     23                     24
                      A                      A                      A
 Frequencies --    435.0624               435.1148               463.5288
 Red. masses --      6.1566                 6.1473                 6.6442
 Frc consts  --      0.6866                 0.6857                 0.8411
 IR Inten    --     19.0140                19.0174                 7.3761

                     25                     26                     27
                      A                      A                      A
 Frequencies --    533.0850               533.2316               535.6328
 Red. masses --      2.8105                 2.8110                 2.9070
 Frc consts  --      0.4706                 0.4709                 0.4914
 IR Inten    --     21.8212                21.8609                13.4925

                     28                     29                     30
                      A                      A                      A
 Frequencies --    608.0685               629.9815               630.0294
 Red. masses --      7.9085                 7.8299                 7.8308
 Frc consts  --      1.7229                 1.8309                 1.8314
 IR Inten    --      0.0089                 0.0372                 0.0386

                     31                     32                     33
                      A                      A                      A
 Frequencies --    648.2100               648.3721               648.4082
 Red. masses --      7.2766                 7.3784                 7.3794
 Frc consts  --      1.8014                 1.8275                 1.8280
 IR Inten    --      0.0048                 0.1271                 0.1284

                     34                     35                     36
                      A                      A                      A
 Frequencies --    715.2073               715.7030               715.7975
 Red. masses --      4.8111                 4.8281                 4.8310
 Frc consts  --      1.4500                 1.4571                 1.4584
 IR Inten    --      1.0322                 3.9762                 3.9583

                     37                     38                     39
                      A                      A                      A
 Frequencies --    835.7190               835.8070               836.8220
 Red. masses --      1.2624                 1.2621                 1.3278
 Frc consts  --      0.5195                 0.5194                 0.5478
 IR Inten    --      0.5284                 0.5080                11.3386

                     40                     41                     42
                      A                      A                      A
 Frequencies --    839.5336               839.5994               839.7872
 Red. masses --      3.2358                 3.2945                 4.0153
 Frc consts  --      1.3437                 1.3683                 1.6684
 IR Inten    --     62.1329                61.0427                18.7321

                     43                     44                     45
                      A                      A                      A
 Frequencies --    843.6340               843.6992               844.0885
 Red. masses --      1.9856                 1.9989                 1.6731
 Frc consts  --      0.8326                 0.8383                 0.7024
 IR Inten    --     10.0107                10.0269                12.3054

                     46                     47                     48
                      A                      A                      A
 Frequencies --    958.5964               958.7311               959.8646
 Red. masses --      1.2560                 1.2560                 1.2588
 Frc consts  --      0.6800                 0.6802                 0.6833
 IR Inten    --      0.1654                 0.1648                 0.3256

                     49                     50                     51
                      A                      A                      A
 Frequencies --    969.8672               970.0189               973.4665
 Red. masses --      1.3355                 1.3351                 1.3194
 Frc consts  --      0.7401                 0.7402                 0.7367
 IR Inten    --      0.0321                 0.0334                 0.3067

                     52                     53                     54
                      A                      A                      A
 Frequencies --   1034.7383              1034.7837              1035.1965
 Red. masses --      3.0282                 3.0322                 3.0235
 Frc consts  --      1.9103                 1.9130                 1.9090
 IR Inten    --      7.9809                 7.9134                 0.0903

                     55                     56                     57
                      A                      A                      A
 Frequencies --   1102.8978              1103.1381              1108.6984
 Red. masses --      3.6679                 3.6693                 3.5555
 Frc consts  --      2.6287                 2.6309                 2.5750
 IR Inten    --     19.2299                19.2484                 1.9121

                     58                     59                     60
                      A                      A                      A
 Frequencies --   1127.5976              1127.7720              1127.9089
 Red. masses --      1.3305                 1.3305                 1.3295
 Frc consts  --      0.9967                 0.9971                 0.9965
 IR Inten    --      1.1519                 1.2895                 6.5467

                     61                     62                     63
                      A                      A                      A
 Frequencies --   1195.3098              1195.6399              1199.4667
 Red. masses --      1.1838                 1.1853                 1.1800
 Frc consts  --      0.9965                 0.9984                 1.0002
 IR Inten    --     60.6142                61.2198                 2.5230

                     64                     65                     66
                      A                      A                      A
 Frequencies --   1285.3567              1285.4883              1286.1854
 Red. masses --      3.7533                 3.7442                 3.7870
 Frc consts  --      3.6535                 3.6454                 3.6911
 IR Inten    --    167.0189               166.8445                38.7590

                     67                     68                     69
                      A                      A                      A
 Frequencies --   1324.2153              1327.4798              1327.7667
 Red. masses --      2.7483                 2.2443                 2.3376
 Frc consts  --      2.8394                 2.3302                 2.4281
 IR Inten    --      8.8177                 3.9063                 3.8169

                     70                     71                     72
                      A                      A                      A
 Frequencies --   1336.7691              1336.9259              1337.1869
 Red. masses --      2.3052                 2.1823                 1.9614
 Frc consts  --      2.4270                 2.2981                 2.0664
 IR Inten    --      0.3490                 0.3916                 0.8352

                     73                     74                     75
                      A                      A                      A
 Frequencies --   1437.9797              1438.1533              1438.2326
 Red. masses --      2.9837                 2.9927                 2.9860
 Frc consts  --      3.6351                 3.6469                 3.6391
 IR Inten    --      7.3098                 2.3265                 2.4925

                     76                     77                     78
                      A                      A                      A
 Frequencies --   1545.6256              1545.7365              1546.5314
 Red. masses --      2.4074                 2.4039                 2.4442
 Frc consts  --      3.3884                 3.3841                 3.4444
 IR Inten    --    116.4937               116.6021                24.2569

                     79                     80                     81
                      A                      A                      A
 Frequencies --   1633.9723              1633.9845              1634.0306
 Red. masses --      6.9641                 6.9671                 6.9577
 Frc consts  --     10.9549                10.9597                10.9455
 IR Inten    --     10.2932                11.5408                12.9549

                     82                     83                     84
                      A                      A                      A
 Frequencies --   1653.5551              1653.5680              1654.4093
 Red. masses --      5.8049                 5.8070                 5.8773
 Frc consts  --      9.3515                 9.3550                 9.4780
 IR Inten    --     82.5997                82.6984                22.5550

                     85                     86                     87
                      A                      A                      A
 Frequencies --   3188.7507              3188.9475              3188.9781
 Red. masses --      1.0892                 1.0892                 1.0892
 Frc consts  --      6.5253                 6.5262                 6.5260
 IR Inten    --      5.0355                 5.6527                 2.7064

                     88                     89                     90
                      A                      A                      A
 Frequencies --   3205.6290              3205.6804              3206.3264
 Red. masses --      1.0878                 1.0878                 1.0879
 Frc consts  --      6.5862                 6.5864                 6.5896
 IR Inten    --      1.9850                 2.0020                 0.3818

                     91                     92                     93
                      A                      A                      A
 Frequencies --   3221.8753              3221.8848              3222.1224
 Red. masses --      1.0942                 1.0942                 1.0941
 Frc consts  --      6.6921                 6.6922                 6.6924
 IR Inten    --      3.1837                 3.3789                11.9851

                     94                     95                     96
                      A                      A                      A
 Frequencies --   3222.5967              3222.6682              3222.8721
 Red. masses --      1.0936                 1.0936                 1.0939
 Frc consts  --      6.6918                 6.6920                 6.6943
 IR Inten    --     12.0201                11.7527                 0.5115

 - Thermochemistry -
 -------------------
 Temperature   298.150 Kelvin.  Pressure   1.00000 Atm.
 Atom     1 has atomic number  6 and mass  12.00000

 Molecular mass:   316.06287 amu.
 Principal axes and moments of inertia in atomic units:
                           1         2         3
     Eigenvalues --  8314.723788321.83378**********
           X            0.99977  -0.02127  -0.00002
           Y            0.02127   0.99977  -0.00002
           Z            0.00002   0.00001   1.00000
 This molecule is an asymmetric top.
 Rotational symmetry number  1.
 Warning -- assumption of classical behavior for rotation
           may cause significant error
 Rotational temperatures (Kelvin)      0.01042     0.01041     0.00597
 Rotational constants (GHZ):           0.21705     0.21687     0.12430
 Zero-point vibrational energy     655307.8 (Joules/Mol)
                                  156.62233 (Kcal/Mol)
 Warning -- explicit consideration of  28 degrees of freedom as
           vibrations may cause significant error
 Vibrational temperatures:     35.47    36.33    53.96    54.12    58.58
          (Kelvin)             72.71   191.53   209.32   209.76   300.65
                              315.15   315.34   443.06   483.48   483.64
                              571.48   581.42   581.49   605.27   605.41
                              611.08   625.96   626.03   666.91   766.99
                              767.20   770.66   874.87   906.40   906.47
                              932.63   932.86   932.91  1029.02  1029.74
                             1029.87  1202.41  1202.54  1204.00  1207.90
                             1208.00  1208.27  1213.80  1213.90  1214.46
                             1379.21  1379.40  1381.03  1395.42  1395.64
                             1400.60  1488.76  1488.82  1489.42  1586.82
                             1587.17  1595.17  1622.36  1622.61  1622.81
                             1719.78  1720.26  1725.77  1849.34  1849.53
                             1850.53  1905.25  1909.95  1910.36  1923.31
                             1923.54  1923.91  2068.93  2069.18  2069.30
                             2223.81  2223.97  2225.11  2350.92  2350.94
                             2351.01  2379.10  2379.12  2380.33  4587.90
                             4588.18  4588.23  4612.19  4612.26  4613.19
                             4635.56  4635.57  4635.92  4636.60  4636.70
                             4636.99

 Zero-point correction=                           0.249594 (Hartree/Particle)
 Thermal correction to Energy=                    0.268018
 Thermal correction to Enthalpy=                  0.268963
 Thermal correction to Gibbs Free Energy=         0.199597
 Sum of electronic and zero-point Energies=          -1333.749385
 Sum of electronic and thermal Energies=             -1333.730960
 Sum of electronic and thermal Enthalpies=           -1333.730016
 Sum of electronic and thermal Free Energies=        -1333.799381

                     E (Thermal)             CV                S
                      KCal/Mol        Cal/Mol-Kelvin    Cal/Mol-Kelvin
 Total                  168.184             71.393            145.992
 Electronic               0.000              0.000              0.000
 Translational            0.889              2.981             43.148
 Rotational               0.889              2.981             35.262
 Vibrational            166.407             65.431             67.582
 Vibration     1          0.593              1.985              6.219
 Vibration     2          0.593              1.985              6.171
 Vibration     3          0.594              1.982              5.387
 Vibration     4          0.594              1.982              5.381
 Vibration     5          0.594              1.981              5.224
 Vibration     6          0.595              1.977              4.796
 Vibration     7          0.613              1.920              2.901
 Vibration     8          0.617              1.908              2.730
 Vibration     9          0.617              1.907              2.726
 Vibration    10          0.642              1.827              2.053
 Vibration    11          0.647              1.812              1.967
 Vibration    12          0.647              1.812              1.966
 Vibration    13          0.698              1.659              1.373
 Vibration    14          0.717              1.604              1.231
 Vibration    15          0.717              1.603              1.230
 Vibration    16          0.764              1.476              0.973
 Vibration    17          0.769              1.461              0.948
 Vibration    18          0.769              1.461              0.947
 Vibration    19          0.783              1.425              0.890
 Vibration    20          0.783              1.425              0.889
 Vibration    21          0.787              1.416              0.876
 Vibration    22          0.796              1.394              0.842
 Vibration    23          0.796              1.394              0.842
 Vibration    24          0.821              1.331              0.756
 Vibration    25          0.888              1.177              0.580
 Vibration    26          0.888              1.176              0.580
 Vibration    27          0.891              1.171              0.575
 Vibration    28          0.967              1.015              0.436

 Optimization completed on the basis of negligible forces.
    -- Stationary point found.
 Normal termination of Gaussian 16 at Sun Aug 23 17:23:35 2020.
 Gaussian 16:  ES64L-G16RevA.03 25-Dec-2016

 ----------------------------------------------------------------------
 # TD(NStates=10, Root=1) B3LYP/6-31G* scf=qc volume pop=NPA density=cu
 rrent Geom=AllCheck Guess=Read
 ----------------------------------------------------------------------

 Structure from the checkpoint file:  "phosphine_5_conf163.chk"
 -------------------
 Title Card Required
 -------------------
 Charge =  0 Multiplicity = 1

                         Standard orientation:
 ---------------------------------------------------------------------
 Center     Atomic      Atomic             Coordinates (Angstroms)
 Number     Number       Type             X           Y           Z
 ---------------------------------------------------------------------
      1          6           0        0.761875   -3.262271   -1.129453
      2          6           0        0.756629   -1.969780   -0.603064
      3          6           0        0.050087   -1.668279    0.572086
      4          6           0       -0.646546   -2.705714    1.216252
      5          6           0       -0.661774   -3.999545    0.698447
      6          6           0        0.047598   -4.255358   -0.469821
      7          9           0        0.048490   -5.506456   -0.973562
      8         15           0       -0.000018    0.000720    1.374934
      9          6           0        1.420530    0.878128    0.571875
     10          6           0        1.328447    1.642736   -0.602004
     11          6           0        2.445541    2.293238   -1.127968
     12          6           0        3.662980    2.168934   -0.469270
     13          6           0        3.796074    1.424671    0.697725
     14          6           0        2.667617    0.791322    1.215177
     15          9           0        4.746337    2.794997   -0.972642
     16          6           0       -1.470471    0.791390    0.571718
     17          6           0       -2.023214    1.911105    1.217644
     18          6           0       -3.136641    2.570439    0.699997
     19          6           0       -3.710651    2.085547   -0.469986
     20          6           0       -3.205027    0.972755   -1.131507
     21          6           0       -2.082653    0.331782   -0.605190
     22          9           0       -4.795110    2.709459   -0.973626
     23          1           0        1.307968   -3.506120   -2.035144
     24          1           0        1.315451   -1.191472   -1.113484
     25          1           0       -1.182077   -2.500265    2.139914
     26          1           0       -1.199066   -4.805034    1.188391
     27          1           0        0.374896    1.739460   -1.111869
     28          1           0        2.383735    2.889622   -2.032658
     29          1           0        4.762514    1.360326    1.187015
     30          1           0        2.757454    0.223267    2.137892
     31          1           0       -1.579173    2.270858    2.142606
     32          1           0       -3.567622    3.436680    1.191357
     33          1           0       -3.687629    0.622903   -2.038508
     34          1           0       -1.686037   -0.539617   -1.116999
 ---------------------------------------------------------------------

 SCF Done:  E(RB3LYP) =  -1333.99897826     a.u. after    1 cycles

 Excitation energies and oscillator strengths:

 Excited State   1:      Singlet-A      4.5734 eV  271.10 nm  f=0.1354  <S**2>=0.000
      81 -> 82         0.69380
 This state for optimization and/or second-order correction.
 Total Energy, E(TD-HF/TD-DFT) =  -1333.83090988
 Copying the excited state density for this state as the 1-particle RhoCI density.

 Excited State   2:      Singlet-A      4.5754 eV  270.98 nm  f=0.1357  <S**2>=0.000
      81 -> 83         0.69342

 Excited State   3:      Singlet-A      4.5862 eV  270.34 nm  f=0.0092  <S**2>=0.000
      81 -> 84         0.68898

 Excited State   4:      Singlet-A      4.9053 eV  252.76 nm  f=0.0018  <S**2>=0.000
      81 -> 85         0.67596

 Excited State   5:      Singlet-A      4.9062 eV  252.71 nm  f=0.0017  <S**2>=0.000
      81 -> 86         0.67574

 Excited State   6:      Singlet-A      5.2393 eV  236.64 nm  f=0.0075  <S**2>=0.000
      79 -> 82         0.10360
      80 -> 83         0.10405
      81 -> 87         0.67231

 Excited State   7:      Singlet-A      5.4170 eV  228.88 nm  f=0.0000  <S**2>=0.000
      75 -> 84         0.14212
      77 -> 82         0.17828
      78 -> 83         0.16691
      79 -> 82         0.28625
      79 -> 83         0.29077
      79 -> 85         0.14824
      80 -> 82        -0.29002
      80 -> 83         0.28356
      80 -> 86         0.14052

 Excited State   8:      Singlet-A      5.4451 eV  227.70 nm  f=0.0020  <S**2>=0.000
      76 -> 82         0.20972
      77 -> 82        -0.16834
      77 -> 87         0.12255
      78 -> 83         0.18060
      79 -> 84         0.28794
      79 -> 85        -0.13127
      80 -> 84         0.41045
      80 -> 86         0.14002
      81 -> 85         0.12337

 Excited State   9:      Singlet-A      5.4458 eV  227.67 nm  f=0.0021  <S**2>=0.000
      76 -> 83        -0.20817
      77 -> 83        -0.17256
      78 -> 82        -0.17378
      78 -> 87        -0.12258
      79 -> 84         0.40788
      79 -> 86        -0.13573
      80 -> 84        -0.29188
      80 -> 85        -0.13652
      81 -> 86        -0.12401

 Excited State  10:      Singlet-A      5.6624 eV  218.96 nm  f=0.0014  <S**2>=0.000
      75 -> 84         0.16479
      76 -> 84        -0.10252
      77 -> 82         0.24736
      78 -> 83         0.23910
      79 -> 82        -0.10607
      79 -> 83        -0.24241
      79 -> 85         0.22064
      79 -> 86        -0.11909
      80 -> 82         0.32718
      80 -> 85         0.11935
      80 -> 86         0.23098

 The electronic state is 1-A.
 Alpha  occ. eigenvalues --  -77.09285 -24.70935 -24.70932 -24.70931 -10.27931
 Alpha  occ. eigenvalues --  -10.27928 -10.27927 -10.20803 -10.20800 -10.20800
 Alpha  occ. eigenvalues --  -10.20702 -10.20699 -10.20699 -10.20479 -10.20478
 Alpha  occ. eigenvalues --  -10.20477 -10.20318 -10.20316 -10.20315 -10.20310
 Alpha  occ. eigenvalues --  -10.20308 -10.20308  -6.55986  -4.72248  -4.72247
 Alpha  occ. eigenvalues --   -4.71743  -1.22113  -1.22110  -1.22109  -0.87207
 Alpha  occ. eigenvalues --   -0.86556  -0.86554  -0.77802  -0.76322  -0.76286
 Alpha  occ. eigenvalues --   -0.76285  -0.74868  -0.74866  -0.65458  -0.63138
 Alpha  occ. eigenvalues --   -0.62959  -0.62958  -0.60998  -0.60997  -0.57074
 Alpha  occ. eigenvalues --   -0.54665  -0.54664  -0.54254  -0.49446  -0.49445
 Alpha  occ. eigenvalues --   -0.49381  -0.48019  -0.48018  -0.46311  -0.46308
 Alpha  occ. eigenvalues --   -0.46296  -0.45864  -0.44921  -0.44920  -0.43857
 Alpha  occ. eigenvalues --   -0.43706  -0.43705  -0.42082  -0.40157  -0.40108
 Alpha  occ. eigenvalues --   -0.40107  -0.37161  -0.37158  -0.36439  -0.34998
 Alpha  occ. eigenvalues --   -0.34996  -0.34951  -0.33923  -0.33922  -0.27231
 Alpha  occ. eigenvalues --   -0.26849  -0.26600  -0.26597  -0.25426  -0.25421
 Alpha  occ. eigenvalues --   -0.21918
 Alpha virt. eigenvalues --   -0.02513  -0.02508  -0.02414  -0.01174  -0.01170
 Alpha virt. eigenvalues --   -0.00311   0.05880   0.05890   0.08467   0.10088
 Alpha virt. eigenvalues --    0.10089   0.12847   0.13529   0.13531   0.14052

 Mulliken charges:
               1
     1  C   -0.180482
     2  C   -0.169873
     3  C   -0.084901
     4  C   -0.153701
     5  C   -0.193224
     6  C    0.377517
     7  F   -0.288615
     8  P    0.435388
     9  C   -0.096433
    10  C   -0.151146
    11  C   -0.189836
    12  C    0.378232
    13  C   -0.180365
    14  C   -0.174399
    15  F   -0.287615
    16  C   -0.128099
    17  C   -0.169947
    18  C   -0.192139
    19  C    0.337906
    20  C   -0.181989
    21  C   -0.183111
    22  F   -0.305709
    23  H    0.155862
    24  H    0.154910
    25  H    0.152504
    26  H    0.153643
    27  H    0.177682
    28  H    0.158444
    29  H    0.154469
    30  H    0.147059
    31  H    0.126041
    32  H    0.133554
    33  H    0.136830
    34  H    0.131542
 Sum of Mulliken charges =  -0.00000

 Dipole moment (field-independent basis, Debye):
    X=              2.9202    Y=             -1.3073    Z=              1.4568  Tot=              3.5156
 Quadrupole moment (field-independent basis, Debye-Ang):
   XX=           -142.4959   YY=           -136.5346   ZZ=           -121.8273
   XY=              5.4669   XZ=             -0.7538   YZ=             -0.4262

 Summary of Natural Population Analysis:

                                       Natural Population
                Natural  -----------------------------------------------
    Atom  No    Charge         Core      Valence    Rydberg      Total
 -----------------------------------------------------------------------
      C    1   -0.28969      1.99898     4.27601    0.01470     6.28969
      C    2   -0.23627      1.99901     4.21990    0.01736     6.23627
      C    3   -0.40480      1.99889     4.38170    0.02421     6.40480
      C    4   -0.18269      1.99903     4.16849    0.01517     6.18269
      C    5   -0.31962      1.99899     4.30492    0.01572     6.31962
      C    6    0.43397      1.99844     3.54024    0.02735     5.56603
      F    7   -0.32508      1.99994     7.31959    0.00556     9.32508
      P    8    1.21001      9.99756     3.74086    0.05157    13.78999
      C    9   -0.42218      1.99890     4.39699    0.02629     6.42218
      C   10   -0.19137      1.99901     4.17618    0.01619     6.19137
      C   11   -0.30675      1.99898     4.29266    0.01511     6.30675
      C   12    0.43411      1.99844     3.54006    0.02739     5.56589
      C   13   -0.29531      1.99899     4.28153    0.01480     6.29531
      C   14   -0.21754      1.99903     4.20251    0.01600     6.21754
      F   15   -0.32430      1.99994     7.31878    0.00558     9.32430
      C   16   -0.49109      1.99887     4.46629    0.02593     6.49109
      C   17   -0.21247      1.99903     4.19745    0.01600     6.21247
      C   18   -0.31602      1.99900     4.30126    0.01576     6.31602
      C   19    0.36825      1.99844     3.60522    0.02809     5.63175
      C   20   -0.28988      1.99899     4.27589    0.01500     6.28988
      C   21   -0.26247      1.99900     4.24507    0.01840     6.26247
      F   22   -0.34030      1.99994     7.33487    0.00548     9.34030
      H   23    0.25589      0.00000     0.74291    0.00119     0.74411
      H   24    0.25013      0.00000     0.74860    0.00126     0.74987
      H   25    0.24535      0.00000     0.75342    0.00123     0.75465
      H   26    0.25506      0.00000     0.74377    0.00117     0.74494
      H   27    0.26228      0.00000     0.73633    0.00139     0.73772
      H   28    0.25746      0.00000     0.74135    0.00118     0.74254
      H   29    0.25466      0.00000     0.74412    0.00122     0.74534
      H   30    0.24128      0.00000     0.75767    0.00105     0.75872
      H   31    0.23063      0.00000     0.76844    0.00093     0.76937
      H   32    0.24518      0.00000     0.75361    0.00121     0.75482
      H   33    0.24687      0.00000     0.75193    0.00121     0.75313
      H   34    0.23668      0.00000     0.76172    0.00159     0.76332
 =======================================================================
   * Total *    0.00000     51.97740   109.59033    0.43228   162.00000

 Normal termination of Gaussian 16 at Sun Aug 23 17:40:09 2020.
