 Gaussian 16, Revision A.03,

 ---------------------------------
 # opt=CalcAll B3LYP/6-31G* scf=qc
 ---------------------------------

 -------------------
 Title Card Required
 -------------------
 Symbolic Z-matrix:
 Charge =  0 Multiplicity = 1

 SCF Done:  E(RB3LYP) =  -2415.07380027     a.u. after    8 cycles
 SCF Done:  E(RB3LYP) =  -2415.08412123     a.u. after   19 cycles
 SCF Done:  E(RB3LYP) =  -2415.08562815     a.u. after   15 cycles
 SCF Done:  E(RB3LYP) =  -2415.08611589     a.u. after   17 cycles
 SCF Done:  E(RB3LYP) =  -2415.08617334     a.u. after   15 cycles
 SCF Done:  E(RB3LYP) =  -2415.08624041     a.u. after   11 cycles
 SCF Done:  E(RB3LYP) =  -2415.08623897     a.u. after    3 cycles
 SCF Done:  E(RB3LYP) =  -2415.08624754     a.u. after    4 cycles
 SCF Done:  E(RB3LYP) =  -2415.08624204     a.u. after    2 cycles
 SCF Done:  E(RB3LYP) =  -2415.08624064     a.u. after    3 cycles
 SCF Done:  E(RB3LYP) =  -2415.08624275     a.u. after    2 cycles
 SCF Done:  E(RB3LYP) =  -2415.08624271     a.u. after    2 cycles
 SCF Done:  E(RB3LYP) =  -2415.08624276     a.u. after    2 cycles
 SCF Done:  E(RB3LYP) =  -2415.08624380     a.u. after    2 cycles
 SCF Done:  E(RB3LYP) =  -2415.08624738     a.u. after    4 cycles
 SCF Done:  E(RB3LYP) =  -2415.08624138     a.u. after    3 cycles
 SCF Done:  E(RB3LYP) =  -2415.08624019     a.u. after    2 cycles
 SCF Done:  E(RB3LYP) =  -2415.08624036     a.u. after    2 cycles
 Optimization completed.
    -- Stationary point found.
 Normal termination of Gaussian 16 at Sun Aug 23 04:05:18 2020.

 ----------------------------------------------------------------------
 # freq B3LYP/6-31G* scf=qc volume NMR pop=NPA density=current Geom=All
 Check Guess=Read
 ----------------------------------------------------------------------

 Structure from the checkpoint file:  "phosphine_11_conf152.chk"
 -------------------
 Title Card Required
 -------------------
 Charge =  0 Multiplicity = 1

 SCF Done:  E(RB3LYP) =  -2415.08624036     a.u. after    1 cycles

      1  C    Isotropic =    67.5420   Anisotropy =   140.5831

      2  C    Isotropic =    60.1995   Anisotropy =   160.2642

      3  C    Isotropic =    58.7439   Anisotropy =   177.4405

      4  C    Isotropic =    61.8759   Anisotropy =   168.6326

      5  C    Isotropic =    67.5414   Anisotropy =   140.1074

      6  C    Isotropic =    51.5858   Anisotropy =   109.1733

      7  Cl   Isotropic =   720.9265   Anisotropy =   452.9297

      8  P    Isotropic =   364.7603   Anisotropy =    37.3723

      9  C    Isotropic =    58.7649   Anisotropy =   177.4087

     10  C    Isotropic =    61.8852   Anisotropy =   168.6357

     11  C    Isotropic =    67.5357   Anisotropy =   140.1249

     12  C    Isotropic =    51.5996   Anisotropy =   109.1425

     13  C    Isotropic =    67.5501   Anisotropy =   140.5670

     14  C    Isotropic =    60.2090   Anisotropy =   160.2979

     15  Cl   Isotropic =   720.9719   Anisotropy =   452.8742

     16  C    Isotropic =    58.7196   Anisotropy =   177.4847

     17  C    Isotropic =    60.2660   Anisotropy =   160.3319

     18  C    Isotropic =    67.5632   Anisotropy =   140.5496

     19  C    Isotropic =    51.6200   Anisotropy =   109.1115

     20  C    Isotropic =    67.5443   Anisotropy =   140.1114

     21  C    Isotropic =    61.9373   Anisotropy =   168.6148

     22  Cl   Isotropic =   720.9205   Anisotropy =   453.0918

     23  H    Isotropic =    25.0906   Anisotropy =     6.6348

     24  H    Isotropic =    24.7756   Anisotropy =     8.9657

     25  H    Isotropic =    25.5800   Anisotropy =    12.1044

     26  H    Isotropic =    25.2096   Anisotropy =     8.1389

     27  H    Isotropic =    25.5790   Anisotropy =    12.1193

     28  H    Isotropic =    25.2071   Anisotropy =     8.1426

     29  H    Isotropic =    25.0922   Anisotropy =     6.6311

     30  H    Isotropic =    24.7776   Anisotropy =     8.9704

     31  H    Isotropic =    24.7809   Anisotropy =     8.9788

     32  H    Isotropic =    25.0971   Anisotropy =     6.6255

     33  H    Isotropic =    25.2095   Anisotropy =     8.1431

     34  H    Isotropic =    25.5830   Anisotropy =    12.1337

  Exact polarizability: 280.728   0.103 280.494   0.053   0.102 185.101
 Approx polarizability: 393.646   0.245 393.248   0.120   0.237 343.130

                      1                      2                      3
                      A                      A                      A
 Frequencies --     20.2452                21.4248                29.0540
 Red. masses --      4.3318                 4.5192                10.4670
 Frc consts  --      0.0010                 0.0012                 0.0052
 IR Inten    --      0.2992                 0.2932                 0.1555

                      4                      5                      6
                      A                      A                      A
 Frequencies --     29.2969                37.6495                39.6028
 Red. masses --      9.4938                 5.1539                 6.7267
 Frc consts  --      0.0048                 0.0043                 0.0062
 IR Inten    --      0.1771                 0.1200                 0.1070

                      7                      8                      9
                      A                      A                      A
 Frequencies --    109.1642               117.5401               117.7062
 Red. masses --      8.8635                 8.8296                 8.8295
 Frc consts  --      0.0622                 0.0719                 0.0721
 IR Inten    --      0.0247                 0.3559                 0.3531

                     10                     11                     12
                      A                      A                      A
 Frequencies --    181.0781               187.3490               187.7668
 Red. masses --     10.0370                 8.7818                 8.7958
 Frc consts  --      0.1939                 0.1816                 0.1827
 IR Inten    --      0.3316                 0.5743                 0.5733

                     13                     14                     15
                      A                      A                      A
 Frequencies --    263.9595               293.5614               293.6768
 Red. masses --      8.9769                 8.3987                 8.4057
 Frc consts  --      0.3685                 0.4264                 0.4271
 IR Inten    --      0.2158                 0.9048                 0.8966

                     16                     17                     18
                      A                      A                      A
 Frequencies --    310.8317               328.6975               328.7248
 Red. masses --      6.0454                 5.9929                 5.9807
 Frc consts  --      0.3441                 0.3815                 0.3808
 IR Inten    --      0.0035                 1.9136                 1.8774

                     19                     20                     21
                      A                      A                      A
 Frequencies --    383.9483               384.1356               414.5553
 Red. masses --      8.0275                 8.0099                 3.0439
 Frc consts  --      0.6972                 0.6964                 0.3082
 IR Inten    --     20.9162                20.9657                 0.0655

                     22                     23                     24
                      A                      A                      A
 Frequencies --    414.6134               416.6277               426.9268
 Red. masses --      3.0444                 3.2051                 6.6273
 Frc consts  --      0.3083                 0.3278                 0.7117
 IR Inten    --      0.0515                 0.1599                 2.9426

                     25                     26                     27
                      A                      A                      A
 Frequencies --    499.4278               509.3121               509.3712
 Red. masses --      5.5079                 3.6406                 3.6460
 Frc consts  --      0.8094                 0.5564                 0.5574
 IR Inten    --      6.8852                19.9700                19.9242

                     28                     29                     30
                      A                      A                      A
 Frequencies --    531.5154               548.8094               548.8635
 Red. masses --      4.5768                 7.4431                 7.4424
 Frc consts  --      0.7618                 1.3208                 1.3210
 IR Inten    --      9.8517                 5.4357                 5.4260

                     31                     32                     33
                      A                      A                      A
 Frequencies --    644.3368               644.3686               645.2967
 Red. masses --      7.1598                 7.1600                 7.1684
 Frc consts  --      1.7514                 1.7516                 1.7587
 IR Inten    --      0.0372                 0.0375                 0.0957

                     34                     35                     36
                      A                      A                      A
 Frequencies --    718.1459               718.1930               718.6292
 Red. masses --      4.5825                 4.5868                 4.6020
 Frc consts  --      1.3924                 1.3939                 1.4003
 IR Inten    --      1.6533                 1.6720                 0.3069

                     37                     38                     39
                      A                      A                      A
 Frequencies --    746.1531               751.6295               751.6485
 Red. masses --      7.2623                 7.2729                 7.2730
 Frc consts  --      2.3822                 2.4208                 2.4210
 IR Inten    --     14.5947                54.2894                54.4373

                     40                     41                     42
                      A                      A                      A
 Frequencies --    833.6337               834.0663               834.1836
 Red. masses --      1.4170                 1.4325                 1.4323
 Frc consts  --      0.5802                 0.5871                 0.5872
 IR Inten    --     23.2701                32.9914                32.8023

                     43                     44                     45
                      A                      A                      A
 Frequencies --    845.7390               845.8532               848.8363
 Red. masses --      1.2467                 1.2467                 1.2500
 Frc consts  --      0.5254                 0.5255                 0.5306
 IR Inten    --      0.6130                 0.6505                 0.2776

                     46                     47                     48
                      A                      A                      A
 Frequencies --    969.4512               969.5517               969.9350
 Red. masses --      1.2759                 1.2760                 1.2872
 Frc consts  --      0.7065                 0.7067                 0.7135
 IR Inten    --      0.1577                 0.1541                 0.2282

                     49                     50                     51
                      A                      A                      A
 Frequencies --    973.1646               973.3173               976.4209
 Red. masses --      1.3468                 1.3459                 1.3235
 Frc consts  --      0.7515                 0.7512                 0.7434
 IR Inten    --      0.0118                 0.0115                 0.4233

                     52                     53                     54
                      A                      A                      A
 Frequencies --   1027.9469              1027.9887              1029.6130
 Red. masses --      4.7539                 4.7631                 4.7001
 Frc consts  --      2.9597                 2.9656                 2.9357
 IR Inten    --     62.6652                62.7239                 5.1150

                     55                     56                     57
                      A                      A                      A
 Frequencies --   1097.7700              1097.8106              1101.5731
 Red. masses --      7.9046                 7.9260                 8.0649
 Frc consts  --      5.6125                 5.6281                 5.7660
 IR Inten    --     81.2723                81.3875                13.7474

                     58                     59                     60
                      A                      A                      A
 Frequencies --   1118.1475              1118.3205              1121.3581
 Red. masses --      2.1232                 2.1210                 2.1028
 Frc consts  --      1.5640                 1.5629                 1.5579
 IR Inten    --     32.9848                32.6634                 6.3911

                     61                     62                     63
                      A                      A                      A
 Frequencies --   1139.2154              1139.3634              1139.5596
 Red. masses --      1.4008                 1.4013                 1.4022
 Frc consts  --      1.0711                 1.0718                 1.0728
 IR Inten    --      0.2914                 0.1636                 3.6136

                     64                     65                     66
                      A                      A                      A
 Frequencies --   1218.9783              1219.3021              1220.9444
 Red. masses --      1.1568                 1.1572                 1.1518
 Frc consts  --      1.0128                 1.0137                 1.0116
 IR Inten    --      4.8170                 4.8194                 0.9161

                     67                     68                     69
                      A                      A                      A
 Frequencies --   1318.2553              1322.1639              1322.2909
 Red. masses --      6.9176                 7.4817                 7.6699
 Frc consts  --      7.0828                 7.7059                 7.9013
 IR Inten    --      1.3169                 2.6626                 2.6770

                     70                     71                     72
                      A                      A                      A
 Frequencies --   1337.1042              1337.3754              1337.7392
 Red. masses --      1.3387                 1.3323                 1.3509
 Frc consts  --      1.4101                 1.4039                 1.4243
 IR Inten    --      0.3758                 0.3690                 1.5201

                     73                     74                     75
                      A                      A                      A
 Frequencies --   1429.5122              1429.8613              1430.0097
 Red. masses --      2.6351                 2.6442                 2.6424
 Frc consts  --      3.1727                 3.1852                 3.1836
 IR Inten    --     19.2739                 6.3663                 6.2403

                     76                     77                     78
                      A                      A                      A
 Frequencies --   1527.0028              1527.1133              1527.1213
 Red. masses --      2.0792                 2.0854                 2.0850
 Frc consts  --      2.8565                 2.8653                 2.8649
 IR Inten    --     60.9921                39.3193                41.6859

                     79                     80                     81
                      A                      A                      A
 Frequencies --   1610.9980              1611.2408              1611.2572
 Red. masses --      6.6398                 6.6620                 6.6640
 Frc consts  --     10.1530                10.1901                10.1933
 IR Inten    --      3.8414                 3.7870                 3.8740

                     82                     83                     84
                      A                      A                      A
 Frequencies --   1633.3779              1633.4119              1634.4505
 Red. masses --      5.4321                 5.4284                 5.4940
 Frc consts  --      8.5388                 8.5333                 8.6473
 IR Inten    --     29.8095                29.6798                13.1298

                     85                     86                     87
                      A                      A                      A
 Frequencies --   3187.9763              3188.0658              3188.1286
 Red. masses --      1.0892                 1.0892                 1.0892
 Frc consts  --      6.5224                 6.5225                 6.5227
 IR Inten    --      5.6507                 4.0332                 3.0073

                     88                     89                     90
                      A                      A                      A
 Frequencies --   3205.8047              3205.8436              3206.4152
 Red. masses --      1.0878                 1.0878                 1.0879
 Frc consts  --      6.5869                 6.5870                 6.5898
 IR Inten    --      0.8673                 0.8666                 0.6428

                     91                     92                     93
                      A                      A                      A
 Frequencies --   3222.5698              3222.6232              3222.7375
 Red. masses --      1.0937                 1.0937                 1.0937
 Frc consts  --      6.6922                 6.6923                 6.6924
 IR Inten    --      2.6450                 2.2900                 9.7244

                     94                     95                     96
                      A                      A                      A
 Frequencies --   3223.6270              3223.6616              3223.9016
 Red. masses --      1.0939                 1.0939                 1.0941
 Frc consts  --      6.6978                 6.6980                 6.7002
 IR Inten    --      5.6273                 5.6502                 0.0527

 - Thermochemistry -
 -------------------
 Temperature   298.150 Kelvin.  Pressure   1.00000 Atm.
 Atom     1 has atomic number  6 and mass  12.00000

 Molecular mass:   363.97422 amu.
 Principal axes and moments of inertia in atomic units:
                           1         2         3
     Eigenvalues --  ******************************
           X            0.99978   0.02113   0.00001
           Y           -0.02113   0.99978   0.00002
           Z           -0.00001  -0.00002   1.00000
 This molecule is an asymmetric top.
 Rotational symmetry number  1.
 Warning -- assumption of classical behavior for rotation
           may cause significant error
 Rotational temperatures (Kelvin)      0.00723     0.00723     0.00405
 Rotational constants (GHZ):           0.15068     0.15056     0.08440
 Zero-point vibrational energy     643695.7 (Joules/Mol)
                                  153.84697 (Kcal/Mol)
 Warning -- explicit consideration of  30 degrees of freedom as
           vibrations may cause significant error
 Vibrational temperatures:     29.13    30.83    41.80    42.15    54.17
          (Kelvin)             56.98   157.06   169.11   169.35   260.53
                              269.55   270.15   379.78   422.37   422.54
                              447.22   472.92   472.96   552.42   552.69
                              596.45   596.54   599.43   614.25   718.57
                              732.79   732.87   764.73   789.61   789.69
                              927.06   927.10   928.44  1033.25  1033.32
                             1033.95  1073.55  1081.43  1081.45  1199.41
                             1200.04  1200.20  1216.83  1216.99  1221.29
                             1394.82  1394.97  1395.52  1400.17  1400.39
                             1404.85  1478.99  1479.05  1481.38  1579.45
                             1579.50  1584.92  1608.76  1609.01  1613.38
                             1639.08  1639.29  1639.57  1753.84  1754.30
                             1756.67  1896.68  1902.30  1902.48  1923.79
                             1924.18  1924.71  2056.75  2057.25  2057.46
                             2197.02  2197.18  2197.19  2317.87  2318.22
                             2318.24  2350.07  2350.12  2351.61  4586.79
                             4586.92  4587.01  4612.44  4612.49  4613.32
                             4636.56  4636.64  4636.80  4638.08  4638.13
                             4638.48

 Zero-point correction=                           0.245171 (Hartree/Particle)
 Thermal correction to Energy=                    0.264834
 Thermal correction to Enthalpy=                  0.265779
 Thermal correction to Gibbs Free Energy=         0.192073
 Sum of electronic and zero-point Energies=          -2414.841070
 Sum of electronic and thermal Energies=             -2414.821406
 Sum of electronic and thermal Enthalpies=           -2414.820462
 Sum of electronic and thermal Free Energies=        -2414.894167

                     E (Thermal)             CV                S
                      KCal/Mol        Cal/Mol-Kelvin    Cal/Mol-Kelvin
 Total                  166.186             74.129            155.126
 Electronic               0.000              0.000              0.000
 Translational            0.889              2.981             43.569
 Rotational               0.889              2.981             36.372
 Vibrational            164.409             68.167             75.186
 Vibration     1          0.593              1.986              6.610
 Vibration     2          0.593              1.985              6.498
 Vibration     3          0.593              1.984              5.893
 Vibration     4          0.593              1.984              5.876
 Vibration     5          0.594              1.982              5.379
 Vibration     6          0.594              1.981              5.279
 Vibration     7          0.606              1.942              3.284
 Vibration     8          0.608              1.935              3.140
 Vibration     9          0.608              1.935              3.138
 Vibration    10          0.630              1.865              2.317
 Vibration    11          0.632              1.857              2.254
 Vibration    12          0.632              1.857              2.250
 Vibration    13          0.671              1.739              1.635
 Vibration    14          0.688              1.686              1.453
 Vibration    15          0.688              1.686              1.453
 Vibration    16          0.700              1.653              1.358
 Vibration    17          0.712              1.618              1.266
 Vibration    18          0.712              1.618              1.266
 Vibration    19          0.753              1.504              1.024
 Vibration    20          0.753              1.504              1.023
 Vibration    21          0.778              1.439              0.911
 Vibration    22          0.778              1.439              0.910
 Vibration    23          0.780              1.434              0.904
 Vibration    24          0.789              1.412              0.869
 Vibration    25          0.855              1.251              0.660
 Vibration    26          0.864              1.229              0.635
 Vibration    27          0.865              1.229              0.635
 Vibration    28          0.886              1.180              0.584
 Vibration    29          0.904              1.142              0.547
 Vibration    30          0.904              1.142              0.547

                           ! Non-Optimized Parameters !
 Normal termination of Gaussian 16 at Sun Aug 23 04:20:49 2020.
 Gaussian 16:  ES64L-G16RevA.03 25-Dec-2016

 ----------------------------------------------------------------------
 # TD(NStates=10, Root=1) B3LYP/6-31G* scf=qc volume pop=NPA density=cu
 rrent Geom=AllCheck Guess=Read
 ----------------------------------------------------------------------

 Structure from the checkpoint file:  "phosphine_11_conf153.chk"
 -------------------
 Title Card Required
 -------------------
 Charge =  0 Multiplicity = 1

                         Standard orientation:
 ---------------------------------------------------------------------
 Center     Atomic      Atomic             Coordinates (Angstroms)
 Number     Number       Type             X           Y           Z
 ---------------------------------------------------------------------
      1          6           0        1.786871    3.636089    0.854522
      2          6           0        1.042436    2.578620    1.374091
      3          6           0        1.015526    1.323993    0.742487
      4          6           0        1.779188    1.149453   -0.421322
      5          6           0        2.539386    2.194633   -0.948115
      6          6           0        2.532625    3.431879   -0.306201
      7         17           0        3.486420    4.753129   -0.964432
      8         15           0       -0.000740    0.000241    1.547555
      9          6           0       -1.655328    0.217830    0.742403
     10          6           0       -1.887017    0.969035   -0.419524
     11          6           0       -3.172465    1.104260   -0.946022
     12          6           0       -4.239695    0.476609   -0.305784
     13          6           0       -4.042651   -0.273936    0.853098
     14          6           0       -2.754529   -0.389260    1.372482
     15         17           0       -5.861036    0.641205   -0.963717
     16          6           0        0.638333   -1.541610    0.742862
     17          6           0        1.717360   -2.186756    1.370032
     18          6           0        2.262111   -3.359623    0.850514
     19          6           0        1.707529   -3.908608   -0.305453
     20          6           0        0.626678   -3.301542   -0.942622
     21          6           0        0.100531   -2.120922   -0.416102
     22         17           0        2.376480   -5.394597   -0.963538
     23          1           0        1.798796    4.602476    1.347356
     24          1           0        0.477096    2.733301    2.289956
     25          1           0        1.789532    0.188029   -0.925542
     26          1           0        3.129643    2.051319   -1.847210
     27          1           0       -1.060325    1.461194   -0.922553
     28          1           0       -3.344266    1.689123   -1.843649
     29          1           0       -4.884863   -0.749260    1.344699
     30          1           0       -2.605064   -0.958199    2.286987
     31          1           0        2.137941   -1.770507    2.282288
     32          1           0        3.097752   -3.848748    1.339793
     33          1           0        0.203687   -3.745064   -1.837992
     34          1           0       -0.741831   -1.653648   -0.916849
 ---------------------------------------------------------------------

 SCF Done:  E(RB3LYP) =  -2415.08624036     a.u. after    1 cycles

 Excitation energies and oscillator strengths:

 Excited State   1:      Singlet-A      4.4045 eV  281.50 nm  f=0.1827  <S**2>=0.000
      93 -> 94         0.69579
 This state for optimization and/or second-order correction.
 Total Energy, E(TD-HF/TD-DFT) =  -2414.92437923
 Copying the excited state density for this state as the 1-particle RhoCI density.

 Excited State   2:      Singlet-A      4.4074 eV  281.31 nm  f=0.1844  <S**2>=0.000
      93 -> 95         0.69576

 Excited State   3:      Singlet-A      4.6113 eV  268.87 nm  f=0.0036  <S**2>=0.000
      89 -> 94        -0.10978
      90 -> 95         0.11040
      93 -> 96         0.67975

 Excited State   4:      Singlet-A      4.9168 eV  252.16 nm  f=0.0001  <S**2>=0.000
      88 -> 94         0.11802
      89 -> 95        -0.10485
      89 -> 97        -0.10009
      90 -> 94         0.10438
      93 -> 98         0.64552

 Excited State   5:      Singlet-A      4.9181 eV  252.10 nm  f=0.0001  <S**2>=0.000
      88 -> 95         0.11788
      89 -> 94        -0.10545
      90 -> 95        -0.10586
      90 -> 97         0.10115
      93 -> 99         0.64475

 Excited State   6:      Singlet-A      5.0217 eV  246.90 nm  f=0.0090  <S**2>=0.000
      91 -> 94         0.11857
      92 -> 95         0.11911
      93 -> 97         0.66871

 Excited State   7:      Singlet-A      5.2598 eV  235.72 nm  f=0.0018  <S**2>=0.000
      89 -> 94         0.13362
      90 -> 95        -0.12956
      91 -> 94         0.23281
      91 -> 95        -0.37564
      91 -> 98         0.12616
      92 -> 94         0.38226
      92 -> 95         0.23146
      92 -> 99         0.12309
      93 -> 96         0.10377

 Excited State   8:      Singlet-A      5.3609 eV  231.27 nm  f=0.0050  <S**2>=0.000
      88 -> 94        -0.19254
      89 -> 95         0.19007
      89 -> 97         0.11226
      90 -> 94        -0.19041
      91 -> 94         0.11292
      91 -> 96         0.38259
      91 -> 98         0.11417
      91 -> 99         0.10050
      92 -> 95        -0.11548
      92 -> 96        -0.22148
      92 -> 98         0.10240
      92 -> 99        -0.11436
      93 -> 98         0.22734

 Excited State   9:      Singlet-A      5.3622 eV  231.22 nm  f=0.0048  <S**2>=0.000
      88 -> 95        -0.18997
      89 -> 94         0.19048
      90 -> 95         0.18897
      90 -> 97        -0.11228
      91 -> 95        -0.10497
      91 -> 96         0.21927
      91 -> 98         0.10191
      91 -> 99        -0.11164
      92 -> 94        -0.11496
      92 -> 96         0.38601
      92 -> 98        -0.11440
      92 -> 99        -0.10127
      93 -> 99         0.22858

 Excited State  10:      Singlet-A      5.4210 eV  228.71 nm  f=0.1608  <S**2>=0.000
      91 -> 94        -0.20086
      91 -> 95         0.41912
      92 -> 94         0.42109
      92 -> 95         0.19554
      92 -> 96         0.13502

 The electronic state is 1-A.
 Alpha  occ. eigenvalues -- -101.55494-101.55493-101.55489 -77.10095 -10.26331
 Alpha  occ. eigenvalues --  -10.26329 -10.26324 -10.21419 -10.21418 -10.21416
 Alpha  occ. eigenvalues --  -10.21368 -10.21368 -10.21365 -10.21348 -10.21346
 Alpha  occ. eigenvalues --  -10.21343 -10.21314 -10.21313 -10.21310 -10.21250
 Alpha  occ. eigenvalues --  -10.21249 -10.21244  -9.47126  -9.47125  -9.47121
 Alpha  occ. eigenvalues --   -7.23521  -7.23520  -7.23516  -7.22556  -7.22555
 Alpha  occ. eigenvalues --   -7.22552  -7.22519  -7.22518  -7.22514  -6.56809
 Alpha  occ. eigenvalues --   -4.73070  -4.73070  -4.72565  -0.89964  -0.89792
 Alpha  occ. eigenvalues --   -0.89789  -0.85154  -0.84238  -0.84235  -0.76898
 Alpha  occ. eigenvalues --   -0.76781  -0.76779  -0.76742  -0.73907  -0.73905
 Alpha  occ. eigenvalues --   -0.65058  -0.63149  -0.62987  -0.62986  -0.60497
 Alpha  occ. eigenvalues --   -0.60496  -0.57615  -0.52432  -0.52430  -0.49746
 Alpha  occ. eigenvalues --   -0.48087  -0.47999  -0.47998  -0.47167  -0.47167
 Alpha  occ. eigenvalues --   -0.46321  -0.44340  -0.44246  -0.44245  -0.42726
 Alpha  occ. eigenvalues --   -0.42723  -0.40320  -0.40239  -0.40236  -0.39580
 Alpha  occ. eigenvalues --   -0.37220  -0.37218  -0.37129  -0.35190  -0.35185
 Alpha  occ. eigenvalues --   -0.34135  -0.33462  -0.33458  -0.31868  -0.31863
 Alpha  occ. eigenvalues --   -0.31860  -0.27685  -0.27415  -0.27144  -0.27140
 Alpha  occ. eigenvalues --   -0.25832  -0.25825  -0.22676
 Alpha virt. eigenvalues --   -0.03960  -0.03952  -0.03034  -0.01965  -0.01789
 Alpha virt. eigenvalues --   -0.01782   0.02241   0.02244   0.02402   0.05586
 Alpha virt. eigenvalues --    0.05598   0.10344   0.12156   0.12344   0.12346

 Mulliken charges:
               1
     1  C   -0.126173
     2  C   -0.160734
     3  C   -0.117022
     4  C   -0.174618
     5  C   -0.114653
     6  C   -0.096899
     7  Cl  -0.038631
     8  P    0.446566
     9  C   -0.120782
    10  C   -0.159713
    11  C   -0.122133
    12  C   -0.090489
    13  C   -0.116844
    14  C   -0.173971
    15  Cl  -0.026908
    16  C   -0.078059
    17  C   -0.154475
    18  C   -0.116642
    19  C   -0.063602
    20  C   -0.115480
    21  C   -0.149914
    22  Cl   0.016279
    23  H    0.147406
    24  H    0.135044
    25  H    0.132335
    26  H    0.149418
    27  H    0.160612
    28  H    0.155498
    29  H    0.150938
    30  H    0.134883
    31  H    0.162878
    32  H    0.170808
    33  H    0.174139
    34  H    0.180938
 Sum of Mulliken charges =  -0.00000

 Dipole moment (field-independent basis, Debye):
    X=              0.8428    Y=             -4.1261    Z=              1.9741  Tot=              4.6510
 Quadrupole moment (field-independent basis, Debye-Ang):
   XX=           -172.2269   YY=           -162.8717   ZZ=           -145.0488
   XY=             -7.6675   XZ=              0.5663   YZ=              0.8903

 Summary of Natural Population Analysis:

                                       Natural Population
                Natural  -----------------------------------------------
    Atom  No    Charge         Core      Valence    Rydberg      Total
 -----------------------------------------------------------------------
      C    1   -0.26511      1.99894     4.24953    0.01664     6.26511
      C    2   -0.20443      1.99901     4.18960    0.01581     6.20443
      C    3   -0.46040      1.99887     4.43711    0.02443     6.46040
      C    4   -0.25338      1.99899     4.23676    0.01763     6.25338
      C    5   -0.23743      1.99893     4.22290    0.01559     6.23743
      C    6   -0.08386      1.99854     4.06311    0.02220     6.08386
     Cl    7   -0.01286      9.99967     6.99282    0.02037    17.01286
      P    8    1.21203      9.99758     3.74054    0.04984    13.78797
      C    9   -0.46008      1.99888     4.43500    0.02620     6.46008
      C   10   -0.21732      1.99899     4.20127    0.01706     6.21732
      C   11   -0.25071      1.99893     4.23580    0.01598     6.25071
      C   12   -0.07045      1.99854     4.04964    0.02227     6.07045
      C   13   -0.24792      1.99894     4.23320    0.01578     6.24792
      C   14   -0.22356      1.99902     4.20850    0.01604     6.22356
     Cl   15   -0.00377      9.99967     6.98389    0.02021    17.00377
      C   16   -0.37463      1.99890     4.35114    0.02458     6.37463
      C   17   -0.18856      1.99902     4.17448    0.01506     6.18856
      C   18   -0.24735      1.99893     4.23296    0.01546     6.24735
      C   19   -0.01535      1.99855     3.99454    0.02226     6.01535
      C   20   -0.23890      1.99892     4.22479    0.01519     6.23890
      C   21   -0.19840      1.99900     4.18337    0.01603     6.19840
     Cl   22    0.02853      9.99967     6.95253    0.01928    16.97147
      H   23    0.25101      0.00000     0.74796    0.00103     0.74899
      H   24    0.23682      0.00000     0.76212    0.00106     0.76318
      H   25    0.23770      0.00000     0.76093    0.00137     0.76230
      H   26    0.25186      0.00000     0.74709    0.00105     0.74814
      H   27    0.25315      0.00000     0.74536    0.00149     0.74685
      H   28    0.25498      0.00000     0.74397    0.00106     0.74502
      H   29    0.25190      0.00000     0.74701    0.00109     0.74810
      H   30    0.23543      0.00000     0.76363    0.00094     0.76457
      H   31    0.25099      0.00000     0.74782    0.00119     0.74901
      H   32    0.26159      0.00000     0.73736    0.00105     0.73841
      H   33    0.26352      0.00000     0.73543    0.00105     0.73648
      H   34    0.26495      0.00000     0.73388    0.00118     0.73505
 =======================================================================
   * Total *    0.00000     75.97648   109.56605    0.45747   186.00000

 Normal termination of Gaussian 16 at Sun Aug 23 04:38:34 2020.
