 Gaussian 16, Revision A.03,

 ---------------------------------
 # opt=CalcAll B3LYP/6-31G* scf=qc
 ---------------------------------

 -------------------
 Title Card Required
 -------------------
 Symbolic Z-matrix:
 Charge =  0 Multiplicity = 1

 SCF Done:  E(RB3LYP) =  -814.812737586     a.u. after    7 cycles
 SCF Done:  E(RB3LYP) =  -814.833857083     a.u. after   15 cycles
 SCF Done:  E(RB3LYP) =  -814.831689950     a.u. after   15 cycles
 SCF Done:  E(RB3LYP) =  -814.884840753     a.u. after   11 cycles
 SCF Done:  E(RB3LYP) =  -814.896954600     a.u. after   15 cycles
 SCF Done:  E(RB3LYP) =  -814.906251655     a.u. after   13 cycles
 SCF Done:  E(RB3LYP) =  -814.908616228     a.u. after   11 cycles
 SCF Done:  E(RB3LYP) =  -814.909291234     a.u. after   13 cycles
 SCF Done:  E(RB3LYP) =  -814.909392941     a.u. after    9 cycles
 SCF Done:  E(RB3LYP) =  -814.909457571     a.u. after    9 cycles
 SCF Done:  E(RB3LYP) =  -814.909469467     a.u. after    6 cycles
 SCF Done:  E(RB3LYP) =  -814.909473542     a.u. after    4 cycles
 SCF Done:  E(RB3LYP) =  -814.909475255     a.u. after    4 cycles
 SCF Done:  E(RB3LYP) =  -814.909475301     a.u. after    2 cycles
 SCF Done:  E(RB3LYP) =  -814.909475337     a.u. after    2 cycles
 Optimization completed on the basis of negligible forces.
    -- Stationary point found.
 Normal termination of Gaussian 16 at Sun Aug 23 09:41:56 2020.

 ----------------------------------------------------------------------
 # freq B3LYP/6-31G* scf=qc volume NMR pop=NPA density=current Geom=All
 Check Guess=Read
 ----------------------------------------------------------------------

 Structure from the checkpoint file:  "phosphine_2_conf222.chk"
 -------------------
 Title Card Required
 -------------------
 Charge =  0 Multiplicity = 1

 SCF Done:  E(RB3LYP) =  -814.909475337     a.u. after    1 cycles

      1  C    Isotropic =   175.9720   Anisotropy =    18.6315

      2  C    Isotropic =   164.3282   Anisotropy =    16.9141

      3  C    Isotropic =   165.4232   Anisotropy =    17.5206

      4  C    Isotropic =   161.4337   Anisotropy =    20.1866

      5  H    Isotropic =    30.3663   Anisotropy =     5.7656

      6  H    Isotropic =    31.0923   Anisotropy =     7.1446

      7  P    Isotropic =   394.1767   Anisotropy =    22.8174

      8  C    Isotropic =   160.5643   Anisotropy =    11.8913

      9  H    Isotropic =    31.1573   Anisotropy =     6.2412

     10  H    Isotropic =    30.3857   Anisotropy =     5.6181

     11  C    Isotropic =   160.2108   Anisotropy =    24.7414

     12  C    Isotropic =   164.7251   Anisotropy =    17.6603

     13  C    Isotropic =   173.7022   Anisotropy =    24.6008

     14  C    Isotropic =   164.1599   Anisotropy =    29.5680

     15  H    Isotropic =    31.0221   Anisotropy =     7.3935

     16  H    Isotropic =    30.3660   Anisotropy =     4.6098

     17  C    Isotropic =   156.5411   Anisotropy =    23.3343

     18  C    Isotropic =   163.9220   Anisotropy =    18.0559

     19  C    Isotropic =   173.2942   Anisotropy =    25.6976

     20  H    Isotropic =    31.1644   Anisotropy =    10.5217

     21  H    Isotropic =    31.4947   Anisotropy =     7.5257

     22  H    Isotropic =    30.9712   Anisotropy =     5.8472

     23  H    Isotropic =    30.4792   Anisotropy =     9.2115

     24  H    Isotropic =    30.8527   Anisotropy =     7.4005

     25  H    Isotropic =    30.7009   Anisotropy =     4.6306

     26  H    Isotropic =    30.6397   Anisotropy =     6.9626

     27  H    Isotropic =    30.9134   Anisotropy =     4.0591

     28  H    Isotropic =    30.5551   Anisotropy =     7.8788

     29  H    Isotropic =    30.9744   Anisotropy =     6.5259

     30  H    Isotropic =    30.0857   Anisotropy =     6.0736

     31  H    Isotropic =    31.3028   Anisotropy =     8.5546

     32  H    Isotropic =    31.0801   Anisotropy =    10.1768

     33  H    Isotropic =    31.3377   Anisotropy =     7.7289

     34  H    Isotropic =    30.4827   Anisotropy =     7.8250

     35  H    Isotropic =    30.4655   Anisotropy =     5.6354

     36  H    Isotropic =    30.4997   Anisotropy =     6.4723

     37  H    Isotropic =    30.9002   Anisotropy =     5.5944

     38  H    Isotropic =    31.2567   Anisotropy =     8.2760

     39  H    Isotropic =    31.0712   Anisotropy =     9.8532

     40  H    Isotropic =    31.3151   Anisotropy =     8.6479

  Exact polarizability: 178.872   0.279 155.858  -2.010   2.058 126.514
 Approx polarizability: 213.638   0.759 211.203  -2.257   6.028 199.105

                      1                      2                      3
                      A                      A                      A
 Frequencies --     18.7738                27.1506                36.7447
 Red. masses --      2.6254                 3.2659                 2.8835
 Frc consts  --      0.0005                 0.0014                 0.0023
 IR Inten    --      0.0350                 0.0043                 0.0315

                      4                      5                      6
                      A                      A                      A
 Frequencies --     53.2827                68.9200                84.3571
 Red. masses --      3.1380                 1.7741                 1.6782
 Frc consts  --      0.0052                 0.0050                 0.0070
 IR Inten    --      0.0643                 0.0263                 0.0035

                      7                      8                      9
                      A                      A                      A
 Frequencies --    100.3543               101.7015               123.3393
 Red. masses --      2.7147                 2.4848                 2.0370
 Frc consts  --      0.0161                 0.0151                 0.0183
 IR Inten    --      0.3090                 0.0471                 0.0065

                     10                     11                     12
                      A                      A                      A
 Frequencies --    141.6156               163.9907               207.6163
 Red. masses --      2.7122                 3.2352                 1.6337
 Frc consts  --      0.0320                 0.0513                 0.0415
 IR Inten    --      0.0800                 0.0644                 0.0106

                     13                     14                     15
                      A                      A                      A
 Frequencies --    212.6313               228.8584               246.2728
 Red. masses --      2.4472                 1.9500                 1.1345
 Frc consts  --      0.0652                 0.0602                 0.0405
 IR Inten    --      0.1019                 0.1589                 0.0241

                     16                     17                     18
                      A                      A                      A
 Frequencies --    251.6303               271.4107               278.6412
 Red. masses --      1.2292                 1.9361                 1.8114
 Frc consts  --      0.0459                 0.0840                 0.0829
 IR Inten    --      0.0282                 0.1070                 0.0328

                     19                     20                     21
                      A                      A                      A
 Frequencies --    294.5190               301.9744               350.1712
 Red. masses --      2.1274                 2.4468                 3.2190
 Frc consts  --      0.1087                 0.1315                 0.2326
 IR Inten    --      0.1544                 0.2397                 0.0871

                     22                     23                     24
                      A                      A                      A
 Frequencies --    431.5726               475.6559               489.0863
 Red. masses --      2.5667                 2.6594                 2.8574
 Frc consts  --      0.2817                 0.3545                 0.4027
 IR Inten    --      1.8871                 0.3468                 1.0665

                     25                     26                     27
                      A                      A                      A
 Frequencies --    617.0920               644.5288               694.2847
 Red. masses --      3.1947                 2.9995                 2.2759
 Frc consts  --      0.7168                 0.7341                 0.6464
 IR Inten    --      1.8959                 6.8549                 5.4699

                     28                     29                     30
                      A                      A                      A
 Frequencies --    721.5677               748.2511               757.7244
 Red. masses --      1.5330                 1.2109                 1.1720
 Frc consts  --      0.4703                 0.3995                 0.3965
 IR Inten    --      7.7106                11.3035                 0.4084

                     31                     32                     33
                      A                      A                      A
 Frequencies --    783.8934               797.1322               808.5265
 Red. masses --      1.3628                 1.4526                 1.8233
 Frc consts  --      0.4934                 0.5438                 0.7023
 IR Inten    --      2.6842                 4.0105                 5.9807

                     34                     35                     36
                      A                      A                      A
 Frequencies --    874.7477               888.8131               889.5460
 Red. masses --      2.2329                 1.5030                 1.4417
 Frc consts  --      1.0067                 0.6996                 0.6721
 IR Inten    --      0.2480                 1.3624                 1.2498

                     37                     38                     39
                      A                      A                      A
 Frequencies --    904.2715               916.8644               934.3304
 Red. masses --      1.3885                 1.5299                 1.3815
 Frc consts  --      0.6689                 0.7577                 0.7106
 IR Inten    --      5.0987                 6.2389                10.1179

                     40                     41                     42
                      A                      A                      A
 Frequencies --    985.1619              1012.1933              1013.9006
 Red. masses --      2.0553                 2.7031                 2.8227
 Frc consts  --      1.1753                 1.6317                 1.7097
 IR Inten    --      5.7537                 1.2260                 2.2975

                     43                     44                     45
                      A                      A                      A
 Frequencies --   1064.6696              1064.8470              1069.6642
 Red. masses --      1.3912                 1.4134                 2.0459
 Frc consts  --      0.9291                 0.9443                 1.3792
 IR Inten    --      1.6755                 1.9542                 1.8295

                     46                     47                     48
                      A                      A                      A
 Frequencies --   1073.9771              1078.0919              1096.8338
 Red. masses --      1.7509                 1.9546                 1.4850
 Frc consts  --      1.1899                 1.3385                 1.0526
 IR Inten    --      1.6039                 0.7527                 1.4788

                     49                     50                     51
                      A                      A                      A
 Frequencies --   1113.5132              1118.2322              1122.5039
 Red. masses --      1.5677                 1.7906                 1.7694
 Frc consts  --      1.1452                 1.3192                 1.3136
 IR Inten    --      4.3717                 0.4426                 2.7387

                     52                     53                     54
                      A                      A                      A
 Frequencies --   1227.3885              1230.4897              1234.5871
 Red. masses --      1.4712                 1.4402                 1.4275
 Frc consts  --      1.3058                 1.2848                 1.2819
 IR Inten    --      2.2653                 7.0756                 3.8844

                     55                     56                     57
                      A                      A                      A
 Frequencies --   1257.3506              1266.6055              1269.0553
 Red. masses --      1.4415                 1.3959                 1.3533
 Frc consts  --      1.3427                 1.3194                 1.2842
 IR Inten    --      1.1577                 1.2822                 1.0226

                     58                     59                     60
                      A                      A                      A
 Frequencies --   1315.5466              1318.1214              1322.9491
 Red. masses --      1.2704                 1.2193                 1.2370
 Frc consts  --      1.2954                 1.2482                 1.2755
 IR Inten    --      5.0080                 1.5369                 0.7261

                     61                     62                     63
                      A                      A                      A
 Frequencies --   1341.8364              1345.0129              1345.8041
 Red. masses --      1.1510                 1.2727                 1.2393
 Frc consts  --      1.2211                 1.3566                 1.3225
 IR Inten    --      5.7308                 9.1622                 3.2816

                     64                     65                     66
                      A                      A                      A
 Frequencies --   1350.2118              1354.9006              1391.6704
 Red. masses --      1.1306                 1.1279                 1.3939
 Frc consts  --      1.2144                 1.2200                 1.5906
 IR Inten    --      2.7723                 0.5425                 1.1539

                     67                     68                     69
                      A                      A                      A
 Frequencies --   1398.3822              1417.6855              1420.5377
 Red. masses --      1.3271                 1.5358                 1.5329
 Frc consts  --      1.5290                 1.8186                 1.8225
 IR Inten    --      9.7258                 3.8874                 0.5037

                     70                     71                     72
                      A                      A                      A
 Frequencies --   1440.3882              1440.8015              1442.5678
 Red. masses --      1.2384                 1.2413                 1.2587
 Frc consts  --      1.5138                 1.5182                 1.5433
 IR Inten    --      0.8128                 1.0801                 4.9076

                     73                     74                     75
                      A                      A                      A
 Frequencies --   1484.5886              1490.2635              1493.5215
 Red. masses --      1.0844                 1.0870                 1.0864
 Frc consts  --      1.4081                 1.4224                 1.4277
 IR Inten    --      3.6318                 1.4891                 6.9489

                     76                     77                     78
                      A                      A                      A
 Frequencies --   1513.5098              1516.8268              1518.8120
 Red. masses --      1.0745                 1.0707                 1.0689
 Frc consts  --      1.4502                 1.4515                 1.4528
 IR Inten    --      0.5039                 1.3243                 0.6217

                     79                     80                     81
                      A                      A                      A
 Frequencies --   1519.8590              1523.3170              1526.3863
 Red. masses --      1.0809                 1.0686                 1.0638
 Frc consts  --      1.4711                 1.4611                 1.4603
 IR Inten    --      3.3886                 1.5223                 1.2072

                     82                     83                     84
                      A                      A                      A
 Frequencies --   1529.6871              1530.0842              1532.2672
 Red. masses --      1.0411                 1.0411                 1.0539
 Frc consts  --      1.4353                 1.4361                 1.4579
 IR Inten    --      5.6405                 5.7965                 5.6442

                     85                     86                     87
                      A                      A                      A
 Frequencies --   1537.9539              1538.9536              1541.3779
 Red. masses --      1.0638                 1.0733                 1.0841
 Frc consts  --      1.4826                 1.4977                 1.5176
 IR Inten    --      9.7560                 0.3248                 3.8264

                     88                     89                     90
                      A                      A                      A
 Frequencies --   3013.5690              3015.0904              3024.5271
 Red. masses --      1.0593                 1.0615                 1.0617
 Frc consts  --      5.6679                 5.6856                 5.7222
 IR Inten    --     21.1338                15.7657                65.5658

                     91                     92                     93
                      A                      A                      A
 Frequencies --   3025.2781              3026.3884              3027.9836
 Red. masses --      1.0650                 1.0657                 1.0686
 Frc consts  --      5.7427                 5.7509                 5.7724
 IR Inten    --     13.7151                 6.5992                34.3485

                     94                     95                     96
                      A                      A                      A
 Frequencies --   3028.3161              3033.2605              3037.9593
 Red. masses --      1.0648                 1.0627                 1.0636
 Frc consts  --      5.7534                 5.7608                 5.7837
 IR Inten    --      5.3512                 6.2060                32.6983

                     97                     98                     99
                      A                      A                      A
 Frequencies --   3039.5983              3041.3649              3043.5733
 Red. masses --      1.0366                 1.0373                 1.0388
 Frc consts  --      5.6426                 5.6534                 5.6693
 IR Inten    --     45.7151                39.6920                20.5325

                    100                    101                    102
                      A                      A                      A
 Frequencies --   3045.6166              3049.0076              3059.7641
 Red. masses --      1.0902                 1.0930                 1.0961
 Frc consts  --      5.9581                 5.9869                 6.0459
 IR Inten    --     34.3991                10.5667                30.5601

                    103                    104                    105
                      A                      A                      A
 Frequencies --   3067.0781              3070.9569              3074.2352
 Red. masses --      1.1028                 1.0987                 1.0990
 Frc consts  --      6.1120                 6.1050                 6.1196
 IR Inten    --     14.0335                27.8756                25.3196

                    106                    107                    108
                      A                      A                      A
 Frequencies --   3075.9995              3080.5559              3093.1494
 Red. masses --      1.1014                 1.1024                 1.0992
 Frc consts  --      6.1398                 6.1637                 6.1961
 IR Inten    --     29.4291                23.0973                49.2629

                    109                    110                    111
                      A                      A                      A
 Frequencies --   3105.0727              3106.5858              3107.1368
 Red. masses --      1.1028                 1.1025                 1.1015
 Frc consts  --      6.2643                 6.2692                 6.2657
 IR Inten    --     67.1933                28.1539                76.8311

                    112                    113                    114
                      A                      A                      A
 Frequencies --   3110.2233              3111.0025              3116.4838
 Red. masses --      1.1015                 1.1019                 1.1015
 Frc consts  --      6.2779                 6.2835                 6.3031
 IR Inten    --     41.9078                38.9789                50.9973

 - Thermochemistry -
 -------------------
 Temperature   298.150 Kelvin.  Pressure   1.00000 Atm.
 Atom     1 has atomic number  6 and mass  12.00000

 Molecular mass:   202.18504 amu.
 Principal axes and moments of inertia in atomic units:
                           1         2         3
     Eigenvalues --  2818.385425265.752137494.52561
           X            1.00000   0.00036  -0.00215
           Y           -0.00037   1.00000  -0.00071
           Z            0.00215   0.00071   1.00000
 This molecule is an asymmetric top.
 Rotational symmetry number  1.
 Warning -- assumption of classical behavior for rotation
           may cause significant error
 Rotational temperatures (Kelvin)      0.03073     0.01645     0.01156
 Rotational constants (GHZ):           0.64035     0.34273     0.24081
 Zero-point vibrational energy     976837.7 (Joules/Mol)
                                  233.46982 (Kcal/Mol)
 Warning -- explicit consideration of  25 degrees of freedom as
           vibrations may cause significant error
 Vibrational temperatures:     27.01    39.06    52.87    76.66    99.16
          (Kelvin)            121.37   144.39   146.33   177.46   203.75
                              235.95   298.71   305.93   329.28   354.33
                              362.04   390.50   400.90   423.75   434.47
                              503.82   620.94   684.36   703.69   887.86
                              927.33   998.92  1038.18  1076.57  1090.20
                             1127.85  1146.90  1163.29  1258.57  1278.80
                             1279.86  1301.05  1319.16  1344.29  1417.43
                             1456.32  1458.78  1531.82  1532.08  1539.01
                             1545.21  1551.13  1578.10  1602.10  1608.89
                             1615.03  1765.94  1770.40  1776.30  1809.05
                             1822.36  1825.89  1892.78  1896.48  1903.43
                             1930.60  1935.17  1936.31  1942.65  1949.40
                             2002.30  2011.96  2039.73  2043.84  2072.40
                             2072.99  2075.53  2135.99  2144.16  2148.84
                             2177.60  2182.38  2185.23  2186.74  2191.71
                             2196.13  2200.88  2201.45  2204.59  2212.77
                             2214.21  2217.70  4335.85  4338.04  4351.62
                             4352.70  4354.30  4356.59  4357.07  4364.19
                             4370.95  4373.30  4375.85  4379.02  4381.96
                             4386.84  4402.32  4412.84  4418.42  4423.14
                             4425.68  4432.23  4450.35  4467.51  4469.68
                             4470.48  4474.92  4476.04  4483.93

 Zero-point correction=                           0.372058 (Hartree/Particle)
 Thermal correction to Energy=                    0.390685
 Thermal correction to Enthalpy=                  0.391629
 Thermal correction to Gibbs Free Energy=         0.322866
 Sum of electronic and zero-point Energies=           -814.537418
 Sum of electronic and thermal Energies=              -814.518790
 Sum of electronic and thermal Enthalpies=            -814.517846
 Sum of electronic and thermal Free Energies=         -814.586609

                     E (Thermal)             CV                S
                      KCal/Mol        Cal/Mol-Kelvin    Cal/Mol-Kelvin
 Total                  245.159             66.334            144.725
 Electronic               0.000              0.000              0.000
 Translational            0.889              2.981             41.817
 Rotational               0.889              2.981             33.075
 Vibrational            243.381             60.373             69.833
 Vibration     1          0.593              1.986              6.760
 Vibration     2          0.593              1.984              6.027
 Vibration     3          0.594              1.982              5.427
 Vibration     4          0.596              1.976              4.692
 Vibration     5          0.598              1.969              4.184
 Vibration     6          0.601              1.960              3.787
 Vibration     7          0.604              1.949              3.447
 Vibration     8          0.604              1.948              3.421
 Vibration     9          0.610              1.930              3.047
 Vibration    10          0.615              1.912              2.782
 Vibration    11          0.623              1.887              2.503
 Vibration    12          0.641              1.829              2.065
 Vibration    13          0.644              1.822              2.021
 Vibration    14          0.652              1.797              1.888
 Vibration    15          0.661              1.769              1.757
 Vibration    16          0.664              1.760              1.719
 Vibration    17          0.675              1.726              1.587
 Vibration    18          0.679              1.713              1.542
 Vibration    19          0.689              1.684              1.448
 Vibration    20          0.694              1.670              1.406
 Vibration    21          0.727              1.575              1.165
 Vibration    22          0.793              1.401              0.854
 Vibration    23          0.832              1.304              0.722
 Vibration    24          0.845              1.274              0.686
 Vibration    25          0.977              0.996              0.421

 Optimization completed on the basis of negligible forces.
    -- Stationary point found.
 Normal termination of Gaussian 16 at Sun Aug 23 09:49:18 2020.
 Gaussian 16:  ES64L-G16RevA.03 25-Dec-2016

 ----------------------------------------------------------------------
 # TD(NStates=10, Root=1) B3LYP/6-31G* scf=qc volume pop=NPA density=cu
 rrent Geom=AllCheck Guess=Read
 ----------------------------------------------------------------------

 Structure from the checkpoint file:  "phosphine_2_conf223.chk"
 -------------------
 Title Card Required
 -------------------
 Charge =  0 Multiplicity = 1

                         Standard orientation:
 ---------------------------------------------------------------------
 Center     Atomic      Atomic             Coordinates (Angstroms)
 Number     Number       Type             X           Y           Z
 ---------------------------------------------------------------------
      1          6           0        3.924707   -2.258587   -0.354399
      2          6           0        2.629597   -2.920741    0.130014
      3          6           0        1.509311   -1.934736    0.513403
      4          6           0        0.956059   -1.130704   -0.673351
      5          1           0        1.754686   -0.543293   -1.141720
      6          1           0        0.606526   -1.824663   -1.451776
      7         15           0       -0.477874    0.062859   -0.409073
      8          6           0       -1.674740   -1.051273    0.527152
      9          1           0       -1.734629   -1.998571   -0.026604
     10          1           0       -1.267743   -1.292821    1.517525
     11          6           0       -3.088888   -0.458849    0.675588
     12          6           0       -3.889581   -0.396580   -0.632137
     13          6           0       -5.289451    0.197450   -0.446846
     14          6           0        0.093767    1.153544    1.018202
     15          1           0       -0.813126    1.368186    1.599031
     16          1           0        0.765361    0.604849    1.691959
     17          6           0        0.731713    2.488800    0.597381
     18          6           0        2.070222    2.363760   -0.141964
     19          6           0        2.709824    3.721919   -0.448461
     20          1           0        4.697600   -3.008932   -0.556521
     21          1           0        4.321301   -1.568708    0.401370
     22          1           0        3.773711   -1.687894   -1.277450
     23          1           0        2.855985   -3.545090    1.005274
     24          1           0        2.256892   -3.606755   -0.644147
     25          1           0        1.890719   -1.251880    1.284948
     26          1           0        0.695165   -2.502269    0.981148
     27          1           0       -3.028412    0.549622    1.111588
     28          1           0       -3.647262   -1.063197    1.405488
     29          1           0       -3.973996   -1.411477   -1.047146
     30          1           0       -3.333002    0.191150   -1.372800
     31          1           0       -5.879512   -0.387293    0.270131
     32          1           0       -5.842426    0.219594   -1.392857
     33          1           0       -5.236653    1.226167   -0.069157
     34          1           0        0.883455    3.101367    1.498692
     35          1           0        0.024344    3.043474   -0.034672
     36          1           0        1.919117    1.816567   -1.082246
     37          1           0        2.763933    1.758701    0.459863
     38          1           0        2.050736    4.336903   -1.073465
     39          1           0        3.660826    3.606448   -0.980872
     40          1           0        2.909280    4.282914    0.473025
 ---------------------------------------------------------------------

 SCF Done:  E(RB3LYP) =  -814.909475337     a.u. after    1 cycles

 Excitation energies and oscillator strengths:

 Excited State   1:      Singlet-A      6.4631 eV  191.83 nm  f=0.1111  <S**2>=0.000
      57 -> 58         0.69663
 This state for optimization and/or second-order correction.
 Total Energy, E(TD-HF/TD-DFT) =  -814.671962029
 Copying the excited state density for this state as the 1-particle RhoCI density.

 Excited State   2:      Singlet-A      6.6491 eV  186.47 nm  f=0.1386  <S**2>=0.000
      57 -> 59         0.69424

 Excited State   3:      Singlet-A      7.0660 eV  175.47 nm  f=0.0094  <S**2>=0.000
      57 -> 60         0.69815

 Excited State   4:      Singlet-A      7.5480 eV  164.26 nm  f=0.0079  <S**2>=0.000
      57 -> 61         0.67559
      57 -> 62        -0.13395

 Excited State   5:      Singlet-A      7.7480 eV  160.02 nm  f=0.0384  <S**2>=0.000
      57 -> 61         0.14040
      57 -> 62         0.65267
      57 -> 63         0.16436
      57 -> 65        -0.11781

 Excited State   6:      Singlet-A      7.8091 eV  158.77 nm  f=0.0158  <S**2>=0.000
      57 -> 62        -0.15926
      57 -> 63         0.64924
      57 -> 64        -0.18578

 Excited State   7:      Singlet-A      8.0963 eV  153.14 nm  f=0.0049  <S**2>=0.000
      57 -> 63        -0.18604
      57 -> 64        -0.43276
      57 -> 65         0.12928
      57 -> 66         0.49533

 Excited State   8:      Singlet-A      8.1862 eV  151.45 nm  f=0.0115  <S**2>=0.000
      57 -> 64         0.50571
      57 -> 66         0.45951

 Excited State   9:      Singlet-A      8.2541 eV  150.21 nm  f=0.0013  <S**2>=0.000
      57 -> 62         0.11849
      57 -> 65         0.67692
      57 -> 66        -0.10890

 Excited State  10:      Singlet-A      8.3205 eV  149.01 nm  f=0.0045  <S**2>=0.000
      55 -> 59        -0.28928
      56 -> 58         0.61554
      56 -> 59        -0.10496

 The electronic state is 1-A.
 Alpha  occ. eigenvalues --  -77.06328 -10.18080 -10.18041 -10.18032 -10.18009
 Alpha  occ. eigenvalues --  -10.17961 -10.17954 -10.17806 -10.17725 -10.17273
 Alpha  occ. eigenvalues --  -10.17262 -10.17067 -10.16853  -6.53087  -4.69345
 Alpha  occ. eigenvalues --   -4.69333  -4.68839  -0.79913  -0.78812  -0.78670
 Alpha  occ. eigenvalues --   -0.74032  -0.71552  -0.71329  -0.65473  -0.63244
 Alpha  occ. eigenvalues --   -0.62056  -0.58060  -0.57096  -0.56963  -0.51362
 Alpha  occ. eigenvalues --   -0.46209  -0.46057  -0.45685  -0.43809  -0.43136
 Alpha  occ. eigenvalues --   -0.42829  -0.41805  -0.41464  -0.40889  -0.39558
 Alpha  occ. eigenvalues --   -0.38834  -0.38584  -0.36896  -0.36201  -0.35912
 Alpha  occ. eigenvalues --   -0.34891  -0.33800  -0.33281  -0.32919  -0.32774
 Alpha  occ. eigenvalues --   -0.32460  -0.32285  -0.31854  -0.31664  -0.28999
 Alpha  occ. eigenvalues --   -0.28923  -0.21027
 Alpha virt. eigenvalues --    0.05674   0.06201   0.07977   0.09943   0.10344
 Alpha virt. eigenvalues --    0.10754   0.11547   0.11969   0.12013   0.13630
 Alpha virt. eigenvalues --    0.14320   0.14933   0.15265   0.15372   0.16489

 Mulliken charges:
               1
     1  C   -0.435509
     2  C   -0.242043
     3  C   -0.264930
     4  C   -0.404946
     5  H    0.146732
     6  H    0.137064
     7  P    0.300838
     8  C   -0.428049
     9  H    0.150354
    10  H    0.176717
    11  C   -0.218260
    12  C   -0.235520
    13  C   -0.438509
    14  C   -0.417220
    15  H    0.184947
    16  H    0.152963
    17  C   -0.259605
    18  C   -0.238936
    19  C   -0.442895
    20  H    0.139565
    21  H    0.136190
    22  H    0.138968
    23  H    0.127232
    24  H    0.130180
    25  H    0.135055
    26  H    0.135838
    27  H    0.111224
    28  H    0.103275
    29  H    0.114867
    30  H    0.134231
    31  H    0.137885
    32  H    0.138941
    33  H    0.138826
    34  H    0.131917
    35  H    0.144628
    36  H    0.128216
    37  H    0.126113
    38  H    0.142135
    39  H    0.142040
    40  H    0.139483
 Sum of Mulliken charges =   0.00000

 Dipole moment (field-independent basis, Debye):
    X=              0.5852    Y=             -0.4136    Z=              1.1206  Tot=              1.3301
 Quadrupole moment (field-independent basis, Debye-Ang):
   XX=           -100.2216   YY=            -95.0666   ZZ=            -94.6097
   XY=              0.8561   XZ=              0.7027   YZ=              0.5562

 Summary of Natural Population Analysis:

                                       Natural Population
                Natural  -----------------------------------------------
    Atom  No    Charge         Core      Valence    Rydberg      Total
 -----------------------------------------------------------------------
      C    1   -0.67922      1.99946     4.67204    0.00772     6.67922
      C    2   -0.45210      1.99934     4.44104    0.01171     6.45210
      C    3   -0.45309      1.99929     4.44082    0.01298     6.45309
      C    4   -0.87181      1.99931     4.84714    0.02536     6.87181
      H    5    0.24093      0.00000     0.75233    0.00674     0.75907
      H    6    0.24132      0.00000     0.75518    0.00350     0.75868
      P    7    0.98494      9.99770     3.89698    0.12039    14.01506
      C    8   -0.78774      1.99931     4.76771    0.02072     6.78774
      H    9    0.23972      0.00000     0.75558    0.00469     0.76028
      H   10    0.26809      0.00000     0.72972    0.00219     0.73191
      C   11   -0.46299      1.99932     4.44854    0.01513     6.46299
      C   12   -0.45726      1.99935     4.44614    0.01178     6.45726
      C   13   -0.67342      1.99946     4.66622    0.00774     6.67342
      C   14   -0.75640      1.99928     4.74050    0.01661     6.75640
      H   15    0.26523      0.00000     0.73333    0.00144     0.73477
      H   16    0.23434      0.00000     0.75706    0.00861     0.76566
      C   17   -0.46065      1.99932     4.44754    0.01379     6.46065
      C   18   -0.45663      1.99934     4.44654    0.01075     6.45663
      C   19   -0.67326      1.99946     4.66606    0.00773     6.67326
      H   20    0.23128      0.00000     0.76712    0.00160     0.76872
      H   21    0.22070      0.00000     0.77736    0.00194     0.77930
      H   22    0.21989      0.00000     0.77607    0.00405     0.78011
      H   23    0.22998      0.00000     0.76691    0.00311     0.77002
      H   24    0.22680      0.00000     0.77062    0.00259     0.77320
      H   25    0.22302      0.00000     0.77473    0.00225     0.77698
      H   26    0.23017      0.00000     0.76796    0.00187     0.76983
      H   27    0.21492      0.00000     0.77576    0.00932     0.78508
      H   28    0.21637      0.00000     0.77451    0.00912     0.78363
      H   29    0.21651      0.00000     0.77805    0.00544     0.78349
      H   30    0.22373      0.00000     0.77179    0.00448     0.77627
      H   31    0.22247      0.00000     0.77549    0.00205     0.77753
      H   32    0.23001      0.00000     0.76878    0.00121     0.76999
      H   33    0.22203      0.00000     0.77510    0.00287     0.77797
      H   34    0.23274      0.00000     0.76480    0.00246     0.76726
      H   35    0.23301      0.00000     0.76340    0.00359     0.76699
      H   36    0.21486      0.00000     0.77695    0.00820     0.78514
      H   37    0.22267      0.00000     0.77539    0.00194     0.77733
      H   38    0.22443      0.00000     0.77434    0.00122     0.77557
      H   39    0.23156      0.00000     0.76718    0.00126     0.76844
      H   40    0.22284      0.00000     0.77603    0.00112     0.77716
 =======================================================================
   * Total *   -0.00000     33.98996    79.62878    0.38126   114.00000

 Normal termination of Gaussian 16 at Sun Aug 23 09:57:24 2020.
