 Gaussian 16, Revision A.03,

 ---------------------------------
 # opt=CalcAll B3LYP/6-31G* scf=qc
 ---------------------------------

 -------------------
 Title Card Required
 -------------------
 Symbolic Z-matrix:
 Charge =  0 Multiplicity = 1

 SCF Done:  E(RB3LYP) =  -1036.26259936     a.u. after    8 cycles
 SCF Done:  E(RB3LYP) =  -1036.26422533     a.u. after   17 cycles
 SCF Done:  E(RB3LYP) =  -1036.29082325     a.u. after   17 cycles
 SCF Done:  E(RB3LYP) =  -1036.29573713     a.u. after   17 cycles
 SCF Done:  E(RB3LYP) =  -1036.29738141     a.u. after   13 cycles
 SCF Done:  E(RB3LYP) =  -1036.29804224     a.u. after   15 cycles
 SCF Done:  E(RB3LYP) =  -1036.29811129     a.u. after    9 cycles
 SCF Done:  E(RB3LYP) =  -1036.29810131     a.u. after    5 cycles
 SCF Done:  E(RB3LYP) =  -1036.29822867     a.u. after   13 cycles
 SCF Done:  E(RB3LYP) =  -1036.29822866     a.u. after    7 cycles
 SCF Done:  E(RB3LYP) =  -1036.29823331     a.u. after    2 cycles
 SCF Done:  E(RB3LYP) =  -1036.29823013     a.u. after    3 cycles
 SCF Done:  E(RB3LYP) =  -1036.29822922     a.u. after    2 cycles
 SCF Done:  E(RB3LYP) =  -1036.29823517     a.u. after    2 cycles
 SCF Done:  E(RB3LYP) =  -1036.29822940     a.u. after    2 cycles
 SCF Done:  E(RB3LYP) =  -1036.29823247     a.u. after    2 cycles
 SCF Done:  E(RB3LYP) =  -1036.29823064     a.u. after    2 cycles
 SCF Done:  E(RB3LYP) =  -1036.29823101     a.u. after    2 cycles
 Optimization completed.
    -- Stationary point found.
 Normal termination of Gaussian 16 at Sun Aug 23 08:57:47 2020.

 ----------------------------------------------------------------------
 # freq B3LYP/6-31G* scf=qc volume NMR pop=NPA density=current Geom=All
 Check Guess=Read
 ----------------------------------------------------------------------

 Structure from the checkpoint file:  "phosphine_1_conf292.chk"
 -------------------
 Title Card Required
 -------------------
 Charge =  0 Multiplicity = 1

 SCF Done:  E(RB3LYP) =  -1036.29823101     a.u. after    1 cycles

      1  C    Isotropic =    68.1656   Anisotropy =   167.2943

      2  C    Isotropic =    68.7307   Anisotropy =   164.0907

      3  C    Isotropic =    61.0265   Anisotropy =   164.1483

      4  C    Isotropic =    56.1245   Anisotropy =   179.4717

      5  C    Isotropic =    62.6042   Anisotropy =   174.0928

      6  C    Isotropic =    68.6820   Anisotropy =   163.8988

      7  P    Isotropic =   361.4428   Anisotropy =    39.6029

      8  C    Isotropic =    56.1249   Anisotropy =   179.4308

      9  C    Isotropic =    61.0077   Anisotropy =   164.1250

     10  C    Isotropic =    68.7222   Anisotropy =   164.1298

     11  C    Isotropic =    68.1593   Anisotropy =   167.3369

     12  C    Isotropic =    68.6842   Anisotropy =   163.8827

     13  C    Isotropic =    62.5795   Anisotropy =   174.0661

     14  C    Isotropic =    56.1178   Anisotropy =   179.4222

     15  C    Isotropic =    61.0001   Anisotropy =   164.1246

     16  C    Isotropic =    68.7260   Anisotropy =   164.1265

     17  C    Isotropic =    68.1664   Anisotropy =   167.3415

     18  C    Isotropic =    68.6755   Anisotropy =   163.8946

     19  C    Isotropic =    62.5836   Anisotropy =   174.0456

     20  H    Isotropic =    25.0237   Anisotropy =     3.6340

     21  H    Isotropic =    24.9311   Anisotropy =     4.5817

     22  H    Isotropic =    24.6128   Anisotropy =     9.2543

     23  H    Isotropic =    25.3971   Anisotropy =    12.2324

     24  H    Isotropic =    25.0482   Anisotropy =     6.0853

     25  H    Isotropic =    24.6119   Anisotropy =     9.2530

     26  H    Isotropic =    24.9254   Anisotropy =     4.5895

     27  H    Isotropic =    25.0204   Anisotropy =     3.6413

     28  H    Isotropic =    25.0485   Anisotropy =     6.0864

     29  H    Isotropic =    25.3992   Anisotropy =    12.2299

     30  H    Isotropic =    24.6125   Anisotropy =     9.2549

     31  H    Isotropic =    24.9272   Anisotropy =     4.5883

     32  H    Isotropic =    25.0198   Anisotropy =     3.6404

     33  H    Isotropic =    25.0470   Anisotropy =     6.0870

     34  H    Isotropic =    25.3985   Anisotropy =    12.2287

  Exact polarizability: 224.151  -0.007 224.112  -0.002   0.010 165.058
 Approx polarizability: 330.910  -0.020 330.858  -0.006   0.025 308.063

                      1                      2                      3
                      A                      A                      A
 Frequencies --     21.3531                22.9916                37.6317
 Red. masses --      3.7937                 3.7974                 3.6887
 Frc consts  --      0.0010                 0.0012                 0.0031
 IR Inten    --      0.2804                 0.2818                 0.0019

                      4                      5                      6
                      A                      A                      A
 Frequencies --     53.2265                53.3326                70.6022
 Red. masses --      5.2560                 5.2525                 5.1672
 Frc consts  --      0.0088                 0.0088                 0.0152
 IR Inten    --      0.0861                 0.0844                 0.3105

                      7                      8                      9
                      A                      A                      A
 Frequencies --    181.4693               202.3306               202.6034
 Red. masses --      4.5600                 4.6435                 4.6415
 Frc consts  --      0.0885                 0.1120                 0.1123
 IR Inten    --      0.3528                 1.1389                 1.1373

                     10                     11                     12
                      A                      A                      A
 Frequencies --    245.5693               259.8092               260.0390
 Red. masses --      5.7402                 4.7202                 4.7226
 Frc consts  --      0.2040                 0.1877                 0.1882
 IR Inten    --      0.4824                 0.2254                 0.2225

                     13                     14                     15
                      A                      A                      A
 Frequencies --    408.7297               408.8218               412.3374
 Red. masses --      3.0776                 3.0789                 3.5819
 Frc consts  --      0.3029                 0.3032                 0.3588
 IR Inten    --      1.9565                 1.9616                 0.1567

                     16                     17                     18
                      A                      A                      A
 Frequencies --    417.0595               429.4330               429.5290
 Red. masses --      4.6337                 7.3027                 7.3099
 Frc consts  --      0.4749                 0.7935                 0.7946
 IR Inten    --      0.5648                 7.6680                 7.6957

                     19                     20                     21
                      A                      A                      A
 Frequencies --    509.4522               509.5071               516.3023
 Red. masses --      4.2483                 4.2478                 4.5892
 Frc consts  --      0.6496                 0.6497                 0.7208
 IR Inten    --     26.1664                26.1265                11.9761

                     22                     23                     24
                      A                      A                      A
 Frequencies --    632.7169               632.7444               633.3651
 Red. masses --      6.4270                 6.4271                 6.4367
 Frc consts  --      1.5159                 1.5161                 1.5213
 IR Inten    --      0.1815                 0.1811                 0.0162

                     25                     26                     27
                      A                      A                      A
 Frequencies --    691.8917               705.1742               705.2018
 Red. masses --      6.5807                 5.6858                 5.7242
 Frc consts  --      1.8561                 1.6659                 1.6772
 IR Inten    --      0.7706                 1.2300                 1.1687

                     28                     29                     30
                      A                      A                      A
 Frequencies --    712.1816               712.3030               713.2309
 Red. masses --      2.2043                 2.2019                 2.1331
 Frc consts  --      0.6587                 0.6582                 0.6393
 IR Inten    --     26.3027                26.3845                16.5958

                     31                     32                     33
                      A                      A                      A
 Frequencies --    761.3831               762.8899               762.8992
 Red. masses --      1.6154                 1.6476                 1.6493
 Frc consts  --      0.5517                 0.5650                 0.5656
 IR Inten    --     19.1993                24.9117                24.8893

                     34                     35                     36
                      A                      A                      A
 Frequencies --    866.0859               866.2298               868.6970
 Red. masses --      1.2478                 1.2477                 1.2463
 Frc consts  --      0.5515                 0.5516                 0.5541
 IR Inten    --      0.2292                 0.2236                 0.1340

                     37                     38                     39
                      A                      A                      A
 Frequencies --    932.8587               932.9569               934.1793
 Red. masses --      1.3444                 1.3441                 1.3386
 Frc consts  --      0.6893                 0.6893                 0.6883
 IR Inten    --      1.2598                 1.2641                 0.0269

                     40                     41                     42
                      A                      A                      A
 Frequencies --    975.7139               975.8599               977.5755
 Red. masses --      1.3615                 1.3612                 1.3557
 Frc consts  --      0.7637                 0.7638                 0.7634
 IR Inten    --      0.0167                 0.0162                 0.1421

                     43                     44                     45
                      A                      A                      A
 Frequencies --   1000.3487              1000.3861              1001.0860
 Red. masses --      1.2544                 1.2543                 1.2526
 Frc consts  --      0.7396                 0.7396                 0.7396
 IR Inten    --      0.0771                 0.0794                 0.0001

                     46                     47                     48
                      A                      A                      A
 Frequencies --   1015.3743              1015.3788              1015.7589
 Red. masses --      6.3122                 6.3123                 6.3103
 Frc consts  --      3.8343                 3.8344                 3.8360
 IR Inten    --      4.3687                 4.3594                 0.0447

                     49                     50                     51
                      A                      A                      A
 Frequencies --   1052.6893              1052.7404              1052.9168
 Red. masses --      3.3088                 3.3154                 3.2533
 Frc consts  --      2.1603                 2.1649                 2.1250
 IR Inten    --      2.1042                 2.0911                 0.0416

                     52                     53                     54
                      A                      A                      A
 Frequencies --   1107.8561              1108.1059              1109.5245
 Red. masses --      1.8819                 1.8570                 1.6547
 Frc consts  --      1.3609                 1.3435                 1.2002
 IR Inten    --      4.2040                 3.7871                 2.8356

                     55                     56                     57
                      A                      A                      A
 Frequencies --   1110.7638              1110.8350              1116.2523
 Red. masses --      2.1995                 2.2213                 2.6135
 Frc consts  --      1.5989                 1.6149                 1.9186
 IR Inten    --      9.5258                 9.7641                 1.2665

                     58                     59                     60
                      A                      A                      A
 Frequencies --   1193.4781              1193.8751              1193.9287
 Red. masses --      1.1033                 1.0999                 1.1001
 Frc consts  --      0.9259                 0.9237                 0.9239
 IR Inten    --      0.0017                 0.1307                 0.1306

                     61                     62                     63
                      A                      A                      A
 Frequencies --   1219.1701              1219.4386              1220.9154
 Red. masses --      1.1475                 1.1477                 1.1473
 Frc consts  --      1.0049                 1.0056                 1.0076
 IR Inten    --      6.0411                 6.0554                 0.3729

                     64                     65                     66
                      A                      A                      A
 Frequencies --   1325.0083              1328.6332              1328.8299
 Red. masses --      3.4970                 3.4735                 3.5125
 Frc consts  --      3.6173                 3.6126                 3.6543
 IR Inten    --      2.6304                 2.4358                 2.4428

                     67                     68                     69
                      A                      A                      A
 Frequencies --   1365.0666              1365.2876              1365.6470
 Red. masses --      1.6607                 1.6518                 1.6405
 Frc consts  --      1.8232                 1.8140                 1.8026
 IR Inten    --      0.2381                 0.2974                 2.8591

                     70                     71                     72
                      A                      A                      A
 Frequencies --   1480.4896              1480.9461              1480.9920
 Red. masses --      2.1107                 2.1151                 2.1163
 Frc consts  --      2.7258                 2.7331                 2.7349
 IR Inten    --     16.6456                 6.6065                 6.6033

                     73                     74                     75
                      A                      A                      A
 Frequencies --   1531.0614              1531.5174              1531.6081
 Red. masses --      2.0150                 1.9988                 1.9980
 Frc consts  --      2.7830                 2.7623                 2.7615
 IR Inten    --      2.0134                10.1420                10.1460

                     76                     77                     78
                      A                      A                      A
 Frequencies --   1630.1539              1630.4258              1630.4453
 Red. masses --      5.1001                 5.1134                 5.1127
 Frc consts  --      7.9853                 8.0087                 8.0078
 IR Inten    --      0.3997                 0.0451                 0.0443

                     79                     80                     81
                      A                      A                      A
 Frequencies --   1646.1354              1646.1567              1647.9395
 Red. masses --      5.2718                 5.2708                 5.2830
 Frc consts  --      8.4167                 8.4153                 8.4530
 IR Inten    --      3.5122                 3.5108                 0.3198

                     82                     83                     84
                      A                      A                      A
 Frequencies --   3176.0887              3176.1184              3176.1459
 Red. masses --      1.0854                 1.0853                 1.0853
 Frc consts  --      6.4507                 6.4508                 6.4509
 IR Inten    --      2.2016                 1.9467                 1.8703

                     85                     86                     87
                      A                      A                      A
 Frequencies --   3182.6415              3182.6768              3182.7496
 Red. masses --      1.0875                 1.0875                 1.0876
 Frc consts  --      6.4901                 6.4903                 6.4911
 IR Inten    --      0.7573                 0.7354                 0.2035

                     88                     89                     90
                      A                      A                      A
 Frequencies --   3192.8389              3192.8741              3192.9913
 Red. masses --      1.0916                 1.0916                 1.0917
 Frc consts  --      6.5567                 6.5568                 6.5579
 IR Inten    --     10.8938                10.6661                46.7111

                     91                     92                     93
                      A                      A                      A
 Frequencies --   3203.9400              3203.9673              3204.3456
 Red. masses --      1.0941                 1.0941                 1.0943
 Frc consts  --      6.6175                 6.6176                 6.6199
 IR Inten    --     41.7810                41.8200                 4.3330

                     94                     95                     96
                      A                      A                      A
 Frequencies --   3210.1380              3210.1705              3211.0495
 Red. masses --      1.0956                 1.0956                 1.0956
 Frc consts  --      6.6519                 6.6521                 6.6556
 IR Inten    --     19.5989                19.6971                16.3213

 - Thermochemistry -
 -------------------
 Temperature   298.150 Kelvin.  Pressure   1.00000 Atm.
 Atom     1 has atomic number  6 and mass  12.00000

 Molecular mass:   262.09114 amu.
 Principal axes and moments of inertia in atomic units:
                           1         2         3
     Eigenvalues --  5162.323305163.956828680.94132
           X            0.99998  -0.00552  -0.00000
           Y            0.00552   0.99998   0.00000
           Z            0.00000  -0.00000   1.00000
 This molecule is an asymmetric top.
 Rotational symmetry number  1.
 Warning -- assumption of classical behavior for rotation
           may cause significant error
 Rotational temperatures (Kelvin)      0.01678     0.01677     0.00998
 Rotational constants (GHZ):           0.34960     0.34949     0.20790
 Zero-point vibrational energy     719937.6 (Joules/Mol)
                                  172.06922 (Kcal/Mol)
 Warning -- explicit consideration of  21 degrees of freedom as
           vibrations may cause significant error
 Vibrational temperatures:     30.72    33.08    54.14    76.58    76.73
          (Kelvin)            101.58   261.09   291.11   291.50   353.32
                              373.81   374.14   588.07   588.20   593.26
                              600.06   617.86   618.00   732.99   733.07
                              742.84   910.34   910.38   911.27   995.48
                             1014.59  1014.63  1024.67  1024.85  1026.18
                             1095.46  1097.63  1097.64  1246.10  1246.31
                             1249.86  1342.18  1342.32  1344.08  1403.83
                             1404.04  1406.51  1439.28  1439.33  1440.34
                             1460.90  1460.90  1461.45  1514.59  1514.66
                             1514.91  1593.96  1594.32  1596.36  1598.14
                             1598.24  1606.04  1717.15  1717.72  1717.80
                             1754.11  1754.50  1756.62  1906.39  1911.61
                             1911.89  1964.03  1964.34  1964.86  2130.09
                             2130.75  2130.82  2202.86  2203.51  2203.64
                             2345.43  2345.82  2345.85  2368.42  2368.45
                             2371.02  4569.68  4569.73  4569.77  4579.11
                             4579.16  4579.27  4593.78  4593.83  4594.00
                             4609.76  4609.79  4610.34  4618.67  4618.72
                             4619.98

 Zero-point correction=                           0.274210 (Hartree/Particle)
 Thermal correction to Energy=                    0.290138
 Thermal correction to Enthalpy=                  0.291083
 Thermal correction to Gibbs Free Energy=         0.227636
 Sum of electronic and zero-point Energies=          -1036.024021
 Sum of electronic and thermal Energies=             -1036.008093
 Sum of electronic and thermal Enthalpies=           -1036.007148
 Sum of electronic and thermal Free Energies=        -1036.070595

                     E (Thermal)             CV                S
                      KCal/Mol        Cal/Mol-Kelvin    Cal/Mol-Kelvin
 Total                  182.065             62.539            133.534
 Electronic               0.000              0.000              0.000
 Translational            0.889              2.981             42.590
 Rotational               0.889              2.981             33.803
 Vibrational            180.287             56.578             57.141
 Vibration     1          0.593              1.985              6.504
 Vibration     2          0.593              1.985              6.357
 Vibration     3          0.594              1.982              5.380
 Vibration     4          0.596              1.976              4.694
 Vibration     5          0.596              1.976              4.690
 Vibration     6          0.598              1.968              4.136
 Vibration     7          0.630              1.865              2.313
 Vibration     8          0.639              1.837              2.112
 Vibration     9          0.639              1.836              2.109
 Vibration    10          0.660              1.770              1.762
 Vibration    11          0.668              1.746              1.663
 Vibration    12          0.668              1.746              1.662
 Vibration    13          0.773              1.451              0.931
 Vibration    14          0.773              1.451              0.931
 Vibration    15          0.776              1.443              0.918
 Vibration    16          0.780              1.433              0.902
 Vibration    17          0.791              1.406              0.861
 Vibration    18          0.791              1.406              0.860
 Vibration    19          0.865              1.229              0.635
 Vibration    20          0.865              1.229              0.635
 Vibration    21          0.871              1.214              0.619

                           ! Non-Optimized Parameters !
 Normal termination of Gaussian 16 at Sun Aug 23 09:08:37 2020.
 Gaussian 16:  ES64L-G16RevA.03 25-Dec-2016

 ----------------------------------------------------------------------
 # TD(NStates=10, Root=1) B3LYP/6-31G* scf=qc volume pop=NPA density=cu
 rrent Geom=AllCheck Guess=Read
 ----------------------------------------------------------------------

 Structure from the checkpoint file:  "phosphine_1_conf293.chk"
 -------------------
 Title Card Required
 -------------------
 Charge =  0 Multiplicity = 1

                         Standard orientation:
 ---------------------------------------------------------------------
 Center     Atomic      Atomic             Coordinates (Angstroms)
 Number     Number       Type             X           Y           Z
 ---------------------------------------------------------------------
      1          6           0        1.747940    3.907227    0.651485
      2          6           0        2.285893    3.341249   -0.506312
      3          6           0        1.735678    2.172726   -1.032541
      4          6           0        0.651575    1.538286   -0.402533
      5          6           0        0.118610    2.118740    0.758561
      6          6           0        0.661938    3.295284    1.279318
      7         15           0       -0.000278   -0.000107   -1.206370
      8          6           0        1.006521   -1.333519   -0.402640
      9          6           0        1.014845   -2.589535   -1.032751
     10          6           0        1.752108   -3.649919   -0.506294
     11          6           0        2.510630   -3.466682    0.651844
     12          6           0        2.522725   -2.220250    1.279803
     13          6           0        1.775102   -1.161842    0.758807
     14          6           0       -1.658395   -0.204986   -0.402428
     15          6           0       -2.750003    0.416274   -1.032619
     16          6           0       -4.037082    0.308337   -0.506429
     17          6           0       -4.258102   -0.440293    0.651547
     18          6           0       -3.185015   -1.074409    1.279600
     19          6           0       -1.894447   -0.956522    0.758855
     20          1           0        2.168609    4.823309    1.057835
     21          1           0        3.126837    3.815385   -1.005847
     22          1           0        2.147650    1.748774   -1.945596
     23          1           0       -0.726646    1.652865    1.256152
     24          1           0        0.235106    3.733060    2.178275
     25          1           0        0.442135   -2.734578   -1.946034
     26          1           0        1.743010   -4.615245   -1.005882
     27          1           0        3.093929   -4.288740    1.058384
     28          1           0        3.114791   -2.069246    2.179033
     29          1           0        1.793464   -0.196865    1.256372
     30          1           0       -2.588929    0.984833   -1.945810
     31          1           0       -4.868270    0.799218   -1.006116
     32          1           0       -5.261778   -0.534180    1.057885
     33          1           0       -3.350630   -1.662732    2.178713
     34          1           0       -1.068225   -1.455247    1.256558
 ---------------------------------------------------------------------

 SCF Done:  E(RB3LYP) =  -1036.29823101     a.u. after    1 cycles

 Excitation energies and oscillator strengths:

 Excited State   1:      Singlet-A      4.5100 eV  274.91 nm  f=0.1279  <S**2>=0.000
      69 -> 70         0.69474
 This state for optimization and/or second-order correction.
 Total Energy, E(TD-HF/TD-DFT) =  -1036.13248979
 Copying the excited state density for this state as the 1-particle RhoCI density.

 Excited State   2:      Singlet-A      4.5105 eV  274.88 nm  f=0.1279  <S**2>=0.000
      69 -> 71         0.69473

 Excited State   3:      Singlet-A      4.7569 eV  260.64 nm  f=0.0022  <S**2>=0.000
      67 -> 70         0.12404
      68 -> 71        -0.12410
      69 -> 72         0.67467

 Excited State   4:      Singlet-A      5.0578 eV  245.14 nm  f=0.0002  <S**2>=0.000
      66 -> 70         0.17230
      69 -> 74         0.63098

 Excited State   5:      Singlet-A      5.0579 eV  245.13 nm  f=0.0002  <S**2>=0.000
      66 -> 71         0.17229
      69 -> 75         0.63090

 Excited State   6:      Singlet-A      5.1507 eV  240.71 nm  f=0.0085  <S**2>=0.000
      69 -> 73         0.67915

 Excited State   7:      Singlet-A      5.4275 eV  228.44 nm  f=0.0147  <S**2>=0.000
      63 -> 72        -0.16611
      64 -> 75        -0.14911
      65 -> 74         0.14930
      67 -> 70         0.42125
      68 -> 71        -0.42060
      69 -> 72        -0.16513

 Excited State   8:      Singlet-A      5.5143 eV  224.84 nm  f=0.0004  <S**2>=0.000
      63 -> 74         0.14375
      64 -> 70        -0.11908
      64 -> 72         0.16260
      65 -> 71         0.11901
      65 -> 72        -0.23136
      66 -> 70        -0.22469
      67 -> 70        -0.14577
      67 -> 71         0.22937
      68 -> 70        -0.23056
      68 -> 71        -0.14569
      68 -> 72        -0.16370
      69 -> 74         0.28553

 Excited State   9:      Singlet-A      5.5145 eV  224.83 nm  f=0.0004  <S**2>=0.000
      63 -> 75         0.14374
      64 -> 71         0.11885
      64 -> 72         0.23140
      65 -> 70         0.11904
      65 -> 72         0.16266
      66 -> 71        -0.22430
      67 -> 70         0.22943
      67 -> 71         0.14559
      67 -> 72        -0.16362
      68 -> 70        -0.14620
      68 -> 71         0.23078
      69 -> 75         0.28565

 Excited State  10:      Singlet-A      5.6181 eV  220.69 nm  f=0.0009  <S**2>=0.000
      64 -> 71         0.10326
      65 -> 70        -0.10290
      67 -> 71         0.48082
      68 -> 70         0.48288

 The electronic state is 1-A.
 Alpha  occ. eigenvalues --  -77.08112 -10.19447 -10.19447 -10.19447 -10.19146
 Alpha  occ. eigenvalues --  -10.19146 -10.19146 -10.19117 -10.19117 -10.19117
 Alpha  occ. eigenvalues --  -10.19031 -10.19030 -10.19030 -10.19007 -10.19007
 Alpha  occ. eigenvalues --  -10.19007 -10.18962 -10.18961 -10.18961  -6.54843
 Alpha  occ. eigenvalues --   -4.71102  -4.71102  -4.70601  -0.85560  -0.84846
 Alpha  occ. eigenvalues --   -0.84845  -0.76669  -0.74366  -0.74366  -0.74329
 Alpha  occ. eigenvalues --   -0.73821  -0.73821  -0.64436  -0.60336  -0.60307
 Alpha  occ. eigenvalues --   -0.60307  -0.59207  -0.59207  -0.55448  -0.51435
 Alpha  occ. eigenvalues --   -0.51435  -0.49295  -0.45440  -0.45440  -0.44774
 Alpha  occ. eigenvalues --   -0.44344  -0.44344  -0.44067  -0.41946  -0.41868
 Alpha  occ. eigenvalues --   -0.41868  -0.40378  -0.40377  -0.36844  -0.36351
 Alpha  occ. eigenvalues --   -0.36351  -0.35899  -0.34252  -0.34251  -0.34224
 Alpha  occ. eigenvalues --   -0.31884  -0.31884  -0.26777  -0.25448  -0.25447
 Alpha  occ. eigenvalues --   -0.25243  -0.24704  -0.24703  -0.21144
 Alpha virt. eigenvalues --   -0.01880  -0.01879  -0.00830   0.00173   0.00428
 Alpha virt. eigenvalues --    0.00429   0.06884   0.06885   0.09492   0.11039
 Alpha virt. eigenvalues --    0.11039   0.13903   0.14529   0.14529   0.15164

 Mulliken charges:
               1
     1  C   -0.121331
     2  C   -0.118162
     3  C   -0.158653
     4  C   -0.083336
     5  C   -0.147591
     6  C   -0.120674
     7  P    0.450701
     8  C   -0.107620
     9  C   -0.157620
    10  C   -0.125427
    11  C   -0.152471
    12  C   -0.115419
    13  C   -0.170976
    14  C   -0.130224
    15  C   -0.176012
    16  C   -0.119457
    17  C   -0.162365
    18  C   -0.121967
    19  C   -0.167033
    20  H    0.147228
    21  H    0.143648
    22  H    0.149034
    23  H    0.178540
    24  H    0.147945
    25  H    0.129477
    26  H    0.124463
    27  H    0.120975
    28  H    0.126705
    29  H    0.131700
    30  H    0.115585
    31  H    0.116434
    32  H    0.112349
    33  H    0.121019
    34  H    0.140534
 Sum of Mulliken charges =  -0.00000

 Dipole moment (field-independent basis, Debye):
    X=              2.2432    Y=              2.9989    Z=             -0.1959  Tot=              3.7502
 Quadrupole moment (field-independent basis, Debye-Ang):
   XX=           -119.3045   YY=           -107.7646   ZZ=           -110.6623
   XY=              3.9622   XZ=              0.0227   YZ=              1.3406

 Summary of Natural Population Analysis:

                                       Natural Population
                Natural  -----------------------------------------------
    Atom  No    Charge         Core      Valence    Rydberg      Total
 -----------------------------------------------------------------------
      C    1   -0.19709      1.99909     4.18427    0.01373     6.19709
      C    2   -0.23372      1.99910     4.22044    0.01419     6.23372
      C    3   -0.20545      1.99902     4.19126    0.01518     6.20545
      C    4   -0.38034      1.99891     4.35634    0.02509     6.38034
      C    5   -0.20297      1.99900     4.18790    0.01608     6.20297
      C    6   -0.23126      1.99909     4.21808    0.01409     6.23126
      P    7    1.24222      9.99750     3.71003    0.05025    13.75778
      C    8   -0.43768      1.99887     4.41456    0.02425     6.43768
      C    9   -0.21000      1.99901     4.19526    0.01572     6.21000
      C   10   -0.24841      1.99910     4.23429    0.01502     6.24841
      C   11   -0.26336      1.99909     4.24853    0.01573     6.26336
      C   12   -0.22335      1.99909     4.21000    0.01426     6.22335
      C   13   -0.25622      1.99899     4.23966    0.01757     6.25622
      C   14   -0.47866      1.99887     4.45362    0.02616     6.47866
      C   15   -0.23889      1.99902     4.22354    0.01633     6.23889
      C   16   -0.23846      1.99910     4.22460    0.01476     6.23846
      C   17   -0.28412      1.99909     4.26865    0.01637     6.28412
      C   18   -0.23550      1.99909     4.22175    0.01466     6.23550
      C   19   -0.24360      1.99899     4.22688    0.01773     6.24360
      H   20    0.24253      0.00000     0.75665    0.00082     0.75747
      H   21    0.24343      0.00000     0.75566    0.00090     0.75657
      H   22    0.24200      0.00000     0.75681    0.00118     0.75800
      H   23    0.26285      0.00000     0.73593    0.00122     0.73715
      H   24    0.24618      0.00000     0.75296    0.00086     0.75382
      H   25    0.23290      0.00000     0.76592    0.00118     0.76710
      H   26    0.23503      0.00000     0.76410    0.00088     0.76497
      H   27    0.23128      0.00000     0.76783    0.00089     0.76872
      H   28    0.23624      0.00000     0.76288    0.00088     0.76376
      H   29    0.23693      0.00000     0.76173    0.00134     0.76307
      H   30    0.22427      0.00000     0.77478    0.00096     0.77573
      H   31    0.23061      0.00000     0.76844    0.00095     0.76939
      H   32    0.22745      0.00000     0.77164    0.00091     0.77255
      H   33    0.23375      0.00000     0.76537    0.00088     0.76625
      H   34    0.24139      0.00000     0.75704    0.00157     0.75861
 =======================================================================
   * Total *   -0.00000     45.98001    91.64740    0.37260   138.00000

 Normal termination of Gaussian 16 at Sun Aug 23 09:19:42 2020.
