 Gaussian 16, Revision A.03,

 ---------------------------------
 # opt=CalcAll B3LYP/6-31G* scf=qc
 ---------------------------------

 -------------------
 Title Card Required
 -------------------
 Symbolic Z-matrix:
 Charge =  0 Multiplicity = 1

 SCF Done:  E(RB3LYP) =  -1333.97748003     a.u. after    7 cycles
 SCF Done:  E(RB3LYP) =  -1333.98439948     a.u. after   15 cycles
 SCF Done:  E(RB3LYP) =  -1333.99585254     a.u. after   17 cycles
 SCF Done:  E(RB3LYP) =  -1333.99756382     a.u. after   17 cycles
 SCF Done:  E(RB3LYP) =  -1333.99873316     a.u. after   19 cycles
 SCF Done:  E(RB3LYP) =  -1333.99894586     a.u. after   13 cycles
 SCF Done:  E(RB3LYP) =  -1333.99896308     a.u. after   13 cycles
 SCF Done:  E(RB3LYP) =  -1333.99897495     a.u. after    5 cycles
 SCF Done:  E(RB3LYP) =  -1333.99897660     a.u. after    7 cycles
 SCF Done:  E(RB3LYP) =  -1333.99897633     a.u. after    2 cycles
 SCF Done:  E(RB3LYP) =  -1333.99897583     a.u. after    2 cycles
 SCF Done:  E(RB3LYP) =  -1333.99897671     a.u. after    3 cycles
 SCF Done:  E(RB3LYP) =  -1333.99897621     a.u. after    2 cycles
 Optimization completed on the basis of negligible forces.
    -- Stationary point found.
 Normal termination of Gaussian 16 at Sun Aug 23 15:32:17 2020.

 ----------------------------------------------------------------------
 # freq B3LYP/6-31G* scf=qc volume NMR pop=NPA density=current Geom=All
 Check Guess=Read
 ----------------------------------------------------------------------

 Structure from the checkpoint file:  "phosphine_5_conf72.chk"
 -------------------
 Title Card Required
 -------------------
 Charge =  0 Multiplicity = 1

 SCF Done:  E(RB3LYP) =  -1333.99897621     a.u. after    1 cycles

      1  C    Isotropic =    79.9451   Anisotropy =   137.4498

      2  C    Isotropic =    59.0839   Anisotropy =   162.8146

      3  C    Isotropic =    61.5906   Anisotropy =   173.5339

      4  C    Isotropic =    60.7633   Anisotropy =   171.8544

      5  C    Isotropic =    80.0820   Anisotropy =   136.7475

      6  C    Isotropic =    32.6786   Anisotropy =    98.7902

      7  F    Isotropic =   295.8140   Anisotropy =   112.9247

      8  P    Isotropic =   366.1322   Anisotropy =    39.7314

      9  C    Isotropic =    61.6521   Anisotropy =   173.4851

     10  C    Isotropic =    60.6881   Anisotropy =   171.9333

     11  C    Isotropic =    80.0628   Anisotropy =   136.7290

     12  C    Isotropic =    32.6647   Anisotropy =    98.8305

     13  C    Isotropic =    79.9321   Anisotropy =   137.4242

     14  C    Isotropic =    59.0119   Anisotropy =   162.7739

     15  F    Isotropic =   295.7874   Anisotropy =   113.0730

     16  C    Isotropic =    61.5966   Anisotropy =   173.5218

     17  C    Isotropic =    59.0130   Anisotropy =   162.7517

     18  C    Isotropic =    79.9190   Anisotropy =   137.4265

     19  C    Isotropic =    32.6553   Anisotropy =    98.8364

     20  C    Isotropic =    80.0696   Anisotropy =   136.7162

     21  C    Isotropic =    60.6880   Anisotropy =   171.8842

     22  F    Isotropic =   295.7814   Anisotropy =   113.0964

     23  H    Isotropic =    25.3613   Anisotropy =     4.2550

     24  H    Isotropic =    24.6231   Anisotropy =     8.9309

     25  H    Isotropic =    25.3679   Anisotropy =    12.0369

     26  H    Isotropic =    25.4667   Anisotropy =     5.7397

     27  H    Isotropic =    25.3582   Anisotropy =    12.0174

     28  H    Isotropic =    25.4633   Anisotropy =     5.7384

     29  H    Isotropic =    25.3586   Anisotropy =     4.2556

     30  H    Isotropic =    24.6176   Anisotropy =     8.9155

     31  H    Isotropic =    24.6169   Anisotropy =     8.9163

     32  H    Isotropic =    25.3566   Anisotropy =     4.2616

     33  H    Isotropic =    25.4676   Anisotropy =     5.7332

     34  H    Isotropic =    25.3624   Anisotropy =    12.0051

  Exact polarizability: 226.280  -0.117 225.992  -0.046   0.140 167.782
 Approx polarizability: 338.000  -0.260 337.459  -0.100   0.319 314.993

                      1                      2                      3
                      A                      A                      A
 Frequencies --     23.3892                24.6785                37.4304
 Red. masses --      4.0679                 4.0877                 8.9358
 Frc consts  --      0.0013                 0.0015                 0.0074
 IR Inten    --      0.2487                 0.2562                 0.1014

                      4                      5                      6
                      A                      A                      A
 Frequencies --     37.5862                40.4402                50.6200
 Red. masses --      9.0439                 3.7434                 9.9518
 Frc consts  --      0.0075                 0.0036                 0.0150
 IR Inten    --      0.0924                 0.0057                 0.1144

                      7                      8                      9
                      A                      A                      A
 Frequencies --    133.0053               145.4884               145.8078
 Red. masses --      8.0542                 8.3693                 8.3763
 Frc consts  --      0.0839                 0.1044                 0.1049
 IR Inten    --      0.0235                 0.5209                 0.5143

                     10                     11                     12
                      A                      A                      A
 Frequencies --    209.0200               218.8885               219.4996
 Red. masses --      8.0486                 6.9855                 6.9950
 Frc consts  --      0.2072                 0.1972                 0.1986
 IR Inten    --      0.2901                 0.5284                 0.5292

                     13                     14                     15
                      A                      A                      A
 Frequencies --    307.9502               336.0143               336.1053
 Red. masses --      8.4309                 8.3165                 8.3045
 Frc consts  --      0.4711                 0.5532                 0.5527
 IR Inten    --      1.0311                 0.0450                 0.0435

                     16                     17                     18
                      A                      A                      A
 Frequencies --    397.1548               404.1055               404.1765
 Red. masses --      7.7405                 8.0301                 8.0198
 Frc consts  --      0.7193                 0.7726                 0.7719
 IR Inten    --      0.3035                10.1127                10.1014

                     19                     20                     21
                      A                      A                      A
 Frequencies --    420.6637               420.7546               424.7494
 Red. masses --      3.2839                 3.2771                 3.1355
 Frc consts  --      0.3424                 0.3418                 0.3333
 IR Inten    --      1.1638                 1.0777                 0.0242

                     22                     23                     24
                      A                      A                      A
 Frequencies --    435.0056               435.2376               463.5961
 Red. masses --      6.1420                 6.1535                 6.6459
 Frc consts  --      0.6848                 0.6868                 0.8416
 IR Inten    --     18.9047                19.0626                 7.4011

                     25                     26                     27
                      A                      A                      A
 Frequencies --    533.0211               533.1607               535.5681
 Red. masses --      2.8108                 2.8120                 2.9071
 Frc consts  --      0.4705                 0.4710                 0.4913
 IR Inten    --     21.9238                21.8160                13.4843

                     28                     29                     30
                      A                      A                      A
 Frequencies --    608.0756               630.0025               630.0478
 Red. masses --      7.9092                 7.8317                 7.8284
 Frc consts  --      1.7231                 1.8314                 1.8309
 IR Inten    --      0.0096                 0.0365                 0.0391

                     31                     32                     33
                      A                      A                      A
 Frequencies --    648.2424               648.3826               648.4509
 Red. masses --      7.2771                 7.3789                 7.3808
 Frc consts  --      1.8017                 1.8277                 1.8286
 IR Inten    --      0.0049                 0.1276                 0.1296

                     34                     35                     36
                      A                      A                      A
 Frequencies --    715.1470               715.6520               715.7231
 Red. masses --      4.8100                 4.8252                 4.8304
 Frc consts  --      1.4494                 1.4560                 1.4579
 IR Inten    --      1.0797                 3.9410                 3.9384

                     37                     38                     39
                      A                      A                      A
 Frequencies --    835.7459               835.8195               836.8434
 Red. masses --      1.2634                 1.2616                 1.3272
 Frc consts  --      0.5199                 0.5193                 0.5476
 IR Inten    --      0.5324                 0.4567                11.3503

                     40                     41                     42
                      A                      A                      A
 Frequencies --    839.5414               839.5703               839.8194
 Red. masses --      3.2642                 3.2753                 4.0265
 Frc consts  --      1.3555                 1.3602                 1.6732
 IR Inten    --     62.0664                61.3786                18.4896

                     43                     44                     45
                      A                      A                      A
 Frequencies --    843.6566               843.7742               844.1132
 Red. masses --      2.0002                 1.9691                 1.6788
 Frc consts  --      0.8388                 0.8260                 0.7048
 IR Inten    --     10.0002                10.2241                12.0985

                     46                     47                     48
                      A                      A                      A
 Frequencies --    958.6616               958.7341               959.8651
 Red. masses --      1.2560                 1.2560                 1.2588
 Frc consts  --      0.6801                 0.6802                 0.6833
 IR Inten    --      0.1677                 0.1650                 0.3308

                     49                     50                     51
                      A                      A                      A
 Frequencies --    969.9409               969.9756               973.5061
 Red. masses --      1.3353                 1.3352                 1.3193
 Frc consts  --      0.7402                 0.7401                 0.7366
 IR Inten    --      0.0357                 0.0330                 0.3108

                     52                     53                     54
                      A                      A                      A
 Frequencies --   1034.7170              1034.8109              1035.1882
 Red. masses --      3.0268                 3.0327                 3.0246
 Frc consts  --      1.9093                 1.9134                 1.9097
 IR Inten    --      7.9566                 7.8740                 0.1473

                     55                     56                     57
                      A                      A                      A
 Frequencies --   1102.9037              1103.1688              1108.8234
 Red. masses --      3.6674                 3.6665                 3.5537
 Frc consts  --      2.6283                 2.6290                 2.5743
 IR Inten    --     19.3310                19.1348                 1.8940

                     58                     59                     60
                      A                      A                      A
 Frequencies --   1127.5360              1127.7541              1127.9634
 Red. masses --      1.3306                 1.3303                 1.3293
 Frc consts  --      0.9967                 0.9968                 0.9965
 IR Inten    --      0.9535                 1.9903                 6.0936

                     61                     62                     63
                      A                      A                      A
 Frequencies --   1195.2232              1195.6530              1199.5150
 Red. masses --      1.1836                 1.1857                 1.1805
 Frc consts  --      0.9962                 0.9987                 1.0007
 IR Inten    --     60.6307                61.1682                 2.6511

                     64                     65                     66
                      A                      A                      A
 Frequencies --   1285.3227              1285.4829              1286.2144
 Red. masses --      3.7556                 3.7414                 3.7827
 Frc consts  --      3.6556                 3.6427                 3.6870
 IR Inten    --    167.4731               166.0358                38.9067

                     67                     68                     69
                      A                      A                      A
 Frequencies --   1324.1660              1327.2888              1327.8107
 Red. masses --      2.7463                 2.2247                 2.3400
 Frc consts  --      2.8371                 2.3092                 2.4307
 IR Inten    --      8.7997                 3.8889                 3.8791

                     70                     71                     72
                      A                      A                      A
 Frequencies --   1336.7044              1336.9058              1337.1839
 Red. masses --      2.3256                 2.2064                 1.9417
 Frc consts  --      2.4483                 2.3235                 2.0455
 IR Inten    --      0.3439                 0.3932                 0.8493

                     73                     74                     75
                      A                      A                      A
 Frequencies --   1437.9307              1438.0698              1438.2760
 Red. masses --      2.9853                 2.9932                 2.9866
 Frc consts  --      3.6368                 3.6470                 3.6400
 IR Inten    --      6.8541                 2.6198                 2.6526

                     76                     77                     78
                      A                      A                      A
 Frequencies --   1545.5615              1545.7422              1546.5309
 Red. masses --      2.4083                 2.4046                 2.4441
 Frc consts  --      3.3894                 3.3850                 3.4442
 IR Inten    --    116.3264               116.4139                24.4674

                     79                     80                     81
                      A                      A                      A
 Frequencies --   1633.9227              1633.9772              1634.0078
 Red. masses --      6.9690                 6.9577                 6.9596
 Frc consts  --     10.9618                10.9448                10.9482
 IR Inten    --      9.2733                14.3910                11.1064

                     82                     83                     84
                      A                      A                      A
 Frequencies --   1653.5133              1653.5670              1654.3884
 Red. masses --      5.8086                 5.8058                 5.8788
 Frc consts  --      9.3570                 9.3532                 9.4801
 IR Inten    --     82.8443                82.5798                22.5933

                     85                     86                     87
                      A                      A                      A
 Frequencies --   3188.7838              3188.8571              3188.9523
 Red. masses --      1.0892                 1.0892                 1.0892
 Frc consts  --      6.5255                 6.5256                 6.5259
 IR Inten    --      5.7859                 3.9789                 3.6257

                     88                     89                     90
                      A                      A                      A
 Frequencies --   3205.8090              3205.8940              3206.5130
 Red. masses --      1.0878                 1.0878                 1.0879
 Frc consts  --      6.5867                 6.5870                 6.5901
 IR Inten    --      2.0265                 2.0260                 0.3594

                     91                     92                     93
                      A                      A                      A
 Frequencies --   3221.8714              3221.9677              3222.1660
 Red. masses --      1.0942                 1.0942                 1.0940
 Frc consts  --      6.6921                 6.6923                 6.6923
 IR Inten    --      3.4402                 3.0728                11.5138

                     94                     95                     96
                      A                      A                      A
 Frequencies --   3222.6013              3222.6423              3222.8669
 Red. masses --      1.0937                 1.0936                 1.0939
 Frc consts  --      6.6919                 6.6919                 6.6947
 IR Inten    --     12.2119                12.3049                 0.2532

 - Thermochemistry -
 -------------------
 Temperature   298.150 Kelvin.  Pressure   1.00000 Atm.
 Atom     1 has atomic number  6 and mass  12.00000

 Molecular mass:   316.06287 amu.
 Principal axes and moments of inertia in atomic units:
                           1         2         3
     Eigenvalues --  8314.374308322.47856**********
           X            0.99965  -0.02650  -0.00002
           Y            0.02650   0.99965   0.00004
           Z            0.00002  -0.00004   1.00000
 This molecule is an asymmetric top.
 Rotational symmetry number  1.
 Warning -- assumption of classical behavior for rotation
           may cause significant error
 Rotational temperatures (Kelvin)      0.01042     0.01041     0.00597
 Rotational constants (GHZ):           0.21706     0.21685     0.12431
 Zero-point vibrational energy     655297.3 (Joules/Mol)
                                  156.61982 (Kcal/Mol)
 Warning -- explicit consideration of  28 degrees of freedom as
           vibrations may cause significant error
 Vibrational temperatures:     33.65    35.51    53.85    54.08    58.18
          (Kelvin)             72.83   191.36   209.33   209.78   300.73
                              314.93   315.81   443.07   483.45   483.58
                              571.42   581.42   581.52   605.24   605.37
                              611.12   625.88   626.21   667.01   766.90
                              767.10   770.56   874.89   906.43   906.50
                              932.68   932.88   932.98  1028.94  1029.66
                             1029.77  1202.45  1202.56  1204.03  1207.91
                             1207.95  1208.31  1213.83  1214.00  1214.49
                             1379.30  1379.40  1381.03  1395.53  1395.58
                             1400.66  1488.73  1488.86  1489.40  1586.83
                             1587.21  1595.35  1622.27  1622.59  1622.89
                             1719.66  1720.28  1725.83  1849.29  1849.52
                             1850.58  1905.18  1909.67  1910.42  1923.22
                             1923.51  1923.91  2068.86  2069.06  2069.36
                             2223.72  2223.98  2225.11  2350.85  2350.93
                             2350.97  2379.04  2379.11  2380.30  4587.95
                             4588.05  4588.19  4612.44  4612.57  4613.46
                             4635.55  4635.69  4635.98  4636.60  4636.66
                             4636.99

 Zero-point correction=                           0.249590 (Hartree/Particle)
 Thermal correction to Energy=                    0.268019
 Thermal correction to Enthalpy=                  0.268963
 Thermal correction to Gibbs Free Energy=         0.199519
 Sum of electronic and zero-point Energies=          -1333.749387
 Sum of electronic and thermal Energies=             -1333.730957
 Sum of electronic and thermal Enthalpies=           -1333.730013
 Sum of electronic and thermal Free Energies=        -1333.799457

                     E (Thermal)             CV                S
                      KCal/Mol        Cal/Mol-Kelvin    Cal/Mol-Kelvin
 Total                  168.184             71.393            146.157
 Electronic               0.000              0.000              0.000
 Translational            0.889              2.981             43.148
 Rotational               0.889              2.981             35.262
 Vibrational            166.407             65.432             67.747
 Vibration     1          0.593              1.985              6.323
 Vibration     2          0.593              1.985              6.217
 Vibration     3          0.594              1.982              5.391
 Vibration     4          0.594              1.982              5.382
 Vibration     5          0.594              1.981              5.237
 Vibration     6          0.595              1.977              4.793
 Vibration     7          0.613              1.920              2.902
 Vibration     8          0.617              1.908              2.730
 Vibration     9          0.617              1.907              2.726
 Vibration    10          0.642              1.827              2.052
 Vibration    11          0.647              1.812              1.968
 Vibration    12          0.647              1.811              1.963
 Vibration    13          0.698              1.659              1.373
 Vibration    14          0.717              1.604              1.231
 Vibration    15          0.717              1.603              1.231
 Vibration    16          0.764              1.476              0.973
 Vibration    17          0.769              1.461              0.948
 Vibration    18          0.769              1.461              0.947
 Vibration    19          0.783              1.425              0.890
 Vibration    20          0.783              1.425              0.889
 Vibration    21          0.787              1.416              0.876
 Vibration    22          0.796              1.394              0.842
 Vibration    23          0.796              1.393              0.842
 Vibration    24          0.821              1.331              0.756
 Vibration    25          0.888              1.177              0.580
 Vibration    26          0.888              1.177              0.580
 Vibration    27          0.891              1.171              0.575
 Vibration    28          0.967              1.015              0.436

 Optimization completed on the basis of negligible forces.
    -- Stationary point found.
 Normal termination of Gaussian 16 at Sun Aug 23 15:45:54 2020.
 Gaussian 16:  ES64L-G16RevA.03 25-Dec-2016

 ----------------------------------------------------------------------
 # TD(NStates=10, Root=1) B3LYP/6-31G* scf=qc volume pop=NPA density=cu
 rrent Geom=AllCheck Guess=Read
 ----------------------------------------------------------------------

 Structure from the checkpoint file:  "phosphine_5_conf73.chk"
 -------------------
 Title Card Required
 -------------------
 Charge =  0 Multiplicity = 1

                         Standard orientation:
 ---------------------------------------------------------------------
 Center     Atomic      Atomic             Coordinates (Angstroms)
 Number     Number       Type             X           Y           Z
 ---------------------------------------------------------------------
      1          6           0       -2.352409   -3.301209    0.696340
      2          6           0       -1.770860   -2.145223    1.213835
      3          6           0       -0.686397   -1.521673    0.572177
      4          6           0       -0.180653   -2.105859   -0.599994
      5          6           0       -0.743180   -3.269753   -1.125955
      6          6           0       -1.824032   -3.845601   -0.468993
      7          9           0       -2.372282   -4.970335   -0.972404
      8         15           0        0.000705    0.000219    1.374957
      9          6           0        1.662045    0.166448    0.571912
     10          6           0        1.913079    0.889612   -0.605008
     11          6           0        3.202110    0.985086   -1.131211
     12          6           0        4.243117    0.344664   -0.469593
     13          6           0        4.037873   -0.378081    0.700448
     14          6           0        2.746026   -0.453273    1.217996
     15          9           0        5.491155    0.432984   -0.973154
     16          6           0       -0.974255    1.355482    0.571632
     17          6           0       -0.981161    2.603886    1.218083
     18          6           0       -1.692698    3.684603    0.700241
     19          6           0       -2.420012    3.500732   -0.470521
     20          6           0       -2.452407    2.279193   -1.132626
     21          6           0       -1.724789    1.211059   -0.606070
     22          9           0       -3.121040    4.536930   -0.974333
     23          1           0       -3.191183   -3.786841    1.184360
     24          1           0       -2.164475   -1.723164    2.135301
     25          1           0        0.665519   -1.654299   -1.108591
     26          1           0       -0.357045   -3.730950   -2.029362
     27          1           0        1.097330    1.390663   -1.116966
     28          1           0        3.406975    1.544830   -2.038226
     29          1           0        4.879256   -0.855666    1.191906
     30          1           0        2.578685   -0.999618    2.143009
     31          1           0       -0.425273    2.732359    2.143623
     32          1           0       -1.701097    4.651886    1.192022
     33          1           0       -3.038639    2.176550   -2.040237
     34          1           0       -1.749498    0.254190   -1.118322
 ---------------------------------------------------------------------

 SCF Done:  E(RB3LYP) =  -1333.99897621     a.u. after    1 cycles

 Excitation energies and oscillator strengths:

 Excited State   1:      Singlet-A      4.5727 eV  271.14 nm  f=0.1345  <S**2>=0.000
      81 -> 82         0.69345
 This state for optimization and/or second-order correction.
 Total Energy, E(TD-HF/TD-DFT) =  -1333.83093098
 Copying the excited state density for this state as the 1-particle RhoCI density.

 Excited State   2:      Singlet-A      4.5762 eV  270.93 nm  f=0.1356  <S**2>=0.000
      81 -> 83         0.69298

 Excited State   3:      Singlet-A      4.5868 eV  270.31 nm  f=0.0100  <S**2>=0.000
      81 -> 84         0.68834

 Excited State   4:      Singlet-A      4.9051 eV  252.76 nm  f=0.0018  <S**2>=0.000
      81 -> 85         0.67643

 Excited State   5:      Singlet-A      4.9069 eV  252.67 nm  f=0.0017  <S**2>=0.000
      81 -> 86         0.67602

 Excited State   6:      Singlet-A      5.2397 eV  236.62 nm  f=0.0075  <S**2>=0.000
      79 -> 82         0.10603
      80 -> 83        -0.10707
      81 -> 87         0.67228

 Excited State   7:      Singlet-A      5.4167 eV  228.89 nm  f=0.0000  <S**2>=0.000
      75 -> 84        -0.14154
      77 -> 82         0.18149
      78 -> 83        -0.16154
      79 -> 82        -0.27755
      79 -> 83         0.29949
      79 -> 85        -0.15362
      80 -> 82         0.29961
      80 -> 83         0.27266
      80 -> 86         0.14070

 Excited State   8:      Singlet-A      5.4449 eV  227.71 nm  f=0.0019  <S**2>=0.000
      76 -> 82         0.21158
      77 -> 82        -0.11565
      77 -> 83         0.14739
      77 -> 87        -0.12160
      78 -> 82        -0.14771
      78 -> 83        -0.12638
      79 -> 84         0.31051
      79 -> 86        -0.15354
      80 -> 84         0.39216
      80 -> 85         0.15310
      81 -> 85         0.12428

 Excited State   9:      Singlet-A      5.4462 eV  227.65 nm  f=0.0021  <S**2>=0.000
      76 -> 83         0.20811
      77 -> 82         0.13578
      77 -> 83         0.11824
      78 -> 82        -0.12154
      78 -> 83         0.15454
      78 -> 87         0.12138
      79 -> 84         0.38730
      79 -> 85        -0.14631
      80 -> 84        -0.31856
      80 -> 86        -0.16005
      81 -> 86         0.12512

 Excited State  10:      Singlet-A      5.6622 eV  218.97 nm  f=0.0028  <S**2>=0.000
      75 -> 84         0.16318
      76 -> 84        -0.10226
      77 -> 82        -0.24653
      78 -> 83         0.23333
      79 -> 83         0.21713
      79 -> 85         0.22132
      79 -> 86         0.10648
      80 -> 82         0.35532
      80 -> 85         0.10917
      80 -> 86        -0.23773

 The electronic state is 1-A.
 Alpha  occ. eigenvalues --  -77.09285 -24.70935 -24.70934 -24.70929 -10.27932
 Alpha  occ. eigenvalues --  -10.27931 -10.27924 -10.20803 -10.20801 -10.20798
 Alpha  occ. eigenvalues --  -10.20703 -10.20702 -10.20696 -10.20479 -10.20478
 Alpha  occ. eigenvalues --  -10.20477 -10.20319 -10.20318 -10.20312 -10.20310
 Alpha  occ. eigenvalues --  -10.20309 -10.20306  -6.55986  -4.72247  -4.72247
 Alpha  occ. eigenvalues --   -4.71743  -1.22113  -1.22113  -1.22107  -0.87207
 Alpha  occ. eigenvalues --   -0.86557  -0.86553  -0.77802  -0.76322  -0.76286
 Alpha  occ. eigenvalues --   -0.76284  -0.74868  -0.74865  -0.65458  -0.63139
 Alpha  occ. eigenvalues --   -0.62959  -0.62957  -0.60999  -0.60996  -0.57074
 Alpha  occ. eigenvalues --   -0.54666  -0.54664  -0.54254  -0.49447  -0.49443
 Alpha  occ. eigenvalues --   -0.49382  -0.48019  -0.48018  -0.46311  -0.46308
 Alpha  occ. eigenvalues --   -0.46295  -0.45865  -0.44921  -0.44920  -0.43857
 Alpha  occ. eigenvalues --   -0.43706  -0.43704  -0.42082  -0.40157  -0.40108
 Alpha  occ. eigenvalues --   -0.40107  -0.37163  -0.37157  -0.36438  -0.34998
 Alpha  occ. eigenvalues --   -0.34996  -0.34951  -0.33924  -0.33922  -0.27230
 Alpha  occ. eigenvalues --   -0.26848  -0.26601  -0.26596  -0.25428  -0.25419
 Alpha  occ. eigenvalues --   -0.21919
 Alpha virt. eigenvalues --   -0.02515  -0.02507  -0.02413  -0.01176  -0.01168
 Alpha virt. eigenvalues --   -0.00310   0.05876   0.05894   0.08467   0.10088
 Alpha virt. eigenvalues --    0.10090   0.12846   0.13529   0.13531   0.14052

 Mulliken charges:
               1
     1  C   -0.182968
     2  C   -0.162642
     3  C   -0.079969
     4  C   -0.150837
     5  C   -0.185559
     6  C    0.390745
     7  F   -0.282007
     8  P    0.435565
     9  C   -0.125534
    10  C   -0.167073
    11  C   -0.188427
    12  C    0.346254
    13  C   -0.183505
    14  C   -0.180558
    15  F   -0.301724
    16  C   -0.103658
    17  C   -0.154961
    18  C   -0.199446
    19  C    0.356886
    20  C   -0.178473
    21  C   -0.186462
    22  F   -0.298146
    23  H    0.161606
    24  H    0.157889
    25  H    0.180917
    26  H    0.164983
    27  H    0.149713
    28  H    0.142126
    29  H    0.138368
    30  H    0.127914
    31  H    0.139798
    32  H    0.141664
    33  H    0.144010
    34  H    0.133511
 Sum of Mulliken charges =  -0.00000

 Dipole moment (field-independent basis, Debye):
    X=             -1.7527    Y=             -2.8931    Z=              1.4585  Tot=              3.6837
 Quadrupole moment (field-independent basis, Debye-Ang):
   XX=           -144.3421   YY=           -134.6951   ZZ=           -121.8233
   XY=              4.4263   XZ=             -0.4098   YZ=              0.8363

 Summary of Natural Population Analysis:

                                       Natural Population
                Natural  -----------------------------------------------
    Atom  No    Charge         Core      Valence    Rydberg      Total
 -----------------------------------------------------------------------
      C    1   -0.30093      1.99899     4.28705    0.01490     6.30093
      C    2   -0.19632      1.99903     4.18194    0.01536     6.19632
      C    3   -0.39068      1.99891     4.36642    0.02535     6.39068
      C    4   -0.19278      1.99901     4.17772    0.01605     6.19278
      C    5   -0.29957      1.99898     4.28580    0.01479     6.29957
      C    6    0.45468      1.99844     3.51978    0.02710     5.54532
      F    7   -0.31932      1.99994     7.31378    0.00560     9.31932
      P    8    1.21011      9.99756     3.74080    0.05153    13.78989
      C    9   -0.48271      1.99888     4.45722    0.02661     6.48271
      C   10   -0.22634      1.99900     4.21001    0.01732     6.22634
      C   11   -0.30233      1.99899     4.28810    0.01524     6.30233
      C   12    0.38143      1.99844     3.59216    0.02797     5.61857
      C   13   -0.29977      1.99900     4.28563    0.01515     6.29977
      C   14   -0.23080      1.99903     4.21532    0.01645     6.23080
      F   15   -0.33682      1.99994     7.33136    0.00551     9.33682
      C   16   -0.44412      1.99887     4.42081    0.02444     6.44412
      C   17   -0.18573      1.99902     4.17135    0.01535     6.18573
      C   18   -0.33067      1.99899     4.31544    0.01623     6.33067
      C   19    0.40075      1.99844     3.57305    0.02776     5.59925
      C   20   -0.28479      1.99899     4.27102    0.01479     6.28479
      C   21   -0.27133      1.99900     4.25376    0.01857     6.27133
      F   22   -0.33348      1.99994     7.32803    0.00551     9.33348
      H   23    0.25832      0.00000     0.74049    0.00118     0.74168
      H   24    0.24739      0.00000     0.75143    0.00118     0.75261
      H   25    0.26437      0.00000     0.73443    0.00120     0.73563
      H   26    0.26044      0.00000     0.73839    0.00117     0.73956
      H   27    0.24650      0.00000     0.75181    0.00170     0.75350
      H   28    0.24963      0.00000     0.74917    0.00120     0.75037
      H   29    0.24707      0.00000     0.75170    0.00124     0.75293
      H   30    0.23127      0.00000     0.76784    0.00089     0.76873
      H   31    0.23860      0.00000     0.76026    0.00113     0.76140
      H   32    0.24952      0.00000     0.74931    0.00117     0.75048
      H   33    0.25016      0.00000     0.74864    0.00121     0.74984
      H   34    0.23827      0.00000     0.76040    0.00134     0.76173
 =======================================================================
   * Total *    0.00000     51.97740   109.59042    0.43219   162.00000

 Normal termination of Gaussian 16 at Sun Aug 23 16:00:39 2020.
