 Gaussian 16, Revision A.03,

 ---------------------------------
 # opt=CalcAll B3LYP/6-31G* scf=qc
 ---------------------------------

 -------------------
 Title Card Required
 -------------------
 Symbolic Z-matrix:
 Charge =  0 Multiplicity = 1

 SCF Done:  E(RB3LYP) =  -814.894171723     a.u. after    7 cycles
 SCF Done:  E(RB3LYP) =  -814.906806923     a.u. after   15 cycles
 SCF Done:  E(RB3LYP) =  -814.909327306     a.u. after   11 cycles
 SCF Done:  E(RB3LYP) =  -814.910201076     a.u. after   11 cycles
 SCF Done:  E(RB3LYP) =  -814.910308595     a.u. after    9 cycles
 SCF Done:  E(RB3LYP) =  -814.910318117     a.u. after    9 cycles
 SCF Done:  E(RB3LYP) =  -814.910325214     a.u. after    6 cycles
 SCF Done:  E(RB3LYP) =  -814.910325007     a.u. after    2 cycles
 SCF Done:  E(RB3LYP) =  -814.910325094     a.u. after    2 cycles
 Optimization completed.
    -- Stationary point found.
 Normal termination of Gaussian 16 at Sun Aug 23 10:21:03 2020.

 ----------------------------------------------------------------------
 # freq B3LYP/6-31G* scf=qc volume NMR pop=NPA density=current Geom=All
 Check Guess=Read
 ----------------------------------------------------------------------

 Structure from the checkpoint file:  "phosphine_2_conf72.chk"
 -------------------
 Title Card Required
 -------------------
 Charge =  0 Multiplicity = 1

 SCF Done:  E(RB3LYP) =  -814.910325094     a.u. after    1 cycles

      1  C    Isotropic =   173.5526   Anisotropy =    24.8495

      2  C    Isotropic =   164.7305   Anisotropy =    15.9273

      3  C    Isotropic =   160.5920   Anisotropy =    25.5837

      4  C    Isotropic =   162.3961   Anisotropy =    26.9934

      5  H    Isotropic =    30.3448   Anisotropy =     5.1318

      6  H    Isotropic =    30.8177   Anisotropy =     6.1454

      7  P    Isotropic =   400.1585   Anisotropy =    48.6805

      8  C    Isotropic =   165.1500   Anisotropy =    22.3715

      9  H    Isotropic =    30.5614   Anisotropy =     6.9910

     10  H    Isotropic =    30.8817   Anisotropy =     6.6246

     11  C    Isotropic =   166.0040   Anisotropy =    16.2337

     12  C    Isotropic =   164.2111   Anisotropy =    17.0340

     13  C    Isotropic =   175.8387   Anisotropy =    19.0840

     14  C    Isotropic =   161.9715   Anisotropy =    16.6142

     15  H    Isotropic =    30.6500   Anisotropy =     7.0833

     16  H    Isotropic =    30.8390   Anisotropy =     4.2850

     17  C    Isotropic =   160.5179   Anisotropy =    20.2294

     18  C    Isotropic =   163.9114   Anisotropy =    16.9398

     19  C    Isotropic =   176.0762   Anisotropy =    18.7514

     20  H    Isotropic =    31.0700   Anisotropy =    10.2328

     21  H    Isotropic =    31.3409   Anisotropy =     7.7054

     22  H    Isotropic =    31.3112   Anisotropy =     8.4854

     23  H    Isotropic =    30.1573   Anisotropy =     5.6960

     24  H    Isotropic =    30.9172   Anisotropy =     6.4943

     25  H    Isotropic =    30.5416   Anisotropy =     7.7377

     26  H    Isotropic =    30.6888   Anisotropy =     4.4160

     27  H    Isotropic =    30.8893   Anisotropy =     5.5344

     28  H    Isotropic =    30.4455   Anisotropy =     6.5014

     29  H    Isotropic =    30.4574   Anisotropy =     9.0575

     30  H    Isotropic =    30.8450   Anisotropy =     7.0596

     31  H    Isotropic =    31.5020   Anisotropy =     7.9694

     32  H    Isotropic =    31.1492   Anisotropy =    10.5094

     33  H    Isotropic =    30.9513   Anisotropy =     6.1477

     34  H    Isotropic =    30.6942   Anisotropy =     6.2383

     35  H    Isotropic =    30.6924   Anisotropy =     6.0971

     36  H    Isotropic =    30.4758   Anisotropy =     9.1792

     37  H    Isotropic =    30.8061   Anisotropy =     6.6792

     38  H    Isotropic =    31.4457   Anisotropy =     8.3204

     39  H    Isotropic =    31.1578   Anisotropy =    10.3008

     40  H    Isotropic =    30.9534   Anisotropy =     6.0508

  Exact polarizability: 172.637  -0.492 161.574  -1.561  -1.565 126.894
 Approx polarizability: 212.816  -2.353 211.597  -2.142  -4.076 197.964

                      1                      2                      3
                      A                      A                      A
 Frequencies --     19.7936                26.3037                33.2404
 Red. masses --      3.4339                 2.4602                 2.4600
 Frc consts  --      0.0008                 0.0010                 0.0016
 IR Inten    --      0.0333                 0.0179                 0.0017

                      4                      5                      6
                      A                      A                      A
 Frequencies --     46.5016                64.1595                73.3138
 Red. masses --      3.3091                 2.0143                 2.0155
 Frc consts  --      0.0042                 0.0049                 0.0064
 IR Inten    --      0.0025                 0.0206                 0.0658

                      7                      8                      9
                      A                      A                      A
 Frequencies --     87.5751               115.7370               126.3864
 Red. masses --      2.8175                 2.3215                 1.9480
 Frc consts  --      0.0127                 0.0183                 0.0183
 IR Inten    --      0.0910                 0.2035                 0.0511

                     10                     11                     12
                      A                      A                      A
 Frequencies --    138.8939               174.0406               184.9450
 Red. masses --      2.6335                 2.0438                 1.9169
 Frc consts  --      0.0299                 0.0365                 0.0386
 IR Inten    --      0.2131                 0.1519                 0.1306

                     13                     14                     15
                      A                      A                      A
 Frequencies --    206.2074               223.9127               247.3544
 Red. masses --      1.8259                 1.6998                 1.1230
 Frc consts  --      0.0457                 0.0502                 0.0405
 IR Inten    --      0.0260                 0.0867                 0.0223

                     16                     17                     18
                      A                      A                      A
 Frequencies --    258.9906               274.4929               281.8873
 Red. masses --      2.8183                 1.6441                 2.0090
 Frc consts  --      0.1114                 0.0730                 0.0941
 IR Inten    --      0.3633                 0.0087                 0.1549

                     19                     20                     21
                      A                      A                      A
 Frequencies --    288.7175               322.3078               371.7283
 Red. masses --      1.6953                 2.6080                 2.9403
 Frc consts  --      0.0833                 0.1596                 0.2394
 IR Inten    --      0.3653                 0.4491                 0.1953

                     22                     23                     24
                      A                      A                      A
 Frequencies --    429.1187               439.6095               486.5339
 Red. masses --      2.4763                 2.7028                 2.9012
 Frc consts  --      0.2687                 0.3078                 0.4046
 IR Inten    --      1.1815                 2.2101                 1.3273

                     25                     26                     27
                      A                      A                      A
 Frequencies --    623.0467               688.5687               696.0737
 Red. masses --      3.0048                 1.6466                 2.6425
 Frc consts  --      0.6872                 0.4600                 0.7543
 IR Inten    --      3.4732                 0.3486                 7.4199

                     28                     29                     30
                      A                      A                      A
 Frequencies --    726.0050               753.2207               767.6511
 Red. masses --      1.3345                 1.2343                 1.7295
 Frc consts  --      0.4144                 0.4126                 0.6005
 IR Inten    --     15.2246                 3.6952                 5.4630

                     31                     32                     33
                      A                      A                      A
 Frequencies --    787.1644               789.5988               801.7407
 Red. masses --      1.2942                 1.3619                 1.6344
 Frc consts  --      0.4725                 0.5003                 0.6190
 IR Inten    --      4.8837                 0.5972                 5.0624

                     34                     35                     36
                      A                      A                      A
 Frequencies --    870.7335               876.1586               888.3756
 Red. masses --      2.3114                 2.4295                 1.4267
 Frc consts  --      1.0325                 1.0988                 0.6634
 IR Inten    --      0.3218                 0.4445                 0.7336

                     37                     38                     39
                      A                      A                      A
 Frequencies --    910.0683               923.5653               935.4119
 Red. masses --      1.4444                 1.3432                 1.5144
 Frc consts  --      0.7048                 0.6750                 0.7807
 IR Inten    --      2.6470                 9.8241                 8.7664

                     40                     41                     42
                      A                      A                      A
 Frequencies --    984.0752               985.9896              1013.2543
 Red. masses --      2.0068                 1.9942                 2.7805
 Frc consts  --      1.1450                 1.1423                 1.6819
 IR Inten    --      1.5284                 8.4156                 2.1185

                     43                     44                     45
                      A                      A                      A
 Frequencies --   1060.6943              1066.3220              1069.3549
 Red. masses --      1.3875                 1.5329                 1.8931
 Frc consts  --      0.9198                 1.0269                 1.2755
 IR Inten    --      0.9101                 1.0756                 0.1721

                     46                     47                     48
                      A                      A                      A
 Frequencies --   1079.4847              1085.4168              1089.4423
 Red. masses --      1.9976                 2.0029                 1.3569
 Frc consts  --      1.3715                 1.3903                 0.9489
 IR Inten    --      2.9202                 0.3154                 6.3586

                     49                     50                     51
                      A                      A                      A
 Frequencies --   1114.7113              1119.1011              1125.9420
 Red. masses --      1.7123                 1.6777                 1.7559
 Frc consts  --      1.2536                 1.2379                 1.3116
 IR Inten    --      0.3937                 2.1316                 5.6364

                     52                     53                     54
                      A                      A                      A
 Frequencies --   1221.4870              1228.2518              1235.4446
 Red. masses --      1.4982                 1.4749                 1.3976
 Frc consts  --      1.3170                 1.3110                 1.2569
 IR Inten    --      4.7217                 2.9994                 2.9509

                     55                     56                     57
                      A                      A                      A
 Frequencies --   1250.5994              1259.8661              1267.3356
 Red. masses --      1.3853                 1.4176                 1.3457
 Frc consts  --      1.2765                 1.3257                 1.2735
 IR Inten    --      3.9266                 0.8257                 1.9278

                     58                     59                     60
                      A                      A                      A
 Frequencies --   1316.5224              1319.3793              1321.3962
 Red. masses --      1.2268                 1.2027                 1.2321
 Frc consts  --      1.2528                 1.2335                 1.2676
 IR Inten    --      1.0949                 2.4913                 1.2474

                     61                     62                     63
                      A                      A                      A
 Frequencies --   1337.9986              1339.6704              1344.2753
 Red. masses --      1.1527                 1.1353                 1.2655
 Frc consts  --      1.2158                 1.2005                 1.3474
 IR Inten    --      2.1983                 2.1984                 9.8504

                     64                     65                     66
                      A                      A                      A
 Frequencies --   1351.3225              1390.7292              1395.0685
 Red. masses --      1.1203                 1.4128                 1.4142
 Frc consts  --      1.2053                 1.6100                 1.6217
 IR Inten    --      0.2915                 0.8948                 1.2943

                     67                     68                     69
                      A                      A                      A
 Frequencies --   1397.7241              1399.5541              1418.0867
 Red. masses --      1.3349                 1.3240                 1.5286
 Frc consts  --      1.5365                 1.5280                 1.8112
 IR Inten    --     11.6820                 9.1777                 3.2180

                     70                     71                     72
                      A                      A                      A
 Frequencies --   1440.7992              1442.5597              1442.7435
 Red. masses --      1.2418                 1.2591                 1.2607
 Frc consts  --      1.5188                 1.5438                 1.5461
 IR Inten    --      0.9823                 1.2374                10.8278

                     73                     74                     75
                      A                      A                      A
 Frequencies --   1490.6172              1493.6065              1497.7260
 Red. masses --      1.0864                 1.0855                 1.0864
 Frc consts  --      1.4222                 1.4268                 1.4358
 IR Inten    --      1.9824                 0.6688                10.0103

                     76                     77                     78
                      A                      A                      A
 Frequencies --   1516.4015              1516.9244              1518.5593
 Red. masses --      1.0737                 1.0708                 1.0678
 Frc consts  --      1.4547                 1.4517                 1.4507
 IR Inten    --      1.8453                 1.1336                 0.2464

                     79                     80                     81
                      A                      A                      A
 Frequencies --   1519.7657              1520.4683              1526.8985
 Red. masses --      1.0750                 1.0809                 1.0688
 Frc consts  --      1.4628                 1.4723                 1.4681
 IR Inten    --      2.3084                 1.4449                 1.1941

                     82                     83                     84
                      A                      A                      A
 Frequencies --   1529.9922              1532.4268              1532.5038
 Red. masses --      1.0411                 1.0531                 1.0534
 Frc consts  --      1.4359                 1.4571                 1.4576
 IR Inten    --      5.9672                 4.7626                 4.6008

                     85                     86                     87
                      A                      A                      A
 Frequencies --   1538.3849              1538.6024              1541.4960
 Red. masses --      1.0607                 1.0601                 1.0841
 Frc consts  --      1.4791                 1.4786                 1.5178
 IR Inten    --      7.9772                 2.8772                 3.6987

                     88                     89                     90
                      A                      A                      A
 Frequencies --   3015.3882              3022.0013              3024.5037
 Red. masses --      1.0596                 1.0596                 1.0607
 Frc consts  --      5.6762                 5.7013                 5.7170
 IR Inten    --     17.8918                 9.7546                28.2262

                     91                     92                     93
                      A                      A                      A
 Frequencies --   3026.2200              3028.2822              3029.9420
 Red. masses --      1.0628                 1.0655                 1.0683
 Frc consts  --      5.7344                 5.7570                 5.7784
 IR Inten    --     31.1326                20.2461                20.9083

                     94                     95                     96
                      A                      A                      A
 Frequencies --   3031.9640              3032.4071              3038.0172
 Red. masses --      1.0630                 1.0611                 1.0651
 Frc consts  --      5.7572                 5.7488                 5.7921
 IR Inten    --     14.2821                 4.8186                19.7012

                     97                     98                     99
                      A                      A                      A
 Frequencies --   3039.5339              3043.4559              3043.9449
 Red. masses --      1.0371                 1.0390                 1.0378
 Frc consts  --      5.6451                 5.6704                 5.6655
 IR Inten    --     42.7075                16.8954                26.7147

                    100                    101                    102
                      A                      A                      A
 Frequencies --   3047.3764              3057.0550              3059.2261
 Red. masses --      1.0882                 1.0974                 1.0957
 Frc consts  --      5.9542                 6.0424                 6.0418
 IR Inten    --     39.9098                16.2379                32.7121

                    103                    104                    105
                      A                      A                      A
 Frequencies --   3061.7203              3064.4057              3072.9221
 Red. masses --      1.1005                 1.1001                 1.1000
 Frc consts  --      6.0782                 6.0868                 6.1200
 IR Inten    --     20.0783                 3.1018                22.5430

                    106                    107                    108
                      A                      A                      A
 Frequencies --   3076.2321              3083.5562              3085.8912
 Red. masses --      1.1021                 1.1034                 1.1031
 Frc consts  --      6.1446                 6.1815                 6.1891
 IR Inten    --     34.9329                63.7130                43.6685

                    109                    110                    111
                      A                      A                      A
 Frequencies --   3104.7019              3107.1595              3107.9805
 Red. masses --      1.1029                 1.1013                 1.1017
 Frc consts  --      6.2634                 6.2646                 6.2702
 IR Inten    --     66.5900                47.6132                47.2999

                    112                    113                    114
                      A                      A                      A
 Frequencies --   3110.5359              3114.3420              3115.5168
 Red. masses --      1.1014                 1.1018                 1.1018
 Frc consts  --      6.2787                 6.2961                 6.3010
 IR Inten    --     40.3413                58.9546                46.4771

 - Thermochemistry -
 -------------------
 Temperature   298.150 Kelvin.  Pressure   1.00000 Atm.
 Atom     1 has atomic number  6 and mass  12.00000

 Molecular mass:   202.18504 amu.
 Principal axes and moments of inertia in atomic units:
                           1         2         3
     Eigenvalues --  3532.424214740.328437694.83851
           X            0.99995   0.00978  -0.00054
           Y           -0.00978   0.99995  -0.00363
           Z            0.00050   0.00363   0.99999
 This molecule is an asymmetric top.
 Rotational symmetry number  1.
 Warning -- assumption of classical behavior for rotation
           may cause significant error
 Rotational temperatures (Kelvin)      0.02452     0.01827     0.01126
 Rotational constants (GHZ):           0.51091     0.38072     0.23454
 Zero-point vibrational energy     976944.7 (Joules/Mol)
                                  233.49538 (Kcal/Mol)
 Warning -- explicit consideration of  24 degrees of freedom as
           vibrations may cause significant error
 Vibrational temperatures:     28.48    37.85    47.83    66.91    92.31
          (Kelvin)            105.48   126.00   166.52   181.84   199.84
                              250.41   266.09   296.69   322.16   355.89
                              372.63   394.93   405.57   415.40   463.73
                              534.83   617.41   632.50   700.01   896.43
                              990.70  1001.49  1044.56  1083.72  1104.48
                             1132.55  1136.06  1153.53  1252.79  1260.60
                             1278.17  1309.39  1328.80  1345.85  1415.86
                             1418.62  1457.85  1526.10  1534.20  1538.56
                             1553.14  1561.67  1567.46  1603.82  1610.14
                             1619.98  1757.45  1767.18  1777.53  1799.33
                             1812.67  1823.41  1894.18  1898.29  1901.19
                             1925.08  1927.49  1934.11  1944.25  2000.95
                             2007.19  2011.01  2013.65  2040.31  2072.99
                             2075.52  2075.79  2144.67  2148.97  2154.89
                             2181.76  2182.52  2184.87  2186.60  2187.61
                             2196.87  2201.32  2204.82  2204.93  2213.39
                             2213.71  2217.87  4338.47  4347.99  4351.59
                             4354.06  4357.02  4359.41  4362.32  4362.96
                             4371.03  4373.21  4378.85  4379.56  4384.49
                             4398.42  4401.54  4405.13  4409.00  4421.25
                             4426.01  4436.55  4439.91  4466.97  4470.51
                             4471.69  4475.37  4480.84  4482.53

 Zero-point correction=                           0.372099 (Hartree/Particle)
 Thermal correction to Energy=                    0.390764
 Thermal correction to Enthalpy=                  0.391708
 Thermal correction to Gibbs Free Energy=         0.322480
 Sum of electronic and zero-point Energies=           -814.538227
 Sum of electronic and thermal Energies=              -814.519561
 Sum of electronic and thermal Enthalpies=            -814.518617
 Sum of electronic and thermal Free Energies=         -814.587845

                     E (Thermal)             CV                S
                      KCal/Mol        Cal/Mol-Kelvin    Cal/Mol-Kelvin
 Total                  245.208             66.287            145.704
 Electronic               0.000              0.000              0.000
 Translational            0.889              2.981             41.817
 Rotational               0.889              2.981             33.221
 Vibrational            243.431             60.326             70.666
 Vibration     1          0.593              1.986              6.655
 Vibration     2          0.593              1.985              6.090
 Vibration     3          0.594              1.983              5.626
 Vibration     4          0.595              1.979              4.961
 Vibration     5          0.597              1.971              4.325
 Vibration     6          0.599              1.967              4.062
 Vibration     7          0.601              1.958              3.714
 Vibration     8          0.608              1.936              3.170
 Vibration     9          0.611              1.927              3.000
 Vibration    10          0.615              1.914              2.819
 Vibration    11          0.627              1.874              2.391
 Vibration    12          0.631              1.860              2.278
 Vibration    13          0.641              1.831              2.077
 Vibration    14          0.649              1.805              1.927
 Vibration    15          0.661              1.767              1.749
 Vibration    16          0.668              1.748              1.669
 Vibration    17          0.677              1.720              1.568
 Vibration    18          0.681              1.707              1.522
 Vibration    19          0.685              1.695              1.481
 Vibration    20          0.707              1.631              1.298
 Vibration    21          0.743              1.530              1.073
 Vibration    22          0.790              1.407              0.862
 Vibration    23          0.800              1.384              0.828
 Vibration    24          0.843              1.280              0.693

 Optimization completed.
    -- Stationary point found.
 Normal termination of Gaussian 16 at Sun Aug 23 10:28:40 2020.
 Gaussian 16:  ES64L-G16RevA.03 25-Dec-2016

 ----------------------------------------------------------------------
 # TD(NStates=10, Root=1) B3LYP/6-31G* scf=qc volume pop=NPA density=cu
 rrent Geom=AllCheck Guess=Read
 ----------------------------------------------------------------------

 Structure from the checkpoint file:  "phosphine_2_conf73.chk"
 -------------------
 Title Card Required
 -------------------
 Charge =  0 Multiplicity = 1

                         Standard orientation:
 ---------------------------------------------------------------------
 Center     Atomic      Atomic             Coordinates (Angstroms)
 Number     Number       Type             X           Y           Z
 ---------------------------------------------------------------------
      1          6           0       -4.676469   -1.929813   -0.379028
      2          6           0       -3.147057   -1.961633   -0.296051
      3          6           0       -2.585055   -0.965608    0.728027
      4          6           0       -1.051835   -0.986721    0.869249
      5          1           0       -0.749422   -0.399186    1.745842
      6          1           0       -0.722579   -2.017397    1.059508
      7         15           0       -0.110545   -0.405668   -0.653847
      8          6           0       -0.423074    1.451390   -0.629040
      9          1           0        0.179872    1.847774   -1.456508
     10          1           0       -1.468278    1.588076   -0.940911
     11          6           0       -0.159731    2.252665    0.655120
     12          6           0       -0.502226    3.750262    0.537492
     13          6           0        0.384998    4.532136   -0.438234
     14          6           0        1.644555   -0.484367    0.012566
     15          1           0        2.240664    0.197330   -0.607991
     16          1           0        1.693374   -0.101273    1.041561
     17          6           0        2.239026   -1.901637   -0.046003
     18          6           0        3.673689   -2.007745    0.501550
     19          6           0        4.722400   -1.241298   -0.312754
     20          1           0       -5.052159   -2.655053   -1.109789
     21          1           0       -5.037197   -0.938255   -0.679963
     22          1           0       -5.133255   -2.166405    0.590243
     23          1           0       -2.718513   -1.755424   -1.284840
     24          1           0       -2.814955   -2.974861   -0.027564
     25          1           0       -3.027039   -1.183636    1.711427
     26          1           0       -2.922696    0.049037    0.470815
     27          1           0        0.894166    2.152025    0.948240
     28          1           0       -0.749107    1.829102    1.478282
     29          1           0       -0.419759    4.204576    1.534451
     30          1           0       -1.555635    3.857028    0.241124
     31          1           0        1.444026    4.445887   -0.163633
     32          1           0        0.127575    5.597469   -0.435979
     33          1           0        0.278944    4.172314   -1.467771
     34          1           0        2.218043   -2.260642   -1.084302
     35          1           0        1.599404   -2.588311    0.525263
     36          1           0        3.954892   -3.069196    0.534203
     37          1           0        3.690340   -1.656738    1.543428
     38          1           0        4.729697   -1.574041   -1.358352
     39          1           0        5.728068   -1.399284    0.093411
     40          1           0        4.534383   -0.161669   -0.309864
 ---------------------------------------------------------------------

 SCF Done:  E(RB3LYP) =  -814.910325094     a.u. after    1 cycles

 Excitation energies and oscillator strengths:

 Excited State   1:      Singlet-A      6.4401 eV  192.52 nm  f=0.1135  <S**2>=0.000
      57 -> 58         0.69584
 This state for optimization and/or second-order correction.
 Total Energy, E(TD-HF/TD-DFT) =  -814.673653955
 Copying the excited state density for this state as the 1-particle RhoCI density.

 Excited State   2:      Singlet-A      6.7847 eV  182.74 nm  f=0.1247  <S**2>=0.000
      57 -> 59         0.69261

 Excited State   3:      Singlet-A      6.9916 eV  177.33 nm  f=0.0132  <S**2>=0.000
      57 -> 60         0.70048

 Excited State   4:      Singlet-A      7.6305 eV  162.48 nm  f=0.0038  <S**2>=0.000
      57 -> 61         0.63615
      57 -> 62        -0.15174
      57 -> 63        -0.20358
      57 -> 65         0.14018

 Excited State   5:      Singlet-A      7.7446 eV  160.09 nm  f=0.0106  <S**2>=0.000
      57 -> 62         0.54707
      57 -> 63        -0.41087

 Excited State   6:      Singlet-A      7.8449 eV  158.04 nm  f=0.0500  <S**2>=0.000
      57 -> 61         0.25373
      57 -> 62         0.38137
      57 -> 63         0.51745

 Excited State   7:      Singlet-A      7.9979 eV  155.02 nm  f=0.0023  <S**2>=0.000
      57 -> 64         0.68339

 Excited State   8:      Singlet-A      8.1392 eV  152.33 nm  f=0.0225  <S**2>=0.000
      55 -> 58         0.11437
      57 -> 61        -0.11587
      57 -> 65         0.66111

 Excited State   9:      Singlet-A      8.3600 eV  148.31 nm  f=0.0141  <S**2>=0.000
      55 -> 58         0.51922
      56 -> 58        -0.19441
      56 -> 59        -0.23928
      57 -> 66         0.34188

 Excited State  10:      Singlet-A      8.3780 eV  147.99 nm  f=0.0053  <S**2>=0.000
      55 -> 58        -0.25890
      56 -> 58         0.12513
      56 -> 59         0.18986
      57 -> 66         0.59439

 The electronic state is 1-A.
 Alpha  occ. eigenvalues --  -77.06265 -10.18082 -10.18040 -10.18034 -10.18025
 Alpha  occ. eigenvalues --  -10.17947 -10.17942 -10.17919 -10.17864 -10.17360
 Alpha  occ. eigenvalues --  -10.17264 -10.17124 -10.16920  -6.53040  -4.69301
 Alpha  occ. eigenvalues --   -4.69286  -4.68784  -0.79953  -0.78892  -0.78690
 Alpha  occ. eigenvalues --   -0.74049  -0.71356  -0.71265  -0.65686  -0.63480
 Alpha  occ. eigenvalues --   -0.62522  -0.57861  -0.57040  -0.56585  -0.51547
 Alpha  occ. eigenvalues --   -0.46647  -0.45654  -0.45212  -0.44514  -0.43674
 Alpha  occ. eigenvalues --   -0.42311  -0.41854  -0.41452  -0.41391  -0.39234
 Alpha  occ. eigenvalues --   -0.38680  -0.38128  -0.36936  -0.36393  -0.36074
 Alpha  occ. eigenvalues --   -0.35093  -0.34086  -0.33263  -0.32802  -0.32765
 Alpha  occ. eigenvalues --   -0.32471  -0.32385  -0.32160  -0.31670  -0.29045
 Alpha  occ. eigenvalues --   -0.28761  -0.21022
 Alpha virt. eigenvalues --    0.05579   0.06741   0.07751   0.10031   0.10430
 Alpha virt. eigenvalues --    0.10742   0.11557   0.11680   0.12386   0.13734
 Alpha virt. eigenvalues --    0.14291   0.14761   0.14826   0.15645   0.16199

 Mulliken charges:
               1
     1  C   -0.436632
     2  C   -0.224605
     3  C   -0.205951
     4  C   -0.435934
     5  H    0.185911
     6  H    0.172915
     7  P    0.342390
     8  C   -0.393809
     9  H    0.147009
    10  H    0.147905
    11  C   -0.264941
    12  C   -0.245185
    13  C   -0.438925
    14  C   -0.420899
    15  H    0.141367
    16  H    0.150807
    17  C   -0.230592
    18  C   -0.243624
    19  C   -0.432188
    20  H    0.135647
    21  H    0.134236
    22  H    0.136062
    23  H    0.111930
    24  H    0.110026
    25  H    0.094857
    26  H    0.096027
    27  H    0.143345
    28  H    0.133092
    29  H    0.136459
    30  H    0.136811
    31  H    0.140595
    32  H    0.141630
    33  H    0.141192
    34  H    0.122897
    35  H    0.119591
    36  H    0.125326
    37  H    0.122972
    38  H    0.136821
    39  H    0.134890
    40  H    0.130575
 Sum of Mulliken charges =  -0.00000

 Dipole moment (field-independent basis, Debye):
    X=              0.8637    Y=              0.9610    Z=              0.8163  Tot=              1.5283
 Quadrupole moment (field-independent basis, Debye-Ang):
   XX=           -103.3423   YY=            -95.1534   ZZ=            -95.0017
   XY=             -0.9277   XZ=             -0.6511   YZ=             -0.0190

 Summary of Natural Population Analysis:

                                       Natural Population
                Natural  -----------------------------------------------
    Atom  No    Charge         Core      Valence    Rydberg      Total
 -----------------------------------------------------------------------
      C    1   -0.67356      1.99946     4.66608    0.00801     6.67356
      C    2   -0.45904      1.99935     4.44801    0.01169     6.45904
      C    3   -0.46720      1.99931     4.45283    0.01505     6.46720
      C    4   -0.75806      1.99929     4.73983    0.01894     6.75806
      H    5    0.27121      0.00000     0.72642    0.00237     0.72879
      H    6    0.25244      0.00000     0.74487    0.00269     0.74756
      P    7    1.04417      9.99767     3.84819    0.10997    13.95583
      C    8   -0.81137      1.99930     4.79437    0.01770     6.81137
      H    9    0.23840      0.00000     0.75696    0.00464     0.76160
      H   10    0.25109      0.00000     0.73703    0.01188     0.74891
      C   11   -0.45413      1.99929     4.44220    0.01263     6.45413
      C   12   -0.44985      1.99934     4.43924    0.01127     6.44985
      C   13   -0.67965      1.99946     4.67225    0.00795     6.67965
      C   14   -0.85378      1.99932     4.82916    0.02530     6.85378
      H   15    0.23655      0.00000     0.75889    0.00456     0.76345
      H   16    0.24545      0.00000     0.74951    0.00503     0.75455
      C   17   -0.46090      1.99933     4.44915    0.01241     6.46090
      C   18   -0.45328      1.99935     4.44273    0.01120     6.45328
      C   19   -0.67800      1.99946     4.67067    0.00787     6.67800
      H   20    0.22769      0.00000     0.77062    0.00169     0.77231
      H   21    0.21917      0.00000     0.77674    0.00409     0.78083
      H   22    0.22186      0.00000     0.77578    0.00236     0.77814
      H   23    0.20778      0.00000     0.78037    0.01185     0.79222
      H   24    0.21423      0.00000     0.78003    0.00574     0.78577
      H   25    0.21089      0.00000     0.77711    0.01201     0.78911
      H   26    0.20309      0.00000     0.78106    0.01585     0.79691
      H   27    0.23035      0.00000     0.76759    0.00206     0.76965
      H   28    0.22343      0.00000     0.77163    0.00494     0.77657
      H   29    0.23633      0.00000     0.76112    0.00256     0.76367
      H   30    0.22935      0.00000     0.76765    0.00300     0.77065
      H   31    0.22351      0.00000     0.77513    0.00136     0.77649
      H   32    0.23156      0.00000     0.76649    0.00195     0.76844
      H   33    0.22119      0.00000     0.77539    0.00342     0.77881
      H   34    0.22199      0.00000     0.77191    0.00611     0.77801
      H   35    0.22267      0.00000     0.77319    0.00414     0.77733
      H   36    0.22810      0.00000     0.76849    0.00341     0.77190
      H   37    0.22245      0.00000     0.77411    0.00344     0.77755
      H   38    0.22153      0.00000     0.77622    0.00226     0.77847
      H   39    0.22680      0.00000     0.77092    0.00227     0.77320
      H   40    0.21553      0.00000     0.77976    0.00470     0.78447
 =======================================================================
   * Total *   -0.00000     33.98993    79.60971    0.40036   114.00000

 Normal termination of Gaussian 16 at Sun Aug 23 10:37:30 2020.
