 Gaussian 16, Revision A.03,

 ---------------------------------
 # opt=CalcAll B3LYP/6-31G* scf=qc
 ---------------------------------

 -------------------
 Title Card Required
 -------------------
 Symbolic Z-matrix:
 Charge =  0 Multiplicity = 1

 SCF Done:  E(RB3LYP) =  -1029.60160486     a.u. after    9 cycles
 SCF Done:  E(RB3LYP) =  -1029.61705784     a.u. after   17 cycles
 SCF Done:  E(RB3LYP) =  -1029.62067107     a.u. after   19 cycles
 SCF Done:  E(RB3LYP) =  -1029.62235048     a.u. after   15 cycles
 SCF Done:  E(RB3LYP) =  -1029.62432610     a.u. after   19 cycles
 SCF Done:  E(RB3LYP) =  -1029.62474144     a.u. after   13 cycles
 SCF Done:  E(RB3LYP) =  -1029.62205676     a.u. after   19 cycles
 SCF Done:  E(RB3LYP) =  -1029.62353199     a.u. after   14 cycles
 SCF Done:  E(RB3LYP) =  -1029.62480884     a.u. after    4 cycles
 SCF Done:  E(RB3LYP) =  -1029.62487285     a.u. after   11 cycles
 SCF Done:  E(RB3LYP) =  -1029.62487423     a.u. after    7 cycles
 SCF Done:  E(RB3LYP) =  -1029.62487518     a.u. after    5 cycles
 SCF Done:  E(RB3LYP) =  -1029.62487731     a.u. after    2 cycles
 SCF Done:  E(RB3LYP) =  -1029.62487176     a.u. after    2 cycles
 SCF Done:  E(RB3LYP) =  -1029.62487556     a.u. after    2 cycles
 SCF Done:  E(RB3LYP) =  -1029.62487649     a.u. after    2 cycles
 SCF Done:  E(RB3LYP) =  -1029.62487324     a.u. after    3 cycles
 Optimization completed.
    -- Stationary point found.
 Normal termination of Gaussian 16 at Sun Aug 23 15:29:48 2020.

 ----------------------------------------------------------------------
 # freq B3LYP/6-31G* scf=qc volume NMR pop=NPA density=current Geom=All
 Check Guess=Read
 ----------------------------------------------------------------------

 Structure from the checkpoint file:  "phosphine_9_conf292.chk"
 -------------------
 Title Card Required
 -------------------
 Charge =  0 Multiplicity = 1

 SCF Done:  E(RB3LYP) =  -1029.62487324     a.u. after    1 cycles

      1  C    Isotropic =    84.7323   Anisotropy =   121.0739

      2  C    Isotropic =    75.8573   Anisotropy =   132.6727

      3  C    Isotropic =    43.3913   Anisotropy =    89.2637

      4  O    Isotropic =    39.8379   Anisotropy =   300.8631

      5  C    Isotropic =    50.6668   Anisotropy =    98.8892

      6  P    Isotropic =   433.0458   Anisotropy =    38.0203

      7  C    Isotropic =    43.4242   Anisotropy =    89.2754

      8  C    Isotropic =    75.8475   Anisotropy =   132.7285

      9  C    Isotropic =    84.7486   Anisotropy =   121.1795

     10  C    Isotropic =    50.6800   Anisotropy =    98.9356

     11  O    Isotropic =    39.8638   Anisotropy =   300.9506

     12  C    Isotropic =    43.4209   Anisotropy =    89.2853

     13  C    Isotropic =    75.8691   Anisotropy =   132.7472

     14  C    Isotropic =    84.7240   Anisotropy =   121.1105

     15  C    Isotropic =    50.6872   Anisotropy =    98.9082

     16  O    Isotropic =    39.8784   Anisotropy =   300.9695

     17  H    Isotropic =    26.0653   Anisotropy =     2.3692

     18  H    Isotropic =    25.9763   Anisotropy =     7.4860

     19  H    Isotropic =    24.7867   Anisotropy =     3.5215

     20  H    Isotropic =    25.9762   Anisotropy =     7.4837

     21  H    Isotropic =    26.0616   Anisotropy =     2.3666

     22  H    Isotropic =    24.7858   Anisotropy =     3.5209

     23  H    Isotropic =    25.9755   Anisotropy =     7.4920

     24  H    Isotropic =    26.0638   Anisotropy =     2.3655

     25  H    Isotropic =    24.7865   Anisotropy =     3.5219

  Exact polarizability: 162.545  -0.013 162.525   0.004   0.012 116.185
 Approx polarizability: 231.403  -0.033 231.372   0.007   0.035 223.174

                      1                      2                      3
                      A                      A                      A
 Frequencies --     37.3845                37.5837                55.2519
 Red. masses --      4.8367                 4.8392                 4.5714
 Frc consts  --      0.0040                 0.0040                 0.0082
 IR Inten    --      0.1558                 0.1525                 0.1430

                      4                      5                      6
                      A                      A                      A
 Frequencies --     58.4537                58.5046                77.0657
 Red. masses --      5.3960                 5.3980                 5.3493
 Frc consts  --      0.0109                 0.0109                 0.0187
 IR Inten    --      0.3696                 0.3684                 0.4485

                      7                      8                      9
                      A                      A                      A
 Frequencies --    201.8410               222.1167               222.2836
 Red. masses --      5.6703                 5.6193                 5.6187
 Frc consts  --      0.1361                 0.1633                 0.1636
 IR Inten    --      0.5751                 2.6651                 2.6617

                     10                     11                     12
                      A                      A                      A
 Frequencies --    279.8531               294.3785               294.5144
 Red. masses --      8.1160                 6.4469                 6.4466
 Frc consts  --      0.3745                 0.3292                 0.3295
 IR Inten    --      2.9435                 2.5662                 2.5672

                     13                     14                     15
                      A                      A                      A
 Frequencies --    479.9367               495.4372               495.5850
 Red. masses --     10.9424                13.6875                13.6879
 Frc consts  --      1.4850                 1.9795                 1.9807
 IR Inten    --     22.5466                38.1471                38.1767

                     16                     17                     18
                      A                      A                      A
 Frequencies --    611.4354               611.4613               612.0735
 Red. masses --      3.2810                 3.2825                 3.2721
 Frc consts  --      0.7227                 0.7231                 0.7222
 IR Inten    --      9.0081                 9.0075                 3.6080

                     19                     20                     21
                      A                      A                      A
 Frequencies --    658.9142               658.9730               664.3155
 Red. masses --      6.1346                 6.1384                 6.4755
 Frc consts  --      1.5693                 1.5705                 1.6837
 IR Inten    --      5.8199                 5.8161                 0.6531

                     22                     23                     24
                      A                      A                      A
 Frequencies --    755.6306               756.0112               756.0444
 Red. masses --      1.2877                 1.2873                 1.2872
 Frc consts  --      0.4332                 0.4335                 0.4335
 IR Inten    --     33.8502                46.0496                46.1153

                     25                     26                     27
                      A                      A                      A
 Frequencies --    826.8025               826.9035               829.5823
 Red. masses --      1.2422                 1.2421                 1.2353
 Frc consts  --      0.5003                 0.5004                 0.5009
 IR Inten    --     12.0396                12.0080                 4.8001

                     28                     29                     30
                      A                      A                      A
 Frequencies --    878.8448               878.9331               882.4137
 Red. masses --      1.3009                 1.3006                 1.2980
 Frc consts  --      0.5920                 0.5920                 0.5955
 IR Inten    --      1.5956                 1.6234                 0.1952

                     31                     32                     33
                      A                      A                      A
 Frequencies --    900.0594               900.0661               900.1238
 Red. masses --      6.2450                 6.2410                 6.1227
 Frc consts  --      2.9807                 2.9789                 2.9228
 IR Inten    --      3.4487                 3.4560                 3.7496

                     34                     35                     36
                      A                      A                      A
 Frequencies --    924.1918               925.9157               925.9453
 Red. masses --      4.7032                 4.7157                 4.7160
 Frc consts  --      2.3668                 2.3820                 2.3823
 IR Inten    --     14.8551                 3.5992                 3.5938

                     37                     38                     39
                      A                      A                      A
 Frequencies --   1035.6057              1035.7025              1037.6190
 Red. masses --      1.4145                 1.4141                 1.3871
 Frc consts  --      0.8938                 0.8937                 0.8799
 IR Inten    --     14.0215                13.9567                52.2158

                     40                     41                     42
                      A                      A                      A
 Frequencies --   1103.9033              1103.9646              1106.0713
 Red. masses --      2.2011                 2.2015                 2.1795
 Frc consts  --      1.5804                 1.5808                 1.5710
 IR Inten    --      1.1638                 1.1610                 1.5596

                     43                     44                     45
                      A                      A                      A
 Frequencies --   1140.7561              1140.8049              1147.5392
 Red. masses --      5.6030                 5.6030                 4.7310
 Frc consts  --      4.2959                 4.2963                 3.6706
 IR Inten    --      2.4553                 2.4443                24.8249

                     46                     47                     48
                      A                      A                      A
 Frequencies --   1197.1535              1197.1695              1200.8361
 Red. masses --      2.2395                 2.2405                 2.4369
 Frc consts  --      1.8910                 1.8920                 2.0704
 IR Inten    --      9.3548                 9.3463                 1.1784

                     49                     50                     51
                      A                      A                      A
 Frequencies --   1249.3030              1249.3412              1250.0382
 Red. masses --      1.6668                 1.6661                 1.7085
 Frc consts  --      1.5327                 1.5322                 1.5730
 IR Inten    --     19.0211                19.1454                 4.4470

                     52                     53                     54
                      A                      A                      A
 Frequencies --   1417.8338              1417.8593              1419.6085
 Red. masses --      2.5687                 2.5689                 2.5346
 Frc consts  --      3.0424                 3.0427                 3.0096
 IR Inten    --      1.0919                 1.0911                 3.8751

                     55                     56                     57
                      A                      A                      A
 Frequencies --   1490.2724              1496.6095              1496.6300
 Red. masses --      5.5382                 5.4217                 5.4238
 Frc consts  --      7.2469                 7.1549                 7.1578
 IR Inten    --     15.7598                11.2278                11.1857

                     58                     59                     60
                      A                      A                      A
 Frequencies --   1605.0104              1607.2741              1607.2882
 Red. masses --      4.8355                 4.8718                 4.8709
 Frc consts  --      7.3391                 7.4151                 7.4139
 IR Inten    --      3.4939                 1.6417                 1.6347

                     61                     62                     63
                      A                      A                      A
 Frequencies --   3264.4556              3264.5101              3264.6663
 Red. masses --      1.0904                 1.0904                 1.0904
 Frc consts  --      6.8461                 6.8463                 6.8470
 IR Inten    --      5.2487                 5.1428                 1.6997

                     64                     65                     66
                      A                      A                      A
 Frequencies --   3280.1082              3280.1406              3280.3415
 Red. masses --      1.0971                 1.0972                 1.0971
 Frc consts  --      6.9548                 6.9553                 6.9559
 IR Inten    --      0.9665                 0.5066                 0.6533

                     67                     68                     69
                      A                      A                      A
 Frequencies --   3299.1079              3299.1248              3299.1702
 Red. masses --      1.1046                 1.1046                 1.1046
 Frc consts  --      7.0832                 7.0833                 7.0836
 IR Inten    --      3.3298                 2.6625                 0.6741

 - Thermochemistry -
 -------------------
 Temperature   298.150 Kelvin.  Pressure   1.00000 Atm.
 Atom     1 has atomic number  6 and mass  12.00000

 Molecular mass:   232.02893 amu.
 Principal axes and moments of inertia in atomic units:
                           1         2         3
     Eigenvalues --  3613.050213613.471376126.33947
           X            0.99988  -0.01558  -0.00000
           Y            0.01558   0.99988   0.00000
           Z            0.00000  -0.00000   1.00000
 This molecule is an asymmetric top.
 Rotational symmetry number  1.
 Warning -- assumption of classical behavior for rotation
           may cause significant error
 Rotational temperatures (Kelvin)      0.02397     0.02397     0.01414
 Rotational constants (GHZ):           0.49951     0.49945     0.29459
 Zero-point vibrational energy     480184.9 (Joules/Mol)
                                  114.76695 (Kcal/Mol)
 Warning -- explicit consideration of  18 degrees of freedom as
           vibrations may cause significant error
 Vibrational temperatures:     53.79    54.07    79.50    84.10    84.18
          (Kelvin)            110.88   290.40   319.58   319.82   402.65
                              423.54   423.74   690.52   712.82   713.04
                              879.72   879.76   880.64   948.03   948.12
                              955.80  1087.18  1087.73  1087.78  1189.58
                             1189.73  1193.58  1264.46  1264.59  1269.60
                             1294.98  1294.99  1295.08  1329.71  1332.19
                             1332.23  1490.01  1490.14  1492.90  1588.27
                             1588.36  1591.39  1641.29  1641.36  1651.05
                             1722.44  1722.46  1727.74  1797.47  1797.52
                             1798.53  2039.95  2039.98  2042.50  2144.17
                             2153.29  2153.32  2309.25  2312.51  2312.53
                             4696.82  4696.90  4697.13  4719.34  4719.39
                             4719.68  4746.68  4746.70  4746.77

 Zero-point correction=                           0.182893 (Hartree/Particle)
 Thermal correction to Energy=                    0.196483
 Thermal correction to Enthalpy=                  0.197427
 Thermal correction to Gibbs Free Energy=         0.139627
 Sum of electronic and zero-point Energies=          -1029.441980
 Sum of electronic and thermal Energies=             -1029.428390
 Sum of electronic and thermal Enthalpies=           -1029.427446
 Sum of electronic and thermal Free Energies=        -1029.485247

                     E (Thermal)             CV                S
                      KCal/Mol        Cal/Mol-Kelvin    Cal/Mol-Kelvin
 Total                  123.295             50.782            121.652
 Electronic               0.000              0.000              0.000
 Translational            0.889              2.981             42.227
 Rotational               0.889              2.981             32.747
 Vibrational            121.518             44.821             46.678
 Vibration     1          0.594              1.982              5.393
 Vibration     2          0.594              1.982              5.383
 Vibration     3          0.596              1.975              4.620
 Vibration     4          0.596              1.974              4.509
 Vibration     5          0.596              1.974              4.507
 Vibration     6          0.599              1.964              3.964
 Vibration     7          0.639              1.837              2.116
 Vibration     8          0.648              1.807              1.942
 Vibration     9          0.648              1.807              1.940
 Vibration    10          0.680              1.711              1.535
 Vibration    11          0.689              1.684              1.449
 Vibration    12          0.689              1.684              1.448
 Vibration    13          0.836              1.295              0.710
 Vibration    14          0.851              1.260              0.670
 Vibration    15          0.851              1.260              0.669
 Vibration    16          0.971              1.008              0.430
 Vibration    17          0.971              1.008              0.430
 Vibration    18          0.971              1.006              0.429

                           ! Non-Optimized Parameters !
 Normal termination of Gaussian 16 at Sun Aug 23 15:36:13 2020.
 Gaussian 16:  ES64L-G16RevA.03 25-Dec-2016

 ----------------------------------------------------------------------
 # TD(NStates=10, Root=1) B3LYP/6-31G* scf=qc volume pop=NPA density=cu
 rrent Geom=AllCheck Guess=Read
 ----------------------------------------------------------------------

 Structure from the checkpoint file:  "phosphine_9_conf293.chk"
 -------------------
 Title Card Required
 -------------------
 Charge =  0 Multiplicity = 1

                         Standard orientation:
 ---------------------------------------------------------------------
 Center     Atomic      Atomic             Coordinates (Angstroms)
 Number     Number       Type             X           Y           Z
 ---------------------------------------------------------------------
      1          6           0        1.251131   -3.284807    0.976099
      2          6           0        1.185089   -1.856886    0.911501
      3          6           0        0.470362   -1.543522   -0.214288
      4          8           0        0.100844   -2.705216   -0.854254
      5          6           0        0.574705   -3.741882   -0.114591
      6         15           0       -0.000031    0.000018   -1.071176
      7          6           0       -1.571940    0.364502   -0.214301
      8          6           0       -2.200538   -0.097563    0.911666
      9          6           0       -3.470358    0.558866    0.976057
     10          6           0       -3.528224    1.372820   -0.114912
     11          8           0       -2.393499    1.264929   -0.854554
     12          6           0        1.101609    1.179216   -0.214422
     13          6           0        1.015140    1.955933    0.910598
     14          6           0        2.219024    2.726637    0.975355
     15          6           0        2.953716    2.368058   -0.114465
     16          8           0        2.292993    1.438967   -0.853773
     17          1           0        1.738214   -3.886559    1.730982
     18          1           0        1.613395   -1.146864    1.604675
     19          1           0        0.351591   -4.727863   -0.494069
     20          1           0       -1.799567   -0.823152    1.605066
     21          1           0       -4.234984    0.437976    1.730999
     22          1           0       -4.270750    2.058700   -0.494607
     23          1           0        0.185609    1.972885    1.603167
     24          1           0        2.496386    3.449888    1.729797
     25          1           0        3.919576    2.667049   -0.493496
 ---------------------------------------------------------------------

 SCF Done:  E(RB3LYP) =  -1029.62487324     a.u. after    1 cycles

 Excitation energies and oscillator strengths:

 Excited State   1:      Singlet-A      4.7326 eV  261.98 nm  f=0.1416  <S**2>=0.000
      60 -> 61         0.69354
 This state for optimization and/or second-order correction.
 Total Energy, E(TD-HF/TD-DFT) =  -1029.45095342
 Copying the excited state density for this state as the 1-particle RhoCI density.

 Excited State   2:      Singlet-A      4.7335 eV  261.93 nm  f=0.1419  <S**2>=0.000
      60 -> 62         0.69352

 Excited State   3:      Singlet-A      5.3047 eV  233.73 nm  f=0.0000  <S**2>=0.000
      58 -> 61        -0.24128
      58 -> 62         0.43267
      59 -> 61         0.43553
      59 -> 62         0.24110

 Excited State   4:      Singlet-A      5.3996 eV  229.62 nm  f=0.0002  <S**2>=0.000
      58 -> 61        -0.24974
      58 -> 62        -0.12465
      59 -> 61        -0.12686
      59 -> 62         0.25084
      60 -> 63         0.58173

 Excited State   5:      Singlet-A      5.4658 eV  226.84 nm  f=0.1681  <S**2>=0.000
      58 -> 61         0.46384
      58 -> 62         0.15028
      59 -> 61        -0.14893
      59 -> 62         0.46356

 Excited State   6:      Singlet-A      5.4661 eV  226.82 nm  f=0.1684  <S**2>=0.000
      58 -> 61        -0.14999
      58 -> 62         0.46502
      59 -> 61        -0.46236
      59 -> 62        -0.14922

 Excited State   7:      Singlet-A      6.0313 eV  205.57 nm  f=0.0118  <S**2>=0.000
      58 -> 61         0.34298
      58 -> 62         0.20058
      59 -> 61         0.20011
      59 -> 62        -0.34313
      60 -> 63         0.38988

 Excited State   8:      Singlet-A      6.1713 eV  200.90 nm  f=0.0568  <S**2>=0.000
      54 -> 61         0.12541
      57 -> 61         0.46496
      59 -> 63         0.48197

 Excited State   9:      Singlet-A      6.1719 eV  200.89 nm  f=0.0566  <S**2>=0.000
      54 -> 62         0.12529
      57 -> 62         0.46453
      58 -> 63         0.48218

 Excited State  10:      Singlet-A      6.2519 eV  198.31 nm  f=0.0677  <S**2>=0.000
      57 -> 61         0.32272
      58 -> 63        -0.18691
      59 -> 63        -0.36467
      60 -> 64         0.42895

 The electronic state is 1-A.
 Alpha  occ. eigenvalues --  -77.10443 -19.21552 -19.21552 -19.21551 -10.23919
 Alpha  occ. eigenvalues --  -10.23918 -10.23917 -10.23693 -10.23693 -10.23693
 Alpha  occ. eigenvalues --  -10.19076 -10.19075 -10.19075 -10.18943 -10.18942
 Alpha  occ. eigenvalues --  -10.18941  -6.57106  -4.73367  -4.73367  -4.72864
 Alpha  occ. eigenvalues --   -1.10749  -1.10667  -1.10666  -0.80185  -0.79752
 Alpha  occ. eigenvalues --   -0.79751  -0.77542  -0.73926  -0.73925  -0.64938
 Alpha  occ. eigenvalues --   -0.60003  -0.59871  -0.59871  -0.55795  -0.55794
 Alpha  occ. eigenvalues --   -0.54788  -0.53286  -0.53286  -0.48933  -0.45120
 Alpha  occ. eigenvalues --   -0.45119  -0.44657  -0.42745  -0.42744  -0.42347
 Alpha  occ. eigenvalues --   -0.40363  -0.40313  -0.40312  -0.38831  -0.38830
 Alpha  occ. eigenvalues --   -0.37511  -0.36230  -0.36229  -0.28135  -0.27886
 Alpha  occ. eigenvalues --   -0.27885  -0.27316  -0.23486  -0.23484  -0.20895
 Alpha virt. eigenvalues --   -0.01046  -0.01043   0.01543   0.05283   0.05285
 Alpha virt. eigenvalues --    0.07047   0.07974   0.07978   0.11850   0.11907
 Alpha virt. eigenvalues --    0.12864   0.12865   0.15039   0.15040   0.15579

 Mulliken charges:
               1
     1  C   -0.174176
     2  C   -0.176386
     3  C    0.105360
     4  O   -0.413450
     5  C    0.097682
     6  P    0.397601
     7  C    0.050676
     8  C   -0.194026
     9  C   -0.176295
    10  C    0.056676
    11  O   -0.436832
    12  C    0.111727
    13  C   -0.157711
    14  C   -0.174805
    15  C    0.110034
    16  O   -0.405483
    17  H    0.149504
    18  H    0.151344
    19  H    0.166858
    20  H    0.125995
    21  H    0.126235
    22  H    0.136790
    23  H    0.183729
    24  H    0.161405
    25  H    0.177549
 Sum of Mulliken charges =  -0.00000

 Dipole moment (field-independent basis, Debye):
    X=              3.7525    Y=              0.3744    Z=              2.6714  Tot=              4.6215
 Quadrupole moment (field-independent basis, Debye-Ang):
   XX=            -90.6646   YY=            -82.1148   ZZ=            -96.8598
   XY=              4.4599   XZ=              0.8250   YZ=              0.5660

 Summary of Natural Population Analysis:

                                       Natural Population
                Natural  -----------------------------------------------
    Atom  No    Charge         Core      Valence    Rydberg      Total
 -----------------------------------------------------------------------
      C    1   -0.32047      1.99909     4.30842    0.01296     6.32047
      C    2   -0.31250      1.99891     4.29749    0.01610     6.31250
      C    3   -0.05173      1.99887     4.01736    0.03550     6.05173
      O    4   -0.46206      1.99974     6.44337    0.01895     8.46206
      C    5    0.13096      1.99905     3.84719    0.02281     5.86904
      P    6    1.01108      9.99757     3.92505    0.06630    13.98892
      C    7   -0.15370      1.99885     4.11641    0.03844     6.15370
      C    8   -0.34937      1.99890     4.33274    0.01772     6.34937
      C    9   -0.32962      1.99908     4.31731    0.01322     6.32962
      C   10    0.06602      1.99905     3.90919    0.02574     5.93398
      O   11   -0.48480      1.99975     6.47119    0.01387     8.48480
      C   12   -0.03054      1.99892     3.99426    0.03737     6.03054
      C   13   -0.27429      1.99893     4.26068    0.01468     6.27429
      C   14   -0.31899      1.99910     4.30684    0.01306     6.31899
      C   15    0.15476      1.99905     3.82344    0.02275     5.84524
      O   16   -0.45875      1.99974     6.43968    0.01933     8.45875
      H   17    0.25020      0.00000     0.74928    0.00052     0.74980
      H   18    0.25246      0.00000     0.74682    0.00071     0.74754
      H   19    0.22856      0.00000     0.77096    0.00048     0.77144
      H   20    0.23967      0.00000     0.75939    0.00094     0.76033
      H   21    0.23966      0.00000     0.75987    0.00047     0.76034
      H   22    0.21510      0.00000     0.78433    0.00057     0.78490
      H   23    0.27006      0.00000     0.72916    0.00078     0.72994
      H   24    0.25590      0.00000     0.74360    0.00050     0.74410
      H   25    0.23237      0.00000     0.76708    0.00054     0.76763
 =======================================================================
   * Total *   -0.00000     39.98461    79.62110    0.39429   120.00000

 Normal termination of Gaussian 16 at Sun Aug 23 15:44:54 2020.
