 Gaussian 16, Revision A.03,

 ---------------------------------
 # opt=CalcAll B3LYP/6-31G* scf=qc
 ---------------------------------

 -------------------
 Title Card Required
 -------------------
 Symbolic Z-matrix:
 Charge =  0 Multiplicity = 1

 SCF Done:  E(RB3LYP) =  -1036.29141983     a.u. after    8 cycles
 SCF Done:  E(RB3LYP) =  -1036.29719169     a.u. after   17 cycles
 SCF Done:  E(RB3LYP) =  -1036.29807699     a.u. after   13 cycles
 SCF Done:  E(RB3LYP) =  -1036.29820898     a.u. after   11 cycles
 SCF Done:  E(RB3LYP) =  -1036.29823403     a.u. after    9 cycles
 SCF Done:  E(RB3LYP) =  -1036.29823090     a.u. after    3 cycles
 SCF Done:  E(RB3LYP) =  -1036.29823526     a.u. after    7 cycles
 SCF Done:  E(RB3LYP) =  -1036.29823024     a.u. after    2 cycles
 SCF Done:  E(RB3LYP) =  -1036.29823474     a.u. after    3 cycles
 SCF Done:  E(RB3LYP) =  -1036.29823355     a.u. after    2 cycles
 SCF Done:  E(RB3LYP) =  -1036.29823708     a.u. after    2 cycles
 Optimization completed.
    -- Stationary point found.
 Normal termination of Gaussian 16 at Sun Aug 23 04:38:21 2020.

 ----------------------------------------------------------------------
 # freq B3LYP/6-31G* scf=qc volume NMR pop=NPA density=current Geom=All
 Check Guess=Read
 ----------------------------------------------------------------------

 Structure from the checkpoint file:  "phosphine_1_conf212.chk"
 -------------------
 Title Card Required
 -------------------
 Charge =  0 Multiplicity = 1

 SCF Done:  E(RB3LYP) =  -1036.29823708     a.u. after    1 cycles

      1  C    Isotropic =    68.1821   Anisotropy =   167.3394

      2  C    Isotropic =    68.7298   Anisotropy =   164.1306

      3  C    Isotropic =    61.0209   Anisotropy =   164.1235

      4  C    Isotropic =    56.0967   Anisotropy =   179.4055

      5  C    Isotropic =    62.6011   Anisotropy =   174.0003

      6  C    Isotropic =    68.6845   Anisotropy =   163.8920

      7  P    Isotropic =   361.4811   Anisotropy =    39.7954

      8  C    Isotropic =    56.1039   Anisotropy =   179.4402

      9  C    Isotropic =    62.5630   Anisotropy =   174.0358

     10  C    Isotropic =    68.6799   Anisotropy =   163.8848

     11  C    Isotropic =    68.1696   Anisotropy =   167.3551

     12  C    Isotropic =    68.7224   Anisotropy =   164.1342

     13  C    Isotropic =    61.0003   Anisotropy =   164.0920

     14  C    Isotropic =    56.1477   Anisotropy =   179.4207

     15  C    Isotropic =    61.0019   Anisotropy =   164.1022

     16  C    Isotropic =    68.7281   Anisotropy =   164.1112

     17  C    Isotropic =    68.1597   Anisotropy =   167.3459

     18  C    Isotropic =    68.6822   Anisotropy =   163.8972

     19  C    Isotropic =    62.5696   Anisotropy =   174.0910

     20  H    Isotropic =    25.0193   Anisotropy =     3.6440

     21  H    Isotropic =    24.9263   Anisotropy =     4.5915

     22  H    Isotropic =    24.6159   Anisotropy =     9.2571

     23  H    Isotropic =    25.4051   Anisotropy =    12.2300

     24  H    Isotropic =    25.0488   Anisotropy =     6.0862

     25  H    Isotropic =    25.3992   Anisotropy =    12.2223

     26  H    Isotropic =    25.0476   Anisotropy =     6.0858

     27  H    Isotropic =    25.0191   Anisotropy =     3.6436

     28  H    Isotropic =    24.9266   Anisotropy =     4.5899

     29  H    Isotropic =    24.6127   Anisotropy =     9.2501

     30  H    Isotropic =    24.6129   Anisotropy =     9.2452

     31  H    Isotropic =    24.9283   Anisotropy =     4.5849

     32  H    Isotropic =    25.0195   Anisotropy =     3.6432

     33  H    Isotropic =    25.0468   Anisotropy =     6.0872

     34  H    Isotropic =    25.3974   Anisotropy =    12.2243

  Exact polarizability: 224.179  -0.060 224.037  -0.005  -0.073 165.093
 Approx polarizability: 330.971  -0.141 330.706  -0.014  -0.174 308.143

                      1                      2                      3
                      A                      A                      A
 Frequencies --     23.8662                25.7164                39.4296
 Red. masses --      3.8014                 3.8039                 3.6906
 Frc consts  --      0.0013                 0.0015                 0.0034
 IR Inten    --      0.2811                 0.2816                 0.0022

                      4                      5                      6
                      A                      A                      A
 Frequencies --     53.3401                53.5487                70.7521
 Red. masses --      5.2483                 5.2438                 5.1668
 Frc consts  --      0.0088                 0.0089                 0.0152
 IR Inten    --      0.0868                 0.0880                 0.3106

                      7                      8                      9
                      A                      A                      A
 Frequencies --    181.8101               202.6724               202.8425
 Red. masses --      4.5640                 4.6427                 4.6409
 Frc consts  --      0.0889                 0.1124                 0.1125
 IR Inten    --      0.3519                 1.1319                 1.1305

                     10                     11                     12
                      A                      A                      A
 Frequencies --    245.5661               259.8297               260.0803
 Red. masses --      5.7397                 4.7228                 4.7239
 Frc consts  --      0.2039                 0.1879                 0.1883
 IR Inten    --      0.4820                 0.2290                 0.2266

                     13                     14                     15
                      A                      A                      A
 Frequencies --    408.9137               409.0131               412.4598
 Red. masses --      3.0803                 3.0836                 3.6147
 Frc consts  --      0.3035                 0.3039                 0.3623
 IR Inten    --      1.9735                 1.9813                 0.1625

                     16                     17                     18
                      A                      A                      A
 Frequencies --    417.2658               429.4746               429.5689
 Red. masses --      4.5844                 7.3186                 7.2999
 Frc consts  --      0.4703                 0.7953                 0.7937
 IR Inten    --      0.5592                 7.7064                 7.7133

                     19                     20                     21
                      A                      A                      A
 Frequencies --    509.5439               509.6793               516.5565
 Red. masses --      4.2469                 4.2449                 4.5922
 Frc consts  --      0.6497                 0.6497                 0.7219
 IR Inten    --     26.0820                26.0974                11.9462

                     22                     23                     24
                      A                      A                      A
 Frequencies --    632.7204               632.7552               633.3733
 Red. masses --      6.4276                 6.4273                 6.4371
 Frc consts  --      1.5161                 1.5162                 1.5214
 IR Inten    --      0.1816                 0.1813                 0.0165

                     25                     26                     27
                      A                      A                      A
 Frequencies --    691.8698               705.1344               705.2261
 Red. masses --      6.5796                 5.7279                 5.7859
 Frc consts  --      1.8557                 1.6780                 1.6954
 IR Inten    --      0.8019                 1.1402                 1.0954

                     28                     29                     30
                      A                      A                      A
 Frequencies --    712.3744               712.4814               713.4737
 Red. masses --      2.1991                 2.1940                 2.1381
 Frc consts  --      0.6575                 0.6562                 0.6413
 IR Inten    --     26.3665                26.5311                16.5329

                     31                     32                     33
                      A                      A                      A
 Frequencies --    761.4584               762.9196               762.9637
 Red. masses --      1.6135                 1.6473                 1.6494
 Frc consts  --      0.5512                 0.5649                 0.5657
 IR Inten    --     19.2080                24.9934                24.8508

                     34                     35                     36
                      A                      A                      A
 Frequencies --    866.3013               866.4594               868.9529
 Red. masses --      1.2476                 1.2475                 1.2461
 Frc consts  --      0.5516                 0.5518                 0.5544
 IR Inten    --      0.2214                 0.2158                 0.1286

                     37                     38                     39
                      A                      A                      A
 Frequencies --    932.9986               933.1724               934.4815
 Red. masses --      1.3441                 1.3437                 1.3381
 Frc consts  --      0.6893                 0.6894                 0.6885
 IR Inten    --      1.2639                 1.2746                 0.0284

                     40                     41                     42
                      A                      A                      A
 Frequencies --    975.9242               976.0787               977.8707
 Red. masses --      1.3611                 1.3608                 1.3550
 Frc consts  --      0.7638                 0.7639                 0.7634
 IR Inten    --      0.0153                 0.0154                 0.1362

                     43                     44                     45
                      A                      A                      A
 Frequencies --   1000.4048              1000.4592              1001.2231
 Red. masses --      1.2541                 1.2540                 1.2522
 Frc consts  --      0.7395                 0.7395                 0.7396
 IR Inten    --      0.0785                 0.0828                 0.0001

                     46                     47                     48
                      A                      A                      A
 Frequencies --   1015.3747              1015.3864              1015.7663
 Red. masses --      6.3124                 6.3119                 6.3101
 Frc consts  --      3.8344                 3.8342                 3.8360
 IR Inten    --      4.3660                 4.3693                 0.0489

                     49                     50                     51
                      A                      A                      A
 Frequencies --   1052.7493              1052.7556              1052.9286
 Red. masses --      3.3162                 3.3178                 3.2533
 Frc consts  --      2.1654                 2.1665                 2.1251
 IR Inten    --      2.0765                 2.0739                 0.0398

                     52                     53                     54
                      A                      A                      A
 Frequencies --   1108.0198              1108.0493              1109.4676
 Red. masses --      1.8812                 1.8871                 1.6549
 Frc consts  --      1.3608                 1.3651                 1.2002
 IR Inten    --      4.2061                 4.2692                 2.9687

                     55                     56                     57
                      A                      A                      A
 Frequencies --   1110.8093              1110.8462              1115.9734
 Red. masses --      2.1863                 2.1933                 2.6134
 Frc consts  --      1.5894                 1.5946                 1.9176
 IR Inten    --      9.3394                 9.4382                 1.1538

                     58                     59                     60
                      A                      A                      A
 Frequencies --   1193.5329              1193.9476              1194.0108
 Red. masses --      1.1034                 1.1000                 1.1002
 Frc consts  --      0.9261                 0.9239                 0.9241
 IR Inten    --      0.0017                 0.1265                 0.1266

                     61                     62                     63
                      A                      A                      A
 Frequencies --   1219.4144              1219.5354              1220.8011
 Red. masses --      1.1477                 1.1479                 1.1473
 Frc consts  --      1.0055                 1.0058                 1.0074
 IR Inten    --      6.0642                 6.0755                 0.3295

                     64                     65                     66
                      A                      A                      A
 Frequencies --   1325.0706              1328.7910              1328.8664
 Red. masses --      3.4953                 3.5115                 3.5090
 Frc consts  --      3.6159                 3.6530                 3.6509
 IR Inten    --      2.6348                 2.4447                 2.4446

                     67                     68                     69
                      A                      A                      A
 Frequencies --   1365.3015              1365.4575              1365.6125
 Red. masses --      1.6517                 1.6485                 1.6444
 Frc consts  --      1.8140                 1.8109                 1.8068
 IR Inten    --      0.2663                 0.3116                 2.8286

                     70                     71                     72
                      A                      A                      A
 Frequencies --   1480.5455              1481.0074              1481.0374
 Red. masses --      2.1103                 2.1150                 2.1160
 Frc consts  --      2.7255                 2.7333                 2.7346
 IR Inten    --     16.6264                 6.6879                 6.5730

                     73                     74                     75
                      A                      A                      A
 Frequencies --   1531.0911              1531.6390              1531.7243
 Red. masses --      2.0152                 1.9979                 1.9970
 Frc consts  --      2.7833                 2.7615                 2.7605
 IR Inten    --      2.0153                10.1330                10.1650

                     76                     77                     78
                      A                      A                      A
 Frequencies --   1630.1920              1630.4798              1630.4829
 Red. masses --      5.1010                 5.1115                 5.1108
 Frc consts  --      7.9869                 8.0062                 8.0051
 IR Inten    --      0.3970                 0.0450                 0.0453

                     79                     80                     81
                      A                      A                      A
 Frequencies --   1646.1875              1646.2086              1647.9834
 Red. masses --      5.2703                 5.2678                 5.2816
 Frc consts  --      8.4148                 8.4110                 8.4513
 IR Inten    --      3.4936                 3.5348                 0.3206

                     82                     83                     84
                      A                      A                      A
 Frequencies --   3176.1303              3176.1477              3176.1670
 Red. masses --      1.0854                 1.0853                 1.0853
 Frc consts  --      6.4509                 6.4508                 6.4510
 IR Inten    --      2.2545                 1.8858                 1.8426

                     85                     86                     87
                      A                      A                      A
 Frequencies --   3182.6846              3182.7051              3182.7748
 Red. masses --      1.0875                 1.0875                 1.0876
 Frc consts  --      6.4903                 6.4904                 6.4913
 IR Inten    --      0.7847                 0.7732                 0.1389

                     88                     89                     90
                      A                      A                      A
 Frequencies --   3192.8653              3192.8930              3193.0143
 Red. masses --      1.0916                 1.0916                 1.0917
 Frc consts  --      6.5568                 6.5569                 6.5580
 IR Inten    --     10.3708                10.9778                46.8662

                     91                     92                     93
                      A                      A                      A
 Frequencies --   3203.9318              3203.9783              3204.3510
 Red. masses --      1.0941                 1.0941                 1.0943
 Frc consts  --      6.6174                 6.6177                 6.6199
 IR Inten    --     41.3326                41.9458                 4.4887

                     94                     95                     96
                      A                      A                      A
 Frequencies --   3210.1183              3210.1789              3211.0478
 Red. masses --      1.0956                 1.0956                 1.0956
 Frc consts  --      6.6522                 6.6522                 6.6557
 IR Inten    --     19.8438                19.7192                16.3220

 - Thermochemistry -
 -------------------
 Temperature   298.150 Kelvin.  Pressure   1.00000 Atm.
 Atom     1 has atomic number  6 and mass  12.00000

 Molecular mass:   262.09114 amu.
 Principal axes and moments of inertia in atomic units:
                           1         2         3
     Eigenvalues --  5161.977015164.401678680.35325
           X            0.99964  -0.02700   0.00000
           Y            0.02700   0.99964  -0.00002
           Z           -0.00000   0.00002   1.00000
 This molecule is an asymmetric top.
 Rotational symmetry number  1.
 Warning -- assumption of classical behavior for rotation
           may cause significant error
 Rotational temperatures (Kelvin)      0.01678     0.01677     0.00998
 Rotational constants (GHZ):           0.34962     0.34946     0.20791
 Zero-point vibrational energy     720026.6 (Joules/Mol)
                                  172.09048 (Kcal/Mol)
 Warning -- explicit consideration of  21 degrees of freedom as
           vibrations may cause significant error
 Vibrational temperatures:     34.34    37.00    56.73    76.74    77.04
          (Kelvin)            101.80   261.58   291.60   291.85   353.31
                              373.84   374.20   588.34   588.48   593.44
                              600.35   617.92   618.05   733.12   733.31
                              743.21   910.34   910.39   911.28   995.45
                             1014.53  1014.66  1024.95  1025.10  1026.53
                             1095.57  1097.67  1097.73  1246.41  1246.64
                             1250.23  1342.38  1342.63  1344.51  1404.14
                             1404.36  1406.94  1439.36  1439.44  1440.54
                             1460.90  1460.91  1461.46  1514.67  1514.68
                             1514.93  1594.19  1594.24  1596.28  1598.21
                             1598.26  1605.64  1717.23  1717.82  1717.92
                             1754.47  1754.64  1756.46  1906.48  1911.83
                             1911.94  1964.36  1964.59  1964.81  2130.17
                             2130.84  2130.88  2202.90  2203.69  2203.81
                             2345.48  2345.90  2345.90  2368.50  2368.53
                             2371.08  4569.74  4569.77  4569.80  4579.17
                             4579.20  4579.30  4593.82  4593.86  4594.04
                             4609.74  4609.81  4610.35  4618.64  4618.73
                             4619.98

 Zero-point correction=                           0.274244 (Hartree/Particle)
 Thermal correction to Energy=                    0.290153
 Thermal correction to Enthalpy=                  0.291097
 Thermal correction to Gibbs Free Energy=         0.227920
 Sum of electronic and zero-point Energies=          -1036.023993
 Sum of electronic and thermal Energies=             -1036.008084
 Sum of electronic and thermal Enthalpies=           -1036.007140
 Sum of electronic and thermal Free Energies=        -1036.070317

                     E (Thermal)             CV                S
                      KCal/Mol        Cal/Mol-Kelvin    Cal/Mol-Kelvin
 Total                  182.074             62.528            132.967
 Electronic               0.000              0.000              0.000
 Translational            0.889              2.981             42.590
 Rotational               0.889              2.981             33.803
 Vibrational            180.296             56.567             56.574
 Vibration     1          0.593              1.985              6.283
 Vibration     2          0.593              1.985              6.135
 Vibration     3          0.594              1.981              5.288
 Vibration     4          0.596              1.976              4.690
 Vibration     5          0.596              1.976              4.682
 Vibration     6          0.598              1.968              4.132
 Vibration     7          0.630              1.864              2.310
 Vibration     8          0.639              1.836              2.109
 Vibration     9          0.639              1.836              2.107
 Vibration    10          0.660              1.770              1.762
 Vibration    11          0.668              1.746              1.663
 Vibration    12          0.668              1.746              1.661
 Vibration    13          0.773              1.451              0.930
 Vibration    14          0.773              1.451              0.930
 Vibration    15          0.776              1.443              0.918
 Vibration    16          0.780              1.433              0.901
 Vibration    17          0.791              1.406              0.860
 Vibration    18          0.791              1.406              0.860
 Vibration    19          0.865              1.229              0.635
 Vibration    20          0.865              1.229              0.634
 Vibration    21          0.872              1.213              0.618

                           ! Non-Optimized Parameters !
 Normal termination of Gaussian 16 at Sun Aug 23 04:50:26 2020.
 Gaussian 16:  ES64L-G16RevA.03 25-Dec-2016

 ----------------------------------------------------------------------
 # TD(NStates=10, Root=1) B3LYP/6-31G* scf=qc volume pop=NPA density=cu
 rrent Geom=AllCheck Guess=Read
 ----------------------------------------------------------------------

 Structure from the checkpoint file:  "phosphine_1_conf213.chk"
 -------------------
 Title Card Required
 -------------------
 Charge =  0 Multiplicity = 1

                         Standard orientation:
 ---------------------------------------------------------------------
 Center     Atomic      Atomic             Coordinates (Angstroms)
 Number     Number       Type             X           Y           Z
 ---------------------------------------------------------------------
      1          6           0       -2.235998   -3.650210    0.651026
      2          6           0       -2.698158   -3.017984   -0.505232
      3          6           0       -2.002200   -1.929932   -1.031400
      4          6           0       -0.843992   -1.441905   -0.402808
      5          6           0       -0.388656   -2.087830    0.756739
      6          6           0       -1.078830   -3.184751    1.277397
      7         15           0        0.000265   -0.000017   -1.206535
      8          6           0       -0.826604    1.451708   -0.402468
      9          6           0       -1.609395    1.380449    0.759988
     10          6           0       -2.214615    2.526156    1.281205
     11          6           0       -2.043750    3.760468    0.652423
     12          6           0       -1.269423    3.844480   -0.506693
     13          6           0       -0.674708    2.698138   -1.033337
     14          6           0        1.670981   -0.009918   -0.402588
     15          6           0        2.674484   -0.764295   -1.033910
     16          6           0        3.964722   -0.822384   -0.507550
     17          6           0        4.279230   -0.110109    0.651732
     18          6           0        3.295702    0.654630    1.280971
     19          6           0        2.000767    0.703294    0.760044
     20          1           0       -2.771017   -4.504603    1.057298
     21          1           0       -3.594285   -3.378667   -1.003619
     22          1           0       -2.357438   -1.455130   -1.943266
     23          1           0        0.510619   -1.735843    1.253204
     24          1           0       -0.710714   -3.675142    2.175153
     25          1           0       -1.750537    0.426017    1.258204
     26          1           0       -2.820025    2.452675    2.181225
     27          1           0       -2.516467    4.650662    1.059099
     28          1           0       -1.137368    4.800448   -1.006906
     29          1           0       -0.089241    2.768180   -1.947362
     30          1           0        2.442301   -1.306071   -1.948070
     31          1           0        4.726588   -1.414432   -1.008115
     32          1           0        5.286611   -0.145762    1.058188
     33          1           0        3.534863    1.215429    2.181118
     34          1           0        1.244795    1.302456    1.258634
 ---------------------------------------------------------------------

 SCF Done:  E(RB3LYP) =  -1036.29823708     a.u. after    1 cycles

 Excitation energies and oscillator strengths:

 Excited State   1:      Singlet-A      4.5096 eV  274.94 nm  f=0.1274  <S**2>=0.000
      69 -> 70         0.69703
 This state for optimization and/or second-order correction.
 Total Energy, E(TD-HF/TD-DFT) =  -1036.13251412
 Copying the excited state density for this state as the 1-particle RhoCI density.

 Excited State   2:      Singlet-A      4.5116 eV  274.81 nm  f=0.1282  <S**2>=0.000
      69 -> 71         0.69700

 Excited State   3:      Singlet-A      4.7574 eV  260.61 nm  f=0.0022  <S**2>=0.000
      67 -> 70        -0.12276
      68 -> 71        -0.12318
      69 -> 72         0.67463

 Excited State   4:      Singlet-A      5.0577 eV  245.14 nm  f=0.0002  <S**2>=0.000
      66 -> 70        -0.16664
      67 -> 71        -0.11916
      68 -> 70        -0.11916
      69 -> 74         0.62992

 Excited State   5:      Singlet-A      5.0585 eV  245.10 nm  f=0.0002  <S**2>=0.000
      66 -> 71        -0.16720
      67 -> 70        -0.11963
      68 -> 71         0.11955
      69 -> 75         0.62941

 Excited State   6:      Singlet-A      5.1511 eV  240.69 nm  f=0.0085  <S**2>=0.000
      69 -> 73         0.67912

 Excited State   7:      Singlet-A      5.4273 eV  228.44 nm  f=0.0147  <S**2>=0.000
      63 -> 72         0.16613
      64 -> 74        -0.14279
      65 -> 75        -0.14075
      67 -> 70         0.42266
      68 -> 71         0.41667
      69 -> 72         0.16527

 Excited State   8:      Singlet-A      5.5139 eV  224.86 nm  f=0.0005  <S**2>=0.000
      63 -> 74         0.14365
      64 -> 70         0.12631
      64 -> 72        -0.22136
      64 -> 75        -0.10896
      65 -> 71        -0.12532
      65 -> 72        -0.17566
      65 -> 74        -0.10870
      66 -> 70         0.22655
      67 -> 70         0.15725
      67 -> 71         0.21821
      68 -> 70         0.22312
      68 -> 71        -0.15967
      68 -> 72         0.16339
      69 -> 74         0.28662

 Excited State   9:      Singlet-A      5.5149 eV  224.82 nm  f=0.0004  <S**2>=0.000
      63 -> 75         0.14406
      64 -> 71        -0.12231
      64 -> 72         0.17596
      64 -> 74        -0.10740
      65 -> 70        -0.12523
      65 -> 72        -0.22143
      65 -> 75         0.10946
      66 -> 71         0.22532
      67 -> 70         0.21658
      67 -> 71        -0.15904
      67 -> 72        -0.16388
      68 -> 70        -0.15991
      68 -> 71        -0.22595
      69 -> 75         0.28746

 Excited State  10:      Singlet-A      5.6181 eV  220.69 nm  f=0.0009  <S**2>=0.000
      67 -> 71        -0.47456
      68 -> 70         0.48208

 The electronic state is 1-A.
 Alpha  occ. eigenvalues --  -77.08112 -10.19447 -10.19447 -10.19446 -10.19148
 Alpha  occ. eigenvalues --  -10.19147 -10.19144 -10.19118 -10.19117 -10.19115
 Alpha  occ. eigenvalues --  -10.19032 -10.19031 -10.19028 -10.19008 -10.19007
 Alpha  occ. eigenvalues --  -10.19005 -10.18963 -10.18962 -10.18959  -6.54843
 Alpha  occ. eigenvalues --   -4.71102  -4.71102  -4.70601  -0.85560  -0.84846
 Alpha  occ. eigenvalues --   -0.84844  -0.76669  -0.74366  -0.74365  -0.74329
 Alpha  occ. eigenvalues --   -0.73821  -0.73821  -0.64436  -0.60337  -0.60307
 Alpha  occ. eigenvalues --   -0.60306  -0.59207  -0.59207  -0.55448  -0.51435
 Alpha  occ. eigenvalues --   -0.51434  -0.49296  -0.45440  -0.45439  -0.44774
 Alpha  occ. eigenvalues --   -0.44344  -0.44344  -0.44068  -0.41946  -0.41869
 Alpha  occ. eigenvalues --   -0.41867  -0.40379  -0.40376  -0.36844  -0.36353
 Alpha  occ. eigenvalues --   -0.36350  -0.35898  -0.34252  -0.34251  -0.34224
 Alpha  occ. eigenvalues --   -0.31884  -0.31883  -0.26775  -0.25450  -0.25445
 Alpha  occ. eigenvalues --   -0.25242  -0.24704  -0.24703  -0.21145
 Alpha virt. eigenvalues --   -0.01882  -0.01877  -0.00829   0.00173   0.00426
 Alpha virt. eigenvalues --    0.00431   0.06879   0.06890   0.09492   0.11038
 Alpha virt. eigenvalues --    0.11040   0.13903   0.14529   0.14530   0.15165

 Mulliken charges:
               1
     1  C   -0.121662
     2  C   -0.117960
     3  C   -0.159221
     4  C   -0.084116
     5  C   -0.147492
     6  C   -0.120887
     7  P    0.450598
     8  C   -0.105822
     9  C   -0.170350
    10  C   -0.115360
    11  C   -0.150986
    12  C   -0.125422
    13  C   -0.156985
    14  C   -0.131120
    15  C   -0.176050
    16  C   -0.119692
    17  C   -0.163508
    18  C   -0.121821
    19  C   -0.167771
    20  H    0.146944
    21  H    0.143380
    22  H    0.148583
    23  H    0.178924
    24  H    0.147769
    25  H    0.133030
    26  H    0.127667
    27  H    0.122215
    28  H    0.125420
    29  H    0.130649
    30  H    0.114851
    31  H    0.115734
    32  H    0.111387
    33  H    0.120242
    34  H    0.138831
 Sum of Mulliken charges =   0.00000

 Dipole moment (field-independent basis, Debye):
    X=             -2.7810    Y=             -2.5280    Z=             -0.1970  Tot=              3.7635
 Quadrupole moment (field-independent basis, Debye-Ang):
   XX=           -118.4300   YY=           -108.6425   ZZ=           -110.6584
   XY=              5.0153   XZ=             -0.2762   YZ=             -1.3274

 Summary of Natural Population Analysis:

                                       Natural Population
                Natural  -----------------------------------------------
    Atom  No    Charge         Core      Valence    Rydberg      Total
 -----------------------------------------------------------------------
      C    1   -0.19778      1.99909     4.18493    0.01376     6.19778
      C    2   -0.23341      1.99910     4.22013    0.01418     6.23341
      C    3   -0.20633      1.99902     4.19212    0.01520     6.20633
      C    4   -0.38177      1.99891     4.35769    0.02517     6.38177
      C    5   -0.20254      1.99900     4.18746    0.01609     6.20254
      C    6   -0.23162      1.99909     4.21842    0.01411     6.23162
      P    7    1.24224      9.99750     3.71002    0.05024    13.75776
      C    8   -0.43406      1.99887     4.41098    0.02421     6.43406
      C    9   -0.25496      1.99899     4.23844    0.01753     6.25496
      C   10   -0.22316      1.99909     4.20983    0.01424     6.22316
      C   11   -0.26024      1.99909     4.24551    0.01564     6.26024
      C   12   -0.24830      1.99910     4.23420    0.01500     6.24830
      C   13   -0.20875      1.99901     4.19407    0.01567     6.20875
      C   14   -0.48074      1.99887     4.45575    0.02612     6.48074
      C   15   -0.23921      1.99902     4.22384    0.01635     6.23921
      C   16   -0.23892      1.99910     4.22504    0.01479     6.23892
      C   17   -0.28654      1.99909     4.27101    0.01643     6.28654
      C   18   -0.23527      1.99909     4.22152    0.01467     6.23527
      C   19   -0.24545      1.99899     4.22869    0.01777     6.24545
      H   20    0.24240      0.00000     0.75678    0.00082     0.75760
      H   21    0.24328      0.00000     0.75581    0.00090     0.75672
      H   22    0.24171      0.00000     0.75711    0.00118     0.75829
      H   23    0.26304      0.00000     0.73574    0.00122     0.73696
      H   24    0.24610      0.00000     0.75304    0.00086     0.75390
      H   25    0.23769      0.00000     0.76097    0.00133     0.76231
      H   26    0.23668      0.00000     0.76244    0.00088     0.76332
      H   27    0.23182      0.00000     0.76729    0.00089     0.76818
      H   28    0.23548      0.00000     0.76365    0.00087     0.76452
      H   29    0.23352      0.00000     0.76529    0.00119     0.76648
      H   30    0.22393      0.00000     0.77511    0.00095     0.77607
      H   31    0.23031      0.00000     0.76875    0.00094     0.76969
      H   32    0.22704      0.00000     0.77206    0.00091     0.77296
      H   33    0.23339      0.00000     0.76573    0.00088     0.76661
      H   34    0.24044      0.00000     0.75798    0.00157     0.75956
 =======================================================================
   * Total *    0.00000     45.98001    91.64740    0.37259   138.00000

 Normal termination of Gaussian 16 at Sun Aug 23 05:04:21 2020.
