 Gaussian 16, Revision A.03,

 ---------------------------------
 # opt=CalcAll B3LYP/6-31G* scf=qc
 ---------------------------------

 -------------------
 Title Card Required
 -------------------
 Symbolic Z-matrix:
 Charge =  0 Multiplicity = 1

 SCF Done:  E(RB3LYP) =  -1036.29098496     a.u. after    8 cycles
 SCF Done:  E(RB3LYP) =  -1036.29642152     a.u. after   17 cycles
 SCF Done:  E(RB3LYP) =  -1036.29767166     a.u. after   15 cycles
 SCF Done:  E(RB3LYP) =  -1036.29811618     a.u. after   13 cycles
 SCF Done:  E(RB3LYP) =  -1036.29822197     a.u. after   13 cycles
 SCF Done:  E(RB3LYP) =  -1036.29822119     a.u. after    7 cycles
 SCF Done:  E(RB3LYP) =  -1036.29823243     a.u. after    9 cycles
 SCF Done:  E(RB3LYP) =  -1036.29822980     a.u. after    2 cycles
 SCF Done:  E(RB3LYP) =  -1036.29823822     a.u. after    3 cycles
 SCF Done:  E(RB3LYP) =  -1036.29823658     a.u. after    2 cycles
 SCF Done:  E(RB3LYP) =  -1036.29823276     a.u. after    3 cycles
 SCF Done:  E(RB3LYP) =  -1036.29823809     a.u. after    2 cycles
 SCF Done:  E(RB3LYP) =  -1036.29823955     a.u. after    2 cycles
 SCF Done:  E(RB3LYP) =  -1036.29823715     a.u. after    2 cycles
 SCF Done:  E(RB3LYP) =  -1036.29823340     a.u. after    3 cycles
 SCF Done:  E(RB3LYP) =  -1036.29823606     a.u. after    2 cycles
 SCF Done:  E(RB3LYP) =  -1036.29822979     a.u. after    2 cycles
 SCF Done:  E(RB3LYP) =  -1036.29823030     a.u. after    2 cycles
 Optimization completed.
    -- Stationary point found.
 Normal termination of Gaussian 16 at Sun Aug 23 10:33:56 2020.

 ----------------------------------------------------------------------
 # freq B3LYP/6-31G* scf=qc volume NMR pop=NPA density=current Geom=All
 Check Guess=Read
 ----------------------------------------------------------------------

 Structure from the checkpoint file:  "phosphine_1_conf72.chk"
 -------------------
 Title Card Required
 -------------------
 Charge =  0 Multiplicity = 1

 SCF Done:  E(RB3LYP) =  -1036.29823030     a.u. after    1 cycles

      1  C    Isotropic =    68.1520   Anisotropy =   167.3170

      2  C    Isotropic =    68.7308   Anisotropy =   164.0910

      3  C    Isotropic =    60.9990   Anisotropy =   164.1316

      4  C    Isotropic =    56.1534   Anisotropy =   179.4622

      5  C    Isotropic =    62.5760   Anisotropy =   174.1153

      6  C    Isotropic =    68.6808   Anisotropy =   163.9031

      7  P    Isotropic =   361.4340   Anisotropy =    39.5963

      8  C    Isotropic =    56.0752   Anisotropy =   179.4380

      9  C    Isotropic =    62.5958   Anisotropy =   174.0082

     10  C    Isotropic =    68.6764   Anisotropy =   163.8884

     11  C    Isotropic =    68.1758   Anisotropy =   167.3245

     12  C    Isotropic =    68.7279   Anisotropy =   164.1244

     13  C    Isotropic =    61.0195   Anisotropy =   164.1351

     14  C    Isotropic =    56.1367   Anisotropy =   179.4081

     15  C    Isotropic =    62.6015   Anisotropy =   174.0575

     16  C    Isotropic =    68.6781   Anisotropy =   163.8911

     17  C    Isotropic =    68.1646   Anisotropy =   167.3290

     18  C    Isotropic =    68.7252   Anisotropy =   164.1281

     19  C    Isotropic =    61.0142   Anisotropy =   164.1509

     20  H    Isotropic =    25.0228   Anisotropy =     3.6353

     21  H    Isotropic =    24.9305   Anisotropy =     4.5799

     22  H    Isotropic =    24.6100   Anisotropy =     9.2470

     23  H    Isotropic =    25.3934   Anisotropy =    12.2245

     24  H    Isotropic =    25.0475   Anisotropy =     6.0847

     25  H    Isotropic =    25.4024   Anisotropy =    12.2346

     26  H    Isotropic =    25.0480   Anisotropy =     6.0876

     27  H    Isotropic =    25.0208   Anisotropy =     3.6393

     28  H    Isotropic =    24.9279   Anisotropy =     4.5895

     29  H    Isotropic =    24.6145   Anisotropy =     9.2604

     30  H    Isotropic =    25.3993   Anisotropy =    12.2301

     31  H    Isotropic =    25.0482   Anisotropy =     6.0852

     32  H    Isotropic =    25.0205   Anisotropy =     3.6403

     33  H    Isotropic =    24.9254   Anisotropy =     4.5897

     34  H    Isotropic =    24.6128   Anisotropy =     9.2579

  Exact polarizability: 224.278   0.051 224.039   0.091   0.002 165.016
 Approx polarizability: 331.158   0.115 330.710   0.215   0.008 307.973

                      1                      2                      3
                      A                      A                      A
 Frequencies --     21.2936                22.5959                37.5396
 Red. masses --      3.7928                 3.7979                 3.6887
 Frc consts  --      0.0010                 0.0011                 0.0031
 IR Inten    --      0.2809                 0.2821                 0.0017

                      4                      5                      6
                      A                      A                      A
 Frequencies --     53.2096                53.2897                70.5702
 Red. masses --      5.2571                 5.2510                 5.1674
 Frc consts  --      0.0088                 0.0088                 0.0152
 IR Inten    --      0.0837                 0.0860                 0.3107

                      7                      8                      9
                      A                      A                      A
 Frequencies --    181.4591               202.2852               202.5824
 Red. masses --      4.5599                 4.6435                 4.6411
 Frc consts  --      0.0885                 0.1120                 0.1122
 IR Inten    --      0.3530                 1.1391                 1.1385

                     10                     11                     12
                      A                      A                      A
 Frequencies --    245.5535               259.7890               260.0450
 Red. masses --      5.7403                 4.7215                 4.7215
 Frc consts  --      0.2039                 0.1877                 0.1881
 IR Inten    --      0.4825                 0.2243                 0.2230

                     13                     14                     15
                      A                      A                      A
 Frequencies --    408.6963               408.8146               412.3085
 Red. masses --      3.0782                 3.0775                 3.5931
 Frc consts  --      0.3029                 0.3030                 0.3599
 IR Inten    --      1.9613                 1.9539                 0.1602

                     16                     17                     18
                      A                      A                      A
 Frequencies --    417.0142               429.4246               429.5664
 Red. masses --      4.6151                 7.3021                 7.3098
 Frc consts  --      0.4729                 0.7934                 0.7947
 IR Inten    --      0.5609                 7.6545                 7.7041

                     19                     20                     21
                      A                      A                      A
 Frequencies --    509.3895               509.5502               516.3047
 Red. masses --      4.2501                 4.2467                 4.5887
 Frc consts  --      0.6498                 0.6496                 0.7207
 IR Inten    --     26.1518                26.1433                11.9772

                     22                     23                     24
                      A                      A                      A
 Frequencies --    632.7181               632.7378               633.3597
 Red. masses --      6.4270                 6.4272                 6.4367
 Frc consts  --      1.5159                 1.5161                 1.5213
 IR Inten    --      0.1810                 0.1811                 0.0163

                     25                     26                     27
                      A                      A                      A
 Frequencies --    691.8828               705.1367               705.2321
 Red. masses --      6.5806                 5.6955                 5.6960
 Frc consts  --      1.8560                 1.6685                 1.6691
 IR Inten    --      0.7678                 1.2188                 1.2010

                     28                     29                     30
                      A                      A                      A
 Frequencies --    712.1830               712.2832               713.2187
 Red. masses --      2.2051                 2.2029                 2.1330
 Frc consts  --      0.6590                 0.6585                 0.6393
 IR Inten    --     26.2571                26.4016                16.6100

                     31                     32                     33
                      A                      A                      A
 Frequencies --    761.3792               762.8552               762.9158
 Red. masses --      1.6156                 1.6479                 1.6493
 Frc consts  --      0.5518                 0.5650                 0.5656
 IR Inten    --     19.2258                24.9537                24.8162

                     34                     35                     36
                      A                      A                      A
 Frequencies --    866.0520               866.2258               868.6867
 Red. masses --      1.2478                 1.2477                 1.2463
 Frc consts  --      0.5514                 0.5516                 0.5541
 IR Inten    --      0.2278                 0.2237                 0.1340

                     37                     38                     39
                      A                      A                      A
 Frequencies --    932.7899               932.9600               934.1651
 Red. masses --      1.3445                 1.3442                 1.3387
 Frc consts  --      0.6892                 0.6893                 0.6883
 IR Inten    --      1.2609                 1.2563                 0.0319

                     40                     41                     42
                      A                      A                      A
 Frequencies --    975.6764               975.8581               977.5617
 Red. masses --      1.3615                 1.3613                 1.3558
 Frc consts  --      0.7636                 0.7638                 0.7634
 IR Inten    --      0.0165                 0.0162                 0.1418

                     43                     44                     45
                      A                      A                      A
 Frequencies --   1000.3228              1000.3919              1001.0806
 Red. masses --      1.2544                 1.2543                 1.2527
 Frc consts  --      0.7396                 0.7396                 0.7396
 IR Inten    --      0.0763                 0.0798                 0.0002

                     46                     47                     48
                      A                      A                      A
 Frequencies --   1015.3682              1015.3794              1015.7552
 Red. masses --      6.3113                 6.3126                 6.3098
 Frc consts  --      3.8337                 3.8346                 3.8357
 IR Inten    --      4.3670                 4.3603                 0.0455

                     49                     50                     51
                      A                      A                      A
 Frequencies --   1052.6878              1052.7343              1052.9139
 Red. masses --      3.3083                 3.3137                 3.2527
 Frc consts  --      2.1600                 2.1637                 2.1246
 IR Inten    --      2.1136                 2.0896                 0.0408

                     52                     53                     54
                      A                      A                      A
 Frequencies --   1107.8299              1108.0676              1109.5165
 Red. masses --      1.8849                 1.8607                 1.6547
 Frc consts  --      1.3629                 1.3461                 1.2001
 IR Inten    --      4.2598                 3.8318                 2.8501

                     55                     56                     57
                      A                      A                      A
 Frequencies --   1110.7732              1110.8219              1116.2367
 Red. masses --      2.1912                 2.2206                 2.6140
 Frc consts  --      1.5929                 1.6144                 1.9190
 IR Inten    --      9.3998                 9.7765                 1.2618

                     58                     59                     60
                      A                      A                      A
 Frequencies --   1193.4780              1193.8728              1193.9259
 Red. masses --      1.1033                 1.0999                 1.1001
 Frc consts  --      0.9259                 0.9237                 0.9239
 IR Inten    --      0.0015                 0.1310                 0.1316

                     61                     62                     63
                      A                      A                      A
 Frequencies --   1219.1561              1219.3925              1220.8968
 Red. masses --      1.1475                 1.1477                 1.1473
 Frc consts  --      1.0049                 1.0055                 1.0076
 IR Inten    --      6.0378                 6.0689                 0.3492

                     64                     65                     66
                      A                      A                      A
 Frequencies --   1324.9827              1328.5908              1328.8075
 Red. masses --      3.4956                 3.4728                 3.5046
 Frc consts  --      3.6157                 3.6117                 3.6459
 IR Inten    --      2.6323                 2.4341                 2.4468

                     67                     68                     69
                      A                      A                      A
 Frequencies --   1365.0421              1365.2548              1365.6125
 Red. masses --      1.6612                 1.6524                 1.6420
 Frc consts  --      1.8237                 1.8147                 1.8042
 IR Inten    --      0.2379                 0.1699                 2.9815

                     70                     71                     72
                      A                      A                      A
 Frequencies --   1480.4825              1480.9316              1480.9986
 Red. masses --      2.1107                 2.1153                 2.1161
 Frc consts  --      2.7257                 2.7334                 2.7346
 IR Inten    --     16.6233                 6.6444                 6.5833

                     73                     74                     75
                      A                      A                      A
 Frequencies --   1531.0501              1531.5043              1531.5844
 Red. masses --      2.0151                 1.9989                 1.9982
 Frc consts  --      2.7830                 2.7624                 2.7616
 IR Inten    --      2.0000                10.1632                10.1363

                     76                     77                     78
                      A                      A                      A
 Frequencies --   1630.1418              1630.4099              1630.4409
 Red. masses --      5.0998                 5.1134                 5.1129
 Frc consts  --      7.9846                 8.0085                 8.0081
 IR Inten    --      0.3995                 0.0432                 0.0461

                     79                     80                     81
                      A                      A                      A
 Frequencies --   1646.1340              1646.1599              1647.9413
 Red. masses --      5.2723                 5.2710                 5.2831
 Frc consts  --      8.4174                 8.4156                 8.4532
 IR Inten    --      3.4932                 3.5308                 0.3193

                     82                     83                     84
                      A                      A                      A
 Frequencies --   3176.0799              3176.1254              3176.1326
 Red. masses --      1.0854                 1.0854                 1.0853
 Frc consts  --      6.4507                 6.4509                 6.4508
 IR Inten    --      2.1573                 2.2189                 1.6565

                     85                     86                     87
                      A                      A                      A
 Frequencies --   3182.6402              3182.6704              3182.7386
 Red. masses --      1.0875                 1.0875                 1.0876
 Frc consts  --      6.4902                 6.4903                 6.4911
 IR Inten    --      0.7687                 0.7519                 0.1766

                     88                     89                     90
                      A                      A                      A
 Frequencies --   3192.8499              3192.8668              3192.9873
 Red. masses --      1.0916                 1.0917                 1.0917
 Frc consts  --      6.5568                 6.5569                 6.5579
 IR Inten    --     10.1903                10.5607                47.6036

                     91                     92                     93
                      A                      A                      A
 Frequencies --   3203.9616              3203.9828              3204.3606
 Red. masses --      1.0942                 1.0942                 1.0943
 Frc consts  --      6.6177                 6.6178                 6.6200
 IR Inten    --     41.8936                42.1549                 4.1884

                     94                     95                     96
                      A                      A                      A
 Frequencies --   3210.1639              3210.2074              3211.0802
 Red. masses --      1.0956                 1.0956                 1.0955
 Frc consts  --      6.6520                 6.6520                 6.6555
 IR Inten    --     19.5038                19.4038                16.3193

 - Thermochemistry -
 -------------------
 Temperature   298.150 Kelvin.  Pressure   1.00000 Atm.
 Atom     1 has atomic number  6 and mass  12.00000

 Molecular mass:   262.09114 amu.
 Principal axes and moments of inertia in atomic units:
                           1         2         3
     Eigenvalues --  5161.070155165.276398681.80729
           X            0.99993   0.01202   0.00002
           Y           -0.01202   0.99993  -0.00000
           Z           -0.00002   0.00000   1.00000
 This molecule is an asymmetric top.
 Rotational symmetry number  1.
 Warning -- assumption of classical behavior for rotation
           may cause significant error
 Rotational temperatures (Kelvin)      0.01678     0.01677     0.00998
 Rotational constants (GHZ):           0.34968     0.34940     0.20788
 Zero-point vibrational energy     719928.7 (Joules/Mol)
                                  172.06709 (Kcal/Mol)
 Warning -- explicit consideration of  21 degrees of freedom as
           vibrations may cause significant error
 Vibrational temperatures:     30.64    32.51    54.01    76.56    76.67
          (Kelvin)            101.53   261.08   291.04   291.47   353.30
                              373.78   374.15   588.02   588.19   593.22
                              599.99   617.85   618.05   732.90   733.13
                              742.85   910.34   910.37   911.26   995.47
                             1014.53  1014.67  1024.67  1024.82  1026.16
                             1095.45  1097.58  1097.67  1246.06  1246.31
                             1249.85  1342.08  1342.32  1344.06  1403.78
                             1404.04  1406.49  1439.24  1439.34  1440.33
                             1460.89  1460.90  1461.45  1514.58  1514.65
                             1514.91  1593.92  1594.26  1596.35  1598.15
                             1598.22  1606.02  1717.15  1717.72  1717.79
                             1754.09  1754.43  1756.60  1906.35  1911.55
                             1911.86  1963.99  1964.30  1964.81  2130.08
                             2130.73  2130.83  2202.84  2203.49  2203.61
                             2345.41  2345.80  2345.84  2368.42  2368.46
                             2371.02  4569.67  4569.74  4569.75  4579.11
                             4579.15  4579.25  4593.80  4593.82  4594.00
                             4609.79  4609.82  4610.36  4618.71  4618.77
                             4620.03

 Zero-point correction=                           0.274206 (Hartree/Particle)
 Thermal correction to Energy=                    0.290137
 Thermal correction to Enthalpy=                  0.291081
 Thermal correction to Gibbs Free Energy=         0.227611
 Sum of electronic and zero-point Energies=          -1036.024024
 Sum of electronic and thermal Energies=             -1036.008093
 Sum of electronic and thermal Enthalpies=           -1036.007149
 Sum of electronic and thermal Free Energies=        -1036.070619

                     E (Thermal)             CV                S
                      KCal/Mol        Cal/Mol-Kelvin    Cal/Mol-Kelvin
 Total                  182.064             62.540            133.584
 Electronic               0.000              0.000              0.000
 Translational            0.889              2.981             42.590
 Rotational               0.889              2.981             33.803
 Vibrational            180.286             56.579             57.190
 Vibration     1          0.593              1.985              6.510
 Vibration     2          0.593              1.985              6.392
 Vibration     3          0.594              1.982              5.385
 Vibration     4          0.596              1.976              4.694
 Vibration     5          0.596              1.976              4.691
 Vibration     6          0.598              1.968              4.137
 Vibration     7          0.630              1.865              2.313
 Vibration     8          0.639              1.837              2.112
 Vibration     9          0.639              1.836              2.110
 Vibration    10          0.660              1.770              1.762
 Vibration    11          0.668              1.746              1.663
 Vibration    12          0.668              1.746              1.661
 Vibration    13          0.773              1.451              0.931
 Vibration    14          0.773              1.451              0.931
 Vibration    15          0.776              1.444              0.918
 Vibration    16          0.780              1.433              0.902
 Vibration    17          0.791              1.406              0.861
 Vibration    18          0.791              1.406              0.860
 Vibration    19          0.865              1.229              0.635
 Vibration    20          0.865              1.229              0.635
 Vibration    21          0.871              1.214              0.619

                           ! Non-Optimized Parameters !
 Normal termination of Gaussian 16 at Sun Aug 23 10:44:36 2020.
 Gaussian 16:  ES64L-G16RevA.03 25-Dec-2016

 ----------------------------------------------------------------------
 # TD(NStates=10, Root=1) B3LYP/6-31G* scf=qc volume pop=NPA density=cu
 rrent Geom=AllCheck Guess=Read
 ----------------------------------------------------------------------

 Structure from the checkpoint file:  "phosphine_1_conf73.chk"
 -------------------
 Title Card Required
 -------------------
 Charge =  0 Multiplicity = 1

                         Standard orientation:
 ---------------------------------------------------------------------
 Center     Atomic      Atomic             Coordinates (Angstroms)
 Number     Number       Type             X           Y           Z
 ---------------------------------------------------------------------
      1          6           0       -3.915414   -1.730359    0.652292
      2          6           0       -3.354079   -2.268836   -0.507498
      3          6           0       -2.182982   -1.724212   -1.033874
      4          6           0       -1.541452   -0.645376   -0.402055
      5          6           0       -2.117228   -0.111895    0.761160
      6          6           0       -3.296271   -0.649546    1.282071
      7         15           0       -0.000298   -0.000560   -1.206104
      8          6           0        0.211604    1.656851   -0.402393
      9          6           0        0.966681    1.890295    0.757118
     10          6           0        1.090190    3.180443    1.277619
     11          6           0        0.458086    4.255672    0.651208
     12          6           0       -0.294125    4.037209   -0.504941
     13          6           0       -0.407560    2.750568   -1.031003
     14          6           0        1.329510   -1.012253   -0.402628
     15          6           0        1.155101   -1.781915    0.757696
     16          6           0        2.211092   -2.533444    1.278025
     17          6           0        3.457812   -2.524207    0.650616
     18          6           0        3.643779   -1.764565   -0.506355
     19          6           0        2.585785   -1.023495   -1.032230
     20          1           0       -4.833479   -2.146583    1.058745
     21          1           0       -3.833806   -3.105738   -1.008476
     22          1           0       -1.762582   -2.136289   -1.948518
     23          1           0       -1.645680    0.729326    1.260234
     24          1           0       -3.730416   -0.222395    2.182636
     25          1           0        1.463783    1.062331    1.253539
     26          1           0        1.681280    3.344036    2.175289
     27          1           0        0.556307    5.258999    1.057377
     28          1           0       -0.783470    4.870069   -1.003351
     29          1           0       -0.978874    2.591498   -1.942826
     30          1           0        0.190033   -1.798021    1.255142
     31          1           0        2.057949   -3.126322    2.176360
     32          1           0        4.277958   -3.110533    1.056666
     33          1           0        4.609333   -1.757593   -1.005538
     34          1           0        2.732970   -0.449992   -1.944680
 ---------------------------------------------------------------------

 SCF Done:  E(RB3LYP) =  -1036.29823030     a.u. after    1 cycles

 Excitation energies and oscillator strengths:

 Excited State   1:      Singlet-A      4.5088 eV  274.98 nm  f=0.1276  <S**2>=0.000
      69 -> 70         0.69681
 This state for optimization and/or second-order correction.
 Total Energy, E(TD-HF/TD-DFT) =  -1036.13253468
 Copying the excited state density for this state as the 1-particle RhoCI density.

 Excited State   2:      Singlet-A      4.5112 eV  274.83 nm  f=0.1284  <S**2>=0.000
      69 -> 71         0.69677

 Excited State   3:      Singlet-A      4.7566 eV  260.66 nm  f=0.0022  <S**2>=0.000
      67 -> 70         0.12385
      68 -> 71        -0.12431
      69 -> 72         0.67470

 Excited State   4:      Singlet-A      5.0571 eV  245.17 nm  f=0.0002  <S**2>=0.000
      66 -> 70        -0.16730
      69 -> 74         0.63099

 Excited State   5:      Singlet-A      5.0581 eV  245.12 nm  f=0.0002  <S**2>=0.000
      66 -> 71        -0.16773
      69 -> 75         0.63037

 Excited State   6:      Singlet-A      5.1505 eV  240.72 nm  f=0.0085  <S**2>=0.000
      69 -> 73         0.67910

 Excited State   7:      Singlet-A      5.4276 eV  228.43 nm  f=0.0147  <S**2>=0.000
      63 -> 72        -0.16605
      64 -> 74        -0.13772
      65 -> 75         0.13534
      67 -> 70         0.42426
      68 -> 71        -0.41757
      69 -> 72        -0.16500

 Excited State   8:      Singlet-A      5.5138 eV  224.86 nm  f=0.0005  <S**2>=0.000
      63 -> 74         0.14405
      64 -> 71         0.11906
      64 -> 72         0.21553
      64 -> 74         0.11412
      65 -> 70        -0.12229
      65 -> 72        -0.18298
      65 -> 75         0.11591
      66 -> 70         0.22644
      67 -> 70        -0.17630
      67 -> 71         0.20092
      68 -> 70        -0.20438
      68 -> 71        -0.18589
      68 -> 72         0.16311
      69 -> 74         0.28706

 Excited State   9:      Singlet-A      5.5150 eV  224.81 nm  f=0.0004  <S**2>=0.000
      63 -> 75         0.14437
      64 -> 70         0.11923
      64 -> 72        -0.18323
      64 -> 75        -0.11496
      65 -> 71         0.11790
      65 -> 72        -0.21561
      65 -> 74         0.11415
      66 -> 71         0.22464
      67 -> 70         0.20140
      67 -> 71         0.17903
      67 -> 72         0.16376
      68 -> 70        -0.18416
      68 -> 71         0.20658
      69 -> 75         0.28807

 Excited State  10:      Singlet-A      5.6182 eV  220.68 nm  f=0.0009  <S**2>=0.000
      67 -> 71         0.47670
      68 -> 70         0.48725

 The electronic state is 1-A.
 Alpha  occ. eigenvalues --  -77.08112 -10.19448 -10.19448 -10.19446 -10.19149
 Alpha  occ. eigenvalues --  -10.19146 -10.19143 -10.19119 -10.19117 -10.19114
 Alpha  occ. eigenvalues --  -10.19033 -10.19030 -10.19028 -10.19009 -10.19007
 Alpha  occ. eigenvalues --  -10.19005 -10.18964 -10.18962 -10.18959  -6.54843
 Alpha  occ. eigenvalues --   -4.71102  -4.71102  -4.70601  -0.85560  -0.84847
 Alpha  occ. eigenvalues --   -0.84844  -0.76669  -0.74367  -0.74365  -0.74329
 Alpha  occ. eigenvalues --   -0.73822  -0.73820  -0.64436  -0.60335  -0.60308
 Alpha  occ. eigenvalues --   -0.60306  -0.59207  -0.59206  -0.55448  -0.51436
 Alpha  occ. eigenvalues --   -0.51434  -0.49295  -0.45441  -0.45439  -0.44773
 Alpha  occ. eigenvalues --   -0.44345  -0.44344  -0.44067  -0.41946  -0.41869
 Alpha  occ. eigenvalues --   -0.41867  -0.40379  -0.40376  -0.36844  -0.36353
 Alpha  occ. eigenvalues --   -0.36349  -0.35898  -0.34253  -0.34251  -0.34224
 Alpha  occ. eigenvalues --   -0.31884  -0.31883  -0.26778  -0.25450  -0.25444
 Alpha  occ. eigenvalues --   -0.25243  -0.24705  -0.24703  -0.21142
 Alpha virt. eigenvalues --   -0.01882  -0.01876  -0.00830   0.00173   0.00426
 Alpha virt. eigenvalues --    0.00432   0.06881   0.06889   0.09492   0.11038
 Alpha virt. eigenvalues --    0.11040   0.13904   0.14528   0.14529   0.15164

 Mulliken charges:
               1
     1  C   -0.167435
     2  C   -0.124780
     3  C   -0.166683
     4  C   -0.126957
     5  C   -0.176503
     6  C   -0.117046
     7  P    0.450641
     8  C   -0.080983
     9  C   -0.153416
    10  C   -0.117590
    11  C   -0.124410
    12  C   -0.121376
    13  C   -0.152665
    14  C   -0.113228
    15  C   -0.155733
    16  C   -0.123386
    17  C   -0.144334
    18  C   -0.116913
    19  C   -0.172885
    20  H    0.108193
    21  H    0.114206
    22  H    0.116099
    23  H    0.121345
    24  H    0.117037
    25  H    0.166477
    26  H    0.145529
    27  H    0.144754
    28  H    0.142415
    29  H    0.149577
    30  H    0.162964
    31  H    0.133110
    32  H    0.127608
    33  H    0.127923
    34  H    0.128446
 Sum of Mulliken charges =  -0.00000

 Dipole moment (field-independent basis, Debye):
    X=              2.3858    Y=              2.9232    Z=             -0.1963  Tot=              3.7783
 Quadrupole moment (field-independent basis, Debye-Ang):
   XX=           -120.1487   YY=           -106.9085   ZZ=           -110.6728
   XY=             -2.3806   XZ=              1.3197   YZ=              0.3461

 Summary of Natural Population Analysis:

                                       Natural Population
                Natural  -----------------------------------------------
    Atom  No    Charge         Core      Valence    Rydberg      Total
 -----------------------------------------------------------------------
      C    1   -0.29498      1.99910     4.27927    0.01662     6.29498
      C    2   -0.24819      1.99910     4.23395    0.01514     6.24819
      C    3   -0.22622      1.99901     4.21100    0.01620     6.22622
      C    4   -0.47709      1.99886     4.45331    0.02492     6.47709
      C    5   -0.26697      1.99899     4.24992    0.01807     6.26697
      C    6   -0.22698      1.99909     4.21338    0.01451     6.22698
      P    7    1.24220      9.99750     3.71005    0.05025    13.75780
      C    8   -0.37869      1.99890     4.35550    0.02429     6.37869
      C    9   -0.21734      1.99899     4.20201    0.01634     6.21734
      C   10   -0.22591      1.99909     4.21282    0.01399     6.22591
      C   11   -0.20371      1.99909     4.19070    0.01392     6.20371
      C   12   -0.23957      1.99910     4.22604    0.01443     6.23957
      C   13   -0.19728      1.99902     4.18320    0.01506     6.19728
      C   14   -0.44096      1.99889     4.41578    0.02629     6.44096
      C   15   -0.21852      1.99899     4.20255    0.01698     6.21852
      C   16   -0.23715      1.99909     4.22355    0.01451     6.23715
      C   17   -0.24588      1.99909     4.23149    0.01529     6.24588
      C   18   -0.23287      1.99910     4.21938    0.01439     6.23287
      C   19   -0.23075      1.99902     4.21577    0.01597     6.23075
      H   20    0.22572      0.00000     0.77339    0.00089     0.77428
      H   21    0.23007      0.00000     0.76904    0.00089     0.76993
      H   22    0.22555      0.00000     0.77340    0.00106     0.77445
      H   23    0.23101      0.00000     0.76755    0.00144     0.76899
      H   24    0.23180      0.00000     0.76733    0.00088     0.76820
      H   25    0.25630      0.00000     0.74250    0.00121     0.74370
      H   26    0.24499      0.00000     0.75415    0.00086     0.75501
      H   27    0.24151      0.00000     0.75766    0.00083     0.75849
      H   28    0.24317      0.00000     0.75595    0.00087     0.75683
      H   29    0.24294      0.00000     0.75582    0.00124     0.75706
      H   30    0.25388      0.00000     0.74464    0.00149     0.74612
      H   31    0.23937      0.00000     0.75974    0.00089     0.76063
      H   32    0.23403      0.00000     0.76507    0.00090     0.76597
      H   33    0.23583      0.00000     0.76321    0.00096     0.76417
      H   34    0.23069      0.00000     0.76829    0.00102     0.76931
 =======================================================================
   * Total *    0.00000     45.98001    91.64741    0.37258   138.00000

 Normal termination of Gaussian 16 at Sun Aug 23 10:56:01 2020.
