 Gaussian 16, Revision A.03,

 ---------------------------------
 # opt=CalcAll B3LYP/6-31G* scf=qc
 ---------------------------------

 -------------------
 Title Card Required
 -------------------
 Symbolic Z-matrix:
 Charge =  0 Multiplicity = 1

 SCF Done:  E(RB3LYP) =  -814.894806979     a.u. after    7 cycles
 SCF Done:  E(RB3LYP) =  -814.897290803     a.u. after   13 cycles
 SCF Done:  E(RB3LYP) =  -814.909712671     a.u. after   15 cycles
 SCF Done:  E(RB3LYP) =  -814.911713385     a.u. after   11 cycles
 SCF Done:  E(RB3LYP) =  -814.912085018     a.u. after   11 cycles
 SCF Done:  E(RB3LYP) =  -814.912094575     a.u. after    7 cycles
 SCF Done:  E(RB3LYP) =  -814.912095270     a.u. after    5 cycles
 SCF Done:  E(RB3LYP) =  -814.912096320     a.u. after    7 cycles
 SCF Done:  E(RB3LYP) =  -814.912080406     a.u. after   13 cycles
 SCF Done:  E(RB3LYP) =  -814.912117501     a.u. after    5 cycles
 SCF Done:  E(RB3LYP) =  -814.912126642     a.u. after    7 cycles
 SCF Done:  E(RB3LYP) =  -814.912127285     a.u. after    4 cycles
 SCF Done:  E(RB3LYP) =  -814.912127457     a.u. after    3 cycles
 SCF Done:  E(RB3LYP) =  -814.912127443     a.u. after    2 cycles
 Optimization completed.
    -- Stationary point found.
 Normal termination of Gaussian 16 at Sun Aug 23 07:43:07 2020.

 ----------------------------------------------------------------------
 # freq B3LYP/6-31G* scf=qc volume NMR pop=NPA density=current Geom=All
 Check Guess=Read
 ----------------------------------------------------------------------

 Structure from the checkpoint file:  "phosphine_2_conf162.chk"
 -------------------
 Title Card Required
 -------------------
 Charge =  0 Multiplicity = 1

 SCF Done:  E(RB3LYP) =  -814.912127443     a.u. after    1 cycles

      1  C    Isotropic =   175.8070   Anisotropy =    18.5736

      2  C    Isotropic =   163.7998   Anisotropy =    17.2394

      3  C    Isotropic =   160.5328   Anisotropy =    21.4602

      4  C    Isotropic =   158.8752   Anisotropy =    25.0731

      5  H    Isotropic =    30.4907   Anisotropy =     6.1008

      6  H    Isotropic =    31.2679   Anisotropy =     6.3649

      7  P    Isotropic =   390.4256   Anisotropy =    22.2495

      8  C    Isotropic =   156.9779   Anisotropy =    26.1850

      9  H    Isotropic =    30.9631   Anisotropy =     6.0327

     10  H    Isotropic =    30.5781   Anisotropy =     5.1946

     11  C    Isotropic =   157.6991   Anisotropy =    24.4612

     12  C    Isotropic =   163.1813   Anisotropy =    18.0346

     13  C    Isotropic =   175.7096   Anisotropy =    18.5197

     14  C    Isotropic =   151.7580   Anisotropy =    32.6967

     15  H    Isotropic =    30.7116   Anisotropy =     3.4218

     16  H    Isotropic =    30.8169   Anisotropy =     6.0867

     17  C    Isotropic =   157.4787   Anisotropy =    31.0607

     18  C    Isotropic =   161.2331   Anisotropy =    24.3826

     19  C    Isotropic =   173.6609   Anisotropy =    24.1095

     20  H    Isotropic =    31.1620   Anisotropy =    10.3810

     21  H    Isotropic =    31.4972   Anisotropy =     7.6915

     22  H    Isotropic =    30.9882   Anisotropy =     5.8756

     23  H    Isotropic =    30.4751   Anisotropy =     9.2496

     24  H    Isotropic =    30.7657   Anisotropy =     7.3015

     25  H    Isotropic =    30.8676   Anisotropy =     4.5535

     26  H    Isotropic =    30.4274   Anisotropy =     6.7141

     27  H    Isotropic =    30.3316   Anisotropy =     6.2149

     28  H    Isotropic =    30.6388   Anisotropy =     5.8403

     29  H    Isotropic =    30.7953   Anisotropy =     7.1305

     30  H    Isotropic =    30.4755   Anisotropy =     9.2039

     31  H    Isotropic =    30.9251   Anisotropy =     5.6447

     32  H    Isotropic =    31.1396   Anisotropy =    10.3794

     33  H    Isotropic =    31.4501   Anisotropy =     7.7106

     34  H    Isotropic =    30.6152   Anisotropy =     6.7057

     35  H    Isotropic =    30.5594   Anisotropy =     4.6075

     36  H    Isotropic =    30.7489   Anisotropy =     6.3146

     37  H    Isotropic =    30.6828   Anisotropy =     5.5421

     38  H    Isotropic =    31.1924   Anisotropy =     7.8887

     39  H    Isotropic =    31.0568   Anisotropy =    10.3716

     40  H    Isotropic =    31.2356   Anisotropy =     7.4004

  Exact polarizability: 179.960   0.863 156.243   1.118  -0.295 128.452
 Approx polarizability: 215.311   0.192 212.916   1.546  -0.955 194.040

                      1                      2                      3
                      A                      A                      A
 Frequencies --     20.4948                28.6143                40.1849
 Red. masses --      2.4631                 2.8399                 2.6932
 Frc consts  --      0.0006                 0.0014                 0.0026
 IR Inten    --      0.0248                 0.0095                 0.0243

                      4                      5                      6
                      A                      A                      A
 Frequencies --     52.3344                61.3296                63.4603
 Red. masses --      2.3481                 2.0486                 2.6636
 Frc consts  --      0.0038                 0.0045                 0.0063
 IR Inten    --      0.0913                 0.0861                 0.0323

                      7                      8                      9
                      A                      A                      A
 Frequencies --     91.7357               115.3126               125.8088
 Red. masses --      2.5393                 2.5658                 1.9998
 Frc consts  --      0.0126                 0.0201                 0.0186
 IR Inten    --      0.2254                 0.1596                 0.0780

                     10                     11                     12
                      A                      A                      A
 Frequencies --    133.8675               151.8941               166.6920
 Red. masses --      1.9085                 1.8620                 2.0563
 Frc consts  --      0.0202                 0.0253                 0.0337
 IR Inten    --      0.0445                 0.3617                 0.4800

                     13                     14                     15
                      A                      A                      A
 Frequencies --    221.2747               227.7746               237.1577
 Red. masses --      2.0870                 1.6078                 2.7423
 Frc consts  --      0.0602                 0.0491                 0.0909
 IR Inten    --      0.1378                 0.0974                 0.3375

                     16                     17                     18
                      A                      A                      A
 Frequencies --    245.2679               262.9746               279.9116
 Red. masses --      1.2292                 1.8821                 1.9237
 Frc consts  --      0.0436                 0.0767                 0.0888
 IR Inten    --      0.0307                 0.0889                 0.2170

                     19                     20                     21
                      A                      A                      A
 Frequencies --    304.8825               314.2365               351.5781
 Red. masses --      1.9913                 2.3568                 3.4083
 Frc consts  --      0.1091                 0.1371                 0.2482
 IR Inten    --      0.4218                 0.5174                 0.4959

                     22                     23                     24
                      A                      A                      A
 Frequencies --    416.0238               427.4192               448.3240
 Red. masses --      2.9377                 2.3660                 2.7024
 Frc consts  --      0.2996                 0.2547                 0.3200
 IR Inten    --      1.2060                 1.3810                 3.2034

                     25                     26                     27
                      A                      A                      A
 Frequencies --    689.0925               705.7669               717.1900
 Red. masses --      2.5716                 2.8265                 1.1826
 Frc consts  --      0.7195                 0.8295                 0.3584
 IR Inten    --      0.2482                 4.1452                 1.9158

                     28                     29                     30
                      A                      A                      A
 Frequencies --    729.4412               740.6653               758.0659
 Red. masses --      1.6402                 1.1729                 2.0195
 Frc consts  --      0.5142                 0.3791                 0.6838
 IR Inten    --      5.4607                 8.8989                15.5621

                     31                     32                     33
                      A                      A                      A
 Frequencies --    778.9679               794.9590               798.1718
 Red. masses --      1.2735                 1.3474                 1.3836
 Frc consts  --      0.4553                 0.5017                 0.5193
 IR Inten    --      2.3862                 0.5276                 2.5041

                     34                     35                     36
                      A                      A                      A
 Frequencies --    869.9866               877.2471               897.9491
 Red. masses --      2.5333                 2.3866                 1.2784
 Frc consts  --      1.1297                 1.0821                 0.6073
 IR Inten    --      0.5857                 0.6064                 1.1485

                     37                     38                     39
                      A                      A                      A
 Frequencies --    906.9837               925.7511               937.7950
 Red. masses --      1.8341                 1.3676                 1.3848
 Frc consts  --      0.8889                 0.6906                 0.7176
 IR Inten    --      3.7560                 4.0135                 5.5248

                     40                     41                     42
                      A                      A                      A
 Frequencies --    985.0411               987.3488              1025.4407
 Red. masses --      2.0573                 1.9427                 3.4668
 Frc consts  --      1.1761                 1.1158                 2.1478
 IR Inten    --      4.7313                 2.0545                 1.2399

                     43                     44                     45
                      A                      A                      A
 Frequencies --   1052.0773              1066.2674              1067.4332
 Red. masses --      1.2175                 1.4793                 2.4180
 Frc consts  --      0.7940                 0.9909                 1.6233
 IR Inten    --      2.5386                 4.7026                 0.8732

                     46                     47                     48
                      A                      A                      A
 Frequencies --   1080.9157              1086.6740              1096.8451
 Red. masses --      2.2014                 1.8310                 1.3376
 Frc consts  --      1.5154                 1.2739                 0.9481
 IR Inten    --      0.6963                 0.6769                 5.9983

                     49                     50                     51
                      A                      A                      A
 Frequencies --   1111.5087              1123.7217              1128.2700
 Red. masses --      1.7129                 1.7515                 1.9399
 Frc consts  --      1.2469                 1.3031                 1.4550
 IR Inten    --      6.3110                 4.4736                 0.8342

                     52                     53                     54
                      A                      A                      A
 Frequencies --   1221.4019              1227.6507              1240.1495
 Red. masses --      1.4855                 1.4546                 1.3820
 Frc consts  --      1.3057                 1.2916                 1.2523
 IR Inten    --      0.4319                 0.6800                 2.7616

                     55                     56                     57
                      A                      A                      A
 Frequencies --   1248.3159              1252.7193              1266.3400
 Red. masses --      1.4795                 1.3634                 1.3254
 Frc consts  --      1.3584                 1.2607                 1.2522
 IR Inten    --      1.3637                 2.7176                 2.5528

                     58                     59                     60
                      A                      A                      A
 Frequencies --   1316.9599              1319.1917              1323.7963
 Red. masses --      1.1952                 1.1858                 1.1970
 Frc consts  --      1.2214                 1.2158                 1.2359
 IR Inten    --      0.3308                 0.2338                 1.9506

                     61                     62                     63
                      A                      A                      A
 Frequencies --   1337.0801              1339.1661              1350.6147
 Red. masses --      1.1463                 1.1561                 1.0818
 Frc consts  --      1.2074                 1.2216                 1.1627
 IR Inten    --      4.2584                 2.8000                 0.3484

                     64                     65                     66
                      A                      A                      A
 Frequencies --   1351.4432              1393.7951              1396.0070
 Red. masses --      1.3392                 1.4250                 1.3602
 Frc consts  --      1.4411                 1.6310                 1.5619
 IR Inten    --      3.4884                 4.0659                 9.6037

                     67                     68                     69
                      A                      A                      A
 Frequencies --   1397.6691              1398.2535              1412.5320
 Red. masses --      1.3651                 1.3550                 1.5114
 Frc consts  --      1.5711                 1.5609                 1.7767
 IR Inten    --      4.2396                 3.3132                 1.9176

                     70                     71                     72
                      A                      A                      A
 Frequencies --   1440.8807              1442.0752              1442.4458
 Red. masses --      1.2421                 1.2591                 1.2596
 Frc consts  --      1.5193                 1.5427                 1.5441
 IR Inten    --      1.2668                 5.1566                 6.7343

                     73                     74                     75
                      A                      A                      A
 Frequencies --   1484.5731              1495.6407              1497.7079
 Red. masses --      1.0881                 1.0873                 1.0881
 Frc consts  --      1.4130                 1.4330                 1.4381
 IR Inten    --      0.1429                 2.1630                 2.3462

                     76                     77                     78
                      A                      A                      A
 Frequencies --   1515.2273              1516.9967              1517.0968
 Red. masses --      1.0705                 1.0689                 1.0696
 Frc consts  --      1.4481                 1.4493                 1.4504
 IR Inten    --      2.1752                 0.3760                 1.3212

                     79                     80                     81
                      A                      A                      A
 Frequencies --   1520.0868              1520.3111              1526.4911
 Red. masses --      1.0808                 1.0811                 1.0691
 Frc consts  --      1.4714                 1.4722                 1.4678
 IR Inten    --      0.4082                 1.4944                 0.0596

                     82                     83                     84
                      A                      A                      A
 Frequencies --   1529.7763              1532.5826              1532.7548
 Red. masses --      1.0410                 1.0533                 1.0541
 Frc consts  --      1.4354                 1.4576                 1.4590
 IR Inten    --      6.0707                 5.3622                 4.3501

                     85                     86                     87
                      A                      A                      A
 Frequencies --   1538.2576              1538.3751              1540.6073
 Red. masses --      1.0612                 1.0614                 1.0827
 Frc consts  --      1.4795                 1.4800                 1.5141
 IR Inten    --      4.9613                 6.5195                 3.7061

                     88                     89                     90
                      A                      A                      A
 Frequencies --   3012.2862              3020.8185              3022.7262
 Red. masses --      1.0588                 1.0598                 1.0586
 Frc consts  --      5.6606                 5.6982                 5.6988
 IR Inten    --      9.3275                 1.7069                 1.6952

                     91                     92                     93
                      A                      A                      A
 Frequencies --   3023.4037              3025.2486              3026.3809
 Red. masses --      1.0592                 1.0638                 1.0621
 Frc consts  --      5.7046                 5.7361                 5.7315
 IR Inten    --     29.7085                15.2610                18.1829

                     94                     95                     96
                      A                      A                      A
 Frequencies --   3028.7608              3031.8971              3036.7159
 Red. masses --      1.0599                 1.0610                 1.0614
 Frc consts  --      5.7287                 5.7463                 5.7666
 IR Inten    --     34.9210                47.9909                29.2927

                     97                     98                     99
                      A                      A                      A
 Frequencies --   3041.9711              3042.9859              3043.2836
 Red. masses --      1.0378                 1.0379                 1.0381
 Frc consts  --      5.6584                 5.6622                 5.6646
 IR Inten    --     50.4810                17.0328                32.3188

                    100                    101                    102
                      A                      A                      A
 Frequencies --   3046.3220              3054.7323              3058.6210
 Red. masses --      1.0997                 1.1032                 1.1011
 Frc consts  --      6.0126                 6.0655                 6.0694
 IR Inten    --      5.2249                 0.9200                 3.1368

                    103                    104                    105
                      A                      A                      A
 Frequencies --   3059.7217              3060.1950              3061.3332
 Red. masses --      1.0967                 1.0972                 1.1013
 Frc consts  --      6.0491                 6.0536                 6.0813
 IR Inten    --     35.9660                32.5172                 1.2101

                    106                    107                    108
                      A                      A                      A
 Frequencies --   3077.5736              3080.1311              3084.3712
 Red. masses --      1.1052                 1.1043                 1.1043
 Frc consts  --      6.1675                 6.1724                 6.1894
 IR Inten    --      8.4370                95.3869                60.0456

                    109                    110                    111
                      A                      A                      A
 Frequencies --   3106.2996              3106.6781              3106.8850
 Red. masses --      1.1018                 1.1015                 1.1025
 Frc consts  --      6.2638                 6.2636                 6.2700
 IR Inten    --     71.4839                65.4942                29.4761

                    112                    113                    114
                      A                      A                      A
 Frequencies --   3111.0267              3114.3118              3115.0954
 Red. masses --      1.1019                 1.1019                 1.1018
 Frc consts  --      6.2837                 6.2965                 6.2993
 IR Inten    --     43.2225                56.7920                50.7832

 - Thermochemistry -
 -------------------
 Temperature   298.150 Kelvin.  Pressure   1.00000 Atm.
 Atom     1 has atomic number  6 and mass  12.00000

 Molecular mass:   202.18504 amu.
 Principal axes and moments of inertia in atomic units:
                           1         2         3
     Eigenvalues --  3044.115155703.223777906.30369
           X            0.99999  -0.00180  -0.00295
           Y            0.00179   1.00000  -0.00124
           Z            0.00296   0.00123   0.99999
 This molecule is an asymmetric top.
 Rotational symmetry number  1.
 Warning -- assumption of classical behavior for rotation
           may cause significant error
 Rotational temperatures (Kelvin)      0.02845     0.01519     0.01096
 Rotational constants (GHZ):           0.59286     0.31644     0.22827
 Zero-point vibrational energy     976469.1 (Joules/Mol)
                                  233.38171 (Kcal/Mol)
 Warning -- explicit consideration of  24 degrees of freedom as
           vibrations may cause significant error
 Vibrational temperatures:     29.49    41.17    57.82    75.30    88.24
          (Kelvin)             91.31   131.99   165.91   181.01   192.61
                              218.54   239.83   318.36   327.72   341.22
                              352.89   378.36   402.73   438.66   452.12
                              505.84   598.57   614.96   645.04   991.45
                             1015.44  1031.88  1049.50  1065.65  1090.69
                             1120.76  1143.77  1148.39  1251.72  1262.16
                             1291.95  1304.95  1331.95  1349.28  1417.25
                             1420.57  1475.38  1513.70  1534.12  1535.80
                             1555.20  1563.48  1578.12  1599.21  1616.78
                             1623.33  1757.32  1766.32  1784.30  1796.05
                             1802.38  1821.98  1894.81  1898.02  1904.65
                             1923.76  1926.76  1943.23  1944.43  2005.36
                             2008.54  2010.93  2011.77  2032.32  2073.11
                             2074.82  2075.36  2135.97  2151.89  2154.87
                             2180.07  2182.62  2182.76  2187.07  2187.39
                             2196.28  2201.01  2205.04  2205.29  2213.21
                             2213.38  2216.59  4334.01  4346.28  4349.03
                             4350.00  4352.66  4354.29  4357.71  4362.22
                             4369.16  4376.72  4378.18  4378.61  4382.98
                             4395.08  4400.67  4402.26  4402.94  4404.58
                             4427.94  4431.62  4437.72  4469.27  4469.82
                             4470.11  4476.07  4480.80  4481.93

 Zero-point correction=                           0.371917 (Hartree/Particle)
 Thermal correction to Energy=                    0.390692
 Thermal correction to Enthalpy=                  0.391636
 Thermal correction to Gibbs Free Energy=         0.322294
 Sum of electronic and zero-point Energies=           -814.540210
 Sum of electronic and thermal Energies=              -814.521436
 Sum of electronic and thermal Enthalpies=            -814.520492
 Sum of electronic and thermal Free Energies=         -814.589833

                     E (Thermal)             CV                S
                      KCal/Mol        Cal/Mol-Kelvin    Cal/Mol-Kelvin
 Total                  245.163             66.352            145.942
 Electronic               0.000              0.000              0.000
 Translational            0.889              2.981             41.817
 Rotational               0.889              2.981             33.284
 Vibrational            243.385             60.391             70.841
 Vibration     1          0.593              1.986              6.586
 Vibration     2          0.593              1.984              5.923
 Vibration     3          0.594              1.981              5.250
 Vibration     4          0.596              1.977              4.727
 Vibration     5          0.597              1.973              4.414
 Vibration     6          0.597              1.972              4.347
 Vibration     7          0.602              1.955              3.623
 Vibration     8          0.608              1.937              3.177
 Vibration     9          0.611              1.927              3.009
 Vibration    10          0.613              1.920              2.890
 Vibration    11          0.619              1.901              2.648
 Vibration    12          0.624              1.883              2.472
 Vibration    13          0.648              1.809              1.949
 Vibration    14          0.651              1.799              1.896
 Vibration    15          0.656              1.784              1.824
 Vibration    16          0.660              1.771              1.764
 Vibration    17          0.670              1.741              1.642
 Vibration    18          0.680              1.711              1.534
 Vibration    19          0.696              1.664              1.390
 Vibration    20          0.702              1.646              1.340
 Vibration    21          0.728              1.572              1.159
 Vibration    22          0.779              1.435              0.906
 Vibration    23          0.789              1.411              0.867
 Vibration    24          0.807              1.365              0.801

 Optimization completed.
    -- Stationary point found.
 Normal termination of Gaussian 16 at Sun Aug 23 07:49:49 2020.
 Gaussian 16:  ES64L-G16RevA.03 25-Dec-2016

 ----------------------------------------------------------------------
 # TD(NStates=10, Root=1) B3LYP/6-31G* scf=qc volume pop=NPA density=cu
 rrent Geom=AllCheck Guess=Read
 ----------------------------------------------------------------------

 Structure from the checkpoint file:  "phosphine_2_conf163.chk"
 -------------------
 Title Card Required
 -------------------
 Charge =  0 Multiplicity = 1

                         Standard orientation:
 ---------------------------------------------------------------------
 Center     Atomic      Atomic             Coordinates (Angstroms)
 Number     Number       Type             X           Y           Z
 ---------------------------------------------------------------------
      1          6           0       -4.711609   -0.613837    1.329216
      2          6           0       -4.440592   -1.054882   -0.113960
      3          6           0       -3.132764   -0.509631   -0.715728
      4          6           0       -1.857794   -1.045892   -0.045788
      5          1           0       -1.833169   -0.783831    1.020727
      6          1           0       -1.857645   -2.143622   -0.100396
      7         15           0       -0.273760   -0.472716   -0.882686
      8          6           0       -0.140496    1.249736   -0.131782
      9          1           0       -1.140248    1.698934   -0.212064
     10          1           0        0.079266    1.166891    0.941413
     11          6           0        0.868176    2.170542   -0.838488
     12          6           0        0.872951    3.618053   -0.315398
     13          6           0        1.361992    3.772557    1.129622
     14          6           0        0.937191   -1.446062    0.176223
     15          1           0        0.775465   -1.220162    1.240697
     16          1           0        0.671847   -2.503884    0.037360
     17          6           0        2.416442   -1.250755   -0.187685
     18          6           0        3.354923   -2.175361    0.601575
     19          6           0        4.832328   -1.978492    0.246508
     20          1           0       -5.678710   -0.991290    1.680754
     21          1           0       -4.733247    0.480455    1.409516
     22          1           0       -3.945270   -0.981700    2.020732
     23          1           0       -5.276364   -0.728862   -0.747959
     24          1           0       -4.430048   -2.153074   -0.166001
     25          1           0       -3.150273    0.588656   -0.661830
     26          1           0       -3.102162   -0.760447   -1.784197
     27          1           0        0.640221    2.181673   -1.912344
     28          1           0        1.882250    1.756848   -0.750012
     29          1           0       -0.139826    4.036759   -0.406048
     30          1           0        1.511623    4.223167   -0.973216
     31          1           0        0.711299    3.250259    1.840053
     32          1           0        1.389939    4.827627    1.425271
     33          1           0        2.375109    3.367658    1.248206
     34          1           0        2.711599   -0.208155   -0.006770
     35          1           0        2.555127   -1.424860   -1.263885
     36          1           0        3.069002   -3.220755    0.417364
     37          1           0        3.210211   -2.005829    1.678096
     38          1           0        5.013450   -2.173445   -0.817655
     39          1           0        5.475794   -2.652967    0.822944
     40          1           0        5.156673   -0.951154    0.453651
 ---------------------------------------------------------------------

 SCF Done:  E(RB3LYP) =  -814.912127443     a.u. after    1 cycles

 Excitation energies and oscillator strengths:

 Excited State   1:      Singlet-A      6.5405 eV  189.56 nm  f=0.1509  <S**2>=0.000
      57 -> 58         0.69468
 This state for optimization and/or second-order correction.
 Total Energy, E(TD-HF/TD-DFT) =  -814.671769177
 Copying the excited state density for this state as the 1-particle RhoCI density.

 Excited State   2:      Singlet-A      6.7054 eV  184.90 nm  f=0.1393  <S**2>=0.000
      57 -> 59         0.69428

 Excited State   3:      Singlet-A      7.2416 eV  171.21 nm  f=0.0112  <S**2>=0.000
      57 -> 60         0.68962

 Excited State   4:      Singlet-A      7.7059 eV  160.90 nm  f=0.0110  <S**2>=0.000
      57 -> 61         0.66222
      57 -> 63        -0.18327

 Excited State   5:      Singlet-A      7.8887 eV  157.17 nm  f=0.0056  <S**2>=0.000
      57 -> 62         0.63209
      57 -> 63        -0.25233
      57 -> 64         0.11723

 Excited State   6:      Singlet-A      7.9719 eV  155.53 nm  f=0.0196  <S**2>=0.000
      57 -> 61         0.17567
      57 -> 62         0.26573
      57 -> 63         0.50664
      57 -> 64        -0.36021

 Excited State   7:      Singlet-A      8.1900 eV  151.38 nm  f=0.0007  <S**2>=0.000
      55 -> 58         0.22766
      55 -> 59        -0.11008
      57 -> 61         0.10501
      57 -> 63         0.30980
      57 -> 64         0.53975
      57 -> 65         0.12827

 Excited State   8:      Singlet-A      8.1980 eV  151.24 nm  f=0.0116  <S**2>=0.000
      55 -> 58        -0.37709
      55 -> 59         0.11314
      56 -> 58         0.29156
      56 -> 59         0.42616
      57 -> 63         0.13215
      57 -> 64         0.17952
      57 -> 65         0.10977

 Excited State   9:      Singlet-A      8.3004 eV  149.37 nm  f=0.0361  <S**2>=0.000
      55 -> 59        -0.24589
      56 -> 58         0.25194
      56 -> 59        -0.12562
      57 -> 64        -0.14423
      57 -> 65         0.55349

 Excited State  10:      Singlet-A      8.4329 eV  147.02 nm  f=0.1115  <S**2>=0.000
      55 -> 58         0.44980
      55 -> 59        -0.10660
      56 -> 58         0.31776
      56 -> 59         0.29603
      57 -> 65        -0.20657
      57 -> 66        -0.13349

 The electronic state is 1-A.
 Alpha  occ. eigenvalues --  -77.06377 -10.18035 -10.18002 -10.17980 -10.17946
 Alpha  occ. eigenvalues --  -10.17941 -10.17910 -10.17869 -10.17844 -10.17823
 Alpha  occ. eigenvalues --  -10.17200 -10.17176 -10.17170  -6.53156  -4.69406
 Alpha  occ. eigenvalues --   -4.69400  -4.68915  -0.79926  -0.78944  -0.78789
 Alpha  occ. eigenvalues --   -0.74224  -0.71530  -0.71239  -0.65922  -0.63257
 Alpha  occ. eigenvalues --   -0.62319  -0.57892  -0.56611  -0.56494  -0.52182
 Alpha  occ. eigenvalues --   -0.47141  -0.45737  -0.45536  -0.44449  -0.43618
 Alpha  occ. eigenvalues --   -0.42233  -0.42006  -0.41828  -0.40369  -0.39406
 Alpha  occ. eigenvalues --   -0.38332  -0.38006  -0.37133  -0.36458  -0.35520
 Alpha  occ. eigenvalues --   -0.35278  -0.34834  -0.33800  -0.33335  -0.32782
 Alpha  occ. eigenvalues --   -0.32411  -0.32190  -0.31989  -0.31862  -0.28739
 Alpha  occ. eigenvalues --   -0.28379  -0.21525
 Alpha virt. eigenvalues --    0.05407   0.05814   0.08114   0.09792   0.10413
 Alpha virt. eigenvalues --    0.10720   0.11560   0.11747   0.12592   0.13308
 Alpha virt. eigenvalues --    0.14092   0.14443   0.15170   0.15626   0.15717

 Mulliken charges:
               1
     1  C   -0.428395
     2  C   -0.236586
     3  C   -0.243454
     4  C   -0.396873
     5  H    0.136442
     6  H    0.128872
     7  P    0.296562
     8  C   -0.421341
     9  H    0.157217
    10  H    0.182113
    11  C   -0.231777
    12  C   -0.258077
    13  C   -0.442409
    14  C   -0.416528
    15  H    0.174588
    16  H    0.153080
    17  C   -0.223847
    18  C   -0.257378
    19  C   -0.440269
    20  H    0.131571
    21  H    0.132656
    22  H    0.125948
    23  H    0.119671
    24  H    0.122264
    25  H    0.124528
    26  H    0.119352
    27  H    0.137466
    28  H    0.128921
    29  H    0.129099
    30  H    0.132733
    31  H    0.137463
    32  H    0.144510
    33  H    0.141732
    34  H    0.128584
    35  H    0.129930
    36  H    0.129302
    37  H    0.125381
    38  H    0.143274
    39  H    0.142156
    40  H    0.141520
 Sum of Mulliken charges =  -0.00000

 Dipole moment (field-independent basis, Debye):
    X=              0.6243    Y=              0.1988    Z=              0.6902  Tot=              0.9517
 Quadrupole moment (field-independent basis, Debye-Ang):
   XX=           -100.7011   YY=            -94.1781   ZZ=            -96.4231
   XY=             -1.3339   XZ=              1.4994   YZ=              0.0499

 Summary of Natural Population Analysis:

                                       Natural Population
                Natural  -----------------------------------------------
    Atom  No    Charge         Core      Valence    Rydberg      Total
 -----------------------------------------------------------------------
      C    1   -0.67723      1.99946     4.66995    0.00781     6.67723
      C    2   -0.45094      1.99935     4.44038    0.01121     6.45094
      C    3   -0.45991      1.99933     4.44869    0.01189     6.45991
      C    4   -0.86330      1.99932     4.83917    0.02481     6.86330
      H    5    0.23589      0.00000     0.75652    0.00759     0.76411
      H    6    0.23563      0.00000     0.75928    0.00509     0.76437
      P    7    1.00851      9.99763     3.88734    0.10652    13.99149
      C    8   -0.76489      1.99929     4.74526    0.02034     6.76489
      H    9    0.23404      0.00000     0.76062    0.00534     0.76596
      H   10    0.26135      0.00000     0.73605    0.00261     0.73865
      C   11   -0.46387      1.99932     4.44846    0.01609     6.46387
      C   12   -0.46013      1.99934     4.44873    0.01206     6.46013
      C   13   -0.67763      1.99946     4.67061    0.00755     6.67763
      C   14   -0.77971      1.99930     4.76061    0.01979     6.77971
      H   15    0.26181      0.00000     0.73602    0.00217     0.73819
      H   16    0.24128      0.00000     0.75514    0.00358     0.75872
      C   17   -0.46486      1.99932     4.44830    0.01725     6.46486
      C   18   -0.45839      1.99934     4.44705    0.01200     6.45839
      C   19   -0.67282      1.99946     4.66579    0.00756     6.67282
      H   20    0.22456      0.00000     0.77255    0.00290     0.77544
      H   21    0.21925      0.00000     0.77873    0.00202     0.78075
      H   22    0.21281      0.00000     0.78134    0.00585     0.78719
      H   23    0.22415      0.00000     0.77185    0.00400     0.77585
      H   24    0.22185      0.00000     0.77406    0.00409     0.77815
      H   25    0.21899      0.00000     0.77859    0.00243     0.78101
      H   26    0.22159      0.00000     0.77149    0.00692     0.77841
      H   27    0.23674      0.00000     0.76121    0.00205     0.76326
      H   28    0.22122      0.00000     0.77070    0.00808     0.77878
      H   29    0.22519      0.00000     0.77247    0.00234     0.77481
      H   30    0.23362      0.00000     0.76441    0.00196     0.76638
      H   31    0.21872      0.00000     0.78004    0.00124     0.78128
      H   32    0.23336      0.00000     0.76567    0.00097     0.76664
      H   33    0.22391      0.00000     0.77466    0.00142     0.77609
      H   34    0.22045      0.00000     0.77399    0.00556     0.77955
      H   35    0.22868      0.00000     0.76647    0.00485     0.77132
      H   36    0.22560      0.00000     0.77210    0.00230     0.77440
      H   37    0.22322      0.00000     0.77493    0.00185     0.77678
      H   38    0.22535      0.00000     0.77357    0.00108     0.77465
      H   39    0.23164      0.00000     0.76752    0.00083     0.76836
      H   40    0.22427      0.00000     0.77465    0.00107     0.77573
 =======================================================================
   * Total *   -0.00000     33.98993    79.64494    0.36512   114.00000

 Normal termination of Gaussian 16 at Sun Aug 23 07:57:17 2020.
