 Gaussian 16, Revision A.03,

 ---------------------------------
 # opt=CalcAll B3LYP/6-31G* scf=qc
 ---------------------------------

 -------------------
 Title Card Required
 -------------------
 Symbolic Z-matrix:
 Charge =  0 Multiplicity = 1

 SCF Done:  E(RB3LYP) =  -1029.59835887     a.u. after    9 cycles
 SCF Done:  E(RB3LYP) =  -1029.61481832     a.u. after   17 cycles
 SCF Done:  E(RB3LYP) =  -1029.62147311     a.u. after   19 cycles
 SCF Done:  E(RB3LYP) =  -1029.62398883     a.u. after   15 cycles
 SCF Done:  E(RB3LYP) =  -1029.62473263     a.u. after   17 cycles
 SCF Done:  E(RB3LYP) =  -1029.62486648     a.u. after   11 cycles
 SCF Done:  E(RB3LYP) =  -1029.62487359     a.u. after    9 cycles
 SCF Done:  E(RB3LYP) =  -1029.62487255     a.u. after    5 cycles
 SCF Done:  E(RB3LYP) =  -1029.62487699     a.u. after    2 cycles
 SCF Done:  E(RB3LYP) =  -1029.62487538     a.u. after    2 cycles
 SCF Done:  E(RB3LYP) =  -1029.62487527     a.u. after    2 cycles
 SCF Done:  E(RB3LYP) =  -1029.62487506     a.u. after    3 cycles
 SCF Done:  E(RB3LYP) =  -1029.62487569     a.u. after    2 cycles
 SCF Done:  E(RB3LYP) =  -1029.62487591     a.u. after    2 cycles
 Optimization completed.
    -- Stationary point found.
 Normal termination of Gaussian 16 at Sun Aug 23 15:29:09 2020.

 ----------------------------------------------------------------------
 # freq B3LYP/6-31G* scf=qc volume NMR pop=NPA density=current Geom=All
 Check Guess=Read
 ----------------------------------------------------------------------

 Structure from the checkpoint file:  "phosphine_9_conf52.chk"
 -------------------
 Title Card Required
 -------------------
 Charge =  0 Multiplicity = 1

 SCF Done:  E(RB3LYP) =  -1029.62487591     a.u. after    1 cycles

      1  C    Isotropic =    84.6740   Anisotropy =   120.9515

      2  C    Isotropic =    75.8228   Anisotropy =   132.6072

      3  C    Isotropic =    43.3764   Anisotropy =    89.1562

      4  O    Isotropic =    39.7892   Anisotropy =   300.7184

      5  C    Isotropic =    50.6419   Anisotropy =    98.7963

      6  P    Isotropic =   433.0092   Anisotropy =    38.0910

      7  C    Isotropic =    43.3911   Anisotropy =    89.2334

      8  C    Isotropic =    75.8531   Anisotropy =   132.6417

      9  C    Isotropic =    84.7236   Anisotropy =   121.0861

     10  C    Isotropic =    50.6600   Anisotropy =    98.8925

     11  O    Isotropic =    39.8148   Anisotropy =   300.8339

     12  C    Isotropic =    43.4065   Anisotropy =    89.2181

     13  C    Isotropic =    75.8397   Anisotropy =   132.7017

     14  C    Isotropic =    84.7112   Anisotropy =   121.0612

     15  C    Isotropic =    50.6735   Anisotropy =    98.8623

     16  O    Isotropic =    39.8013   Anisotropy =   300.8726

     17  H    Isotropic =    26.0658   Anisotropy =     2.3626

     18  H    Isotropic =    25.9757   Anisotropy =     7.4859

     19  H    Isotropic =    24.7881   Anisotropy =     3.5190

     20  H    Isotropic =    25.9770   Anisotropy =     7.4760

     21  H    Isotropic =    26.0636   Anisotropy =     2.3648

     22  H    Isotropic =    24.7866   Anisotropy =     3.5183

     23  H    Isotropic =    25.9746   Anisotropy =     7.4813

     24  H    Isotropic =    26.0651   Anisotropy =     2.3644

     25  H    Isotropic =    24.7878   Anisotropy =     3.5198

  Exact polarizability: 162.538   0.009 162.508   0.001   0.015 116.210
 Approx polarizability: 231.391   0.022 231.318   0.001   0.043 223.238

                      1                      2                      3
                      A                      A                      A
 Frequencies --     37.5019                37.9239                55.3562
 Red. masses --      4.8369                 4.8413                 4.5712
 Frc consts  --      0.0040                 0.0041                 0.0083
 IR Inten    --      0.1557                 0.1530                 0.1417

                      4                      5                      6
                      A                      A                      A
 Frequencies --     58.4825                58.5682                77.2788
 Red. masses --      5.3974                 5.3964                 5.3505
 Frc consts  --      0.0109                 0.0109                 0.0188
 IR Inten    --      0.3690                 0.3690                 0.4459

                      7                      8                      9
                      A                      A                      A
 Frequencies --    201.9408               222.2805               222.5258
 Red. masses --      5.6718                 5.6181                 5.6222
 Frc consts  --      0.1363                 0.1635                 0.1640
 IR Inten    --      0.5752                 2.6640                 2.6683

                     10                     11                     12
                      A                      A                      A
 Frequencies --    279.9150               294.4593               294.6277
 Red. masses --      8.1131                 6.4480                 6.4498
 Frc consts  --      0.3745                 0.3294                 0.3299
 IR Inten    --      2.9425                 2.5670                 2.5645

                     13                     14                     15
                      A                      A                      A
 Frequencies --    479.9492               495.3992               495.4761
 Red. masses --     10.9409                13.6860                13.6906
 Frc consts  --      1.4849                 1.9790                 1.9802
 IR Inten    --     22.5473                38.1876                38.2031

                     16                     17                     18
                      A                      A                      A
 Frequencies --    611.4717               611.4865               612.0990
 Red. masses --      3.2815                 3.2812                 3.2713
 Frc consts  --      0.7229                 0.7229                 0.7221
 IR Inten    --      9.0010                 9.0274                 3.6134

                     19                     20                     21
                      A                      A                      A
 Frequencies --    658.9909               659.0697               664.3876
 Red. masses --      6.1381                 6.1407                 6.4769
 Frc consts  --      1.5705                 1.5716                 1.6845
 IR Inten    --      5.8278                 5.8286                 0.6537

                     22                     23                     24
                      A                      A                      A
 Frequencies --    755.6347               756.0298               756.0450
 Red. masses --      1.2880                 1.2878                 1.2876
 Frc consts  --      0.4333                 0.4337                 0.4336
 IR Inten    --     33.7410                46.0780                46.0935

                     25                     26                     27
                      A                      A                      A
 Frequencies --    826.9145               827.0421               829.6295
 Red. masses --      1.2420                 1.2417                 1.2352
 Frc consts  --      0.5004                 0.5004                 0.5009
 IR Inten    --     12.0124                12.0321                 4.8259

                     28                     29                     30
                      A                      A                      A
 Frequencies --    878.9688               879.0980               882.4867
 Red. masses --      1.3007                 1.3003                 1.2979
 Frc consts  --      0.5921                 0.5921                 0.5956
 IR Inten    --      1.6165                 1.6232                 0.1980

                     31                     32                     33
                      A                      A                      A
 Frequencies --    900.0648               900.0767               900.1217
 Red. masses --      6.2483                 6.2534                 6.1198
 Frc consts  --      2.9823                 2.9849                 2.9214
 IR Inten    --      3.4422                 3.4473                 3.7577

                     34                     35                     36
                      A                      A                      A
 Frequencies --    924.2123               925.9379               925.9487
 Red. masses --      4.7033                 4.7167                 4.7162
 Frc consts  --      2.3670                 2.3826                 2.3824
 IR Inten    --     14.9143                 3.5812                 3.5947

                     37                     38                     39
                      A                      A                      A
 Frequencies --   1035.7652              1036.1705              1037.8621
 Red. masses --      1.4148                 1.4144                 1.3873
 Frc consts  --      0.8943                 0.8947                 0.8805
 IR Inten    --     13.9576                14.4018                51.7143

                     40                     41                     42
                      A                      A                      A
 Frequencies --   1104.0087              1104.1105              1106.2255
 Red. masses --      2.2009                 2.2045                 2.1804
 Frc consts  --      1.5805                 1.5833                 1.5721
 IR Inten    --      1.1611                 1.1644                 1.5401

                     43                     44                     45
                      A                      A                      A
 Frequencies --   1140.7128              1140.7570              1147.5408
 Red. masses --      5.6069                 5.6077                 4.7322
 Frc consts  --      4.2986                 4.2995                 3.6716
 IR Inten    --      2.4514                 2.4406                24.8333

                     46                     47                     48
                      A                      A                      A
 Frequencies --   1197.1784              1197.2014              1200.8692
 Red. masses --      2.2392                 2.2390                 2.4377
 Frc consts  --      1.8908                 1.8907                 2.0712
 IR Inten    --      9.3367                 9.3274                 1.1826

                     49                     50                     51
                      A                      A                      A
 Frequencies --   1249.4703              1249.6605              1250.1921
 Red. masses --      1.6658                 1.6652                 1.7055
 Frc consts  --      1.5322                 1.5322                 1.5705
 IR Inten    --     19.1623                18.6892                 4.9222

                     52                     53                     54
                      A                      A                      A
 Frequencies --   1417.8604              1417.8868              1419.6265
 Red. masses --      2.5684                 2.5686                 2.5345
 Frc consts  --      3.0421                 3.0425                 3.0095
 IR Inten    --      1.0965                 1.0904                 3.8813

                     55                     56                     57
                      A                      A                      A
 Frequencies --   1490.2698              1496.6132              1496.6285
 Red. masses --      5.5389                 5.4228                 5.4228
 Frc consts  --      7.2477                 7.1564                 7.1566
 IR Inten    --     15.7769                11.2299                11.1990

                     58                     59                     60
                      A                      A                      A
 Frequencies --   1605.0239              1607.3021              1607.3164
 Red. masses --      4.8345                 4.8702                 4.8684
 Frc consts  --      7.3378                 7.4130                 7.4104
 IR Inten    --      3.4997                 1.6352                 1.6346

                     61                     62                     63
                      A                      A                      A
 Frequencies --   3264.5144              3264.5248              3264.6890
 Red. masses --      1.0904                 1.0904                 1.0904
 Frc consts  --      6.8463                 6.8463                 6.8471
 IR Inten    --      5.3027                 5.2927                 1.4803

                     64                     65                     66
                      A                      A                      A
 Frequencies --   3280.1118              3280.1486              3280.2629
 Red. masses --      1.0971                 1.0972                 1.0971
 Frc consts  --      6.9549                 6.9553                 6.9555
 IR Inten    --      0.9425                 0.5666                 0.6198

                     67                     68                     69
                      A                      A                      A
 Frequencies --   3299.0666              3299.1203              3299.1550
 Red. masses --      1.1046                 1.1046                 1.1046
 Frc consts  --      7.0832                 7.0833                 7.0836
 IR Inten    --      2.8628                 3.1626                 0.6550

 - Thermochemistry -
 -------------------
 Temperature   298.150 Kelvin.  Pressure   1.00000 Atm.
 Atom     1 has atomic number  6 and mass  12.00000

 Molecular mass:   232.02893 amu.
 Principal axes and moments of inertia in atomic units:
                           1         2         3
     Eigenvalues --  3613.372863613.688786126.50673
           X            0.99871   0.05083   0.00000
           Y           -0.05083   0.99871   0.00000
           Z           -0.00000  -0.00000   1.00000
 This molecule is an asymmetric top.
 Rotational symmetry number  1.
 Warning -- assumption of classical behavior for rotation
           may cause significant error
 Rotational temperatures (Kelvin)      0.02397     0.02397     0.01414
 Rotational constants (GHZ):           0.49946     0.49942     0.29458
 Zero-point vibrational energy     480212.4 (Joules/Mol)
                                  114.77352 (Kcal/Mol)
 Warning -- explicit consideration of  18 degrees of freedom as
           vibrations may cause significant error
 Vibrational temperatures:     53.96    54.56    79.65    84.14    84.27
          (Kelvin)            111.19   290.55   319.81   320.16   402.74
                              423.66   423.90   690.54   712.77   712.88
                              879.77   879.79   880.67   948.14   948.25
                              955.91  1087.19  1087.76  1087.78  1189.75
                             1189.93  1193.65  1264.64  1264.83  1269.70
                             1294.99  1295.01  1295.07  1329.74  1332.22
                             1332.23  1490.24  1490.82  1493.25  1588.42
                             1588.57  1591.61  1641.23  1641.29  1651.06
                             1722.47  1722.51  1727.78  1797.71  1797.98
                             1798.75  2039.98  2040.02  2042.53  2144.17
                             2153.29  2153.31  2309.27  2312.55  2312.57
                             4696.91  4696.92  4697.16  4719.35  4719.40
                             4719.57  4746.62  4746.70  4746.75

 Zero-point correction=                           0.182903 (Hartree/Particle)
 Thermal correction to Energy=                    0.196490
 Thermal correction to Enthalpy=                  0.197434
 Thermal correction to Gibbs Free Energy=         0.139654
 Sum of electronic and zero-point Energies=          -1029.441973
 Sum of electronic and thermal Energies=             -1029.428386
 Sum of electronic and thermal Enthalpies=           -1029.427442
 Sum of electronic and thermal Free Energies=        -1029.485222

                     E (Thermal)             CV                S
                      KCal/Mol        Cal/Mol-Kelvin    Cal/Mol-Kelvin
 Total                  123.299             50.778            121.609
 Electronic               0.000              0.000              0.000
 Translational            0.889              2.981             42.227
 Rotational               0.889              2.981             32.748
 Vibrational            121.522             44.816             46.634
 Vibration     1          0.594              1.982              5.387
 Vibration     2          0.594              1.982              5.365
 Vibration     3          0.596              1.975              4.616
 Vibration     4          0.596              1.974              4.508
 Vibration     5          0.596              1.974              4.505
 Vibration     6          0.599              1.964              3.959
 Vibration     7          0.639              1.837              2.115
 Vibration     8          0.648              1.807              1.940
 Vibration     9          0.648              1.807              1.938
 Vibration    10          0.680              1.711              1.534
 Vibration    11          0.689              1.684              1.448
 Vibration    12          0.689              1.684              1.447
 Vibration    13          0.836              1.295              0.710
 Vibration    14          0.851              1.260              0.670
 Vibration    15          0.851              1.260              0.670
 Vibration    16          0.971              1.008              0.430
 Vibration    17          0.971              1.008              0.430
 Vibration    18          0.971              1.006              0.429

                           ! Non-Optimized Parameters !
 Normal termination of Gaussian 16 at Sun Aug 23 15:35:57 2020.
 Gaussian 16:  ES64L-G16RevA.03 25-Dec-2016

 ----------------------------------------------------------------------
 # TD(NStates=10, Root=1) B3LYP/6-31G* scf=qc volume pop=NPA density=cu
 rrent Geom=AllCheck Guess=Read
 ----------------------------------------------------------------------

 Structure from the checkpoint file:  "phosphine_9_conf53.chk"
 -------------------
 Title Card Required
 -------------------
 Charge =  0 Multiplicity = 1

                         Standard orientation:
 ---------------------------------------------------------------------
 Center     Atomic      Atomic             Coordinates (Angstroms)
 Number     Number       Type             X           Y           Z
 ---------------------------------------------------------------------
      1          6           0        1.273877   -3.276722   -0.975318
      2          6           0        0.365260   -2.173184   -0.910951
      3          6           0        0.685830   -1.460719    0.214250
      4          8           0        1.739312   -2.074269    0.854080
      5          6           0        2.082706   -3.161464    0.114904
      6         15           0        0.000009    0.000033    1.070903
      7          6           0        0.922067    1.324291    0.214086
      8          6           0        1.698259    1.403176   -0.911860
      9          6           0        2.200054    2.741672   -0.976100
     10          6           0        1.697176    3.384162    0.114953
     11          8           0        0.927762    2.543109    0.854488
     12          6           0       -1.607916    0.136342    0.214164
     13          6           0       -2.064191    0.768452   -0.912205
     14          6           0       -3.474330    0.534156   -0.976214
     15          6           0       -3.779475   -0.221756    0.115377
     16          8           0       -2.666441   -0.467390    0.855026
     17          1           0        1.315771   -4.050195   -1.729764
     18          1           0       -0.429007   -1.934302   -1.603884
     19          1           0        2.909637   -3.742991    0.494320
     20          1           0        1.887518    0.596162   -1.605393
     21          1           0        2.848368    3.164804   -1.730986
     22          1           0        1.788100    4.390844    0.494778
     23          1           0       -1.459757    1.335194   -1.606135
     24          1           0       -4.164867    0.883732   -1.731304
     25          1           0       -4.696865   -0.645793    0.495553
 ---------------------------------------------------------------------

 SCF Done:  E(RB3LYP) =  -1029.62487591     a.u. after    1 cycles

 Excitation energies and oscillator strengths:

 Excited State   1:      Singlet-A      4.7326 eV  261.98 nm  f=0.1416  <S**2>=0.000
      60 -> 61         0.69359
 This state for optimization and/or second-order correction.
 Total Energy, E(TD-HF/TD-DFT) =  -1029.45095600
 Copying the excited state density for this state as the 1-particle RhoCI density.

 Excited State   2:      Singlet-A      4.7335 eV  261.93 nm  f=0.1419  <S**2>=0.000
      60 -> 62         0.69358

 Excited State   3:      Singlet-A      5.3047 eV  233.73 nm  f=0.0000  <S**2>=0.000
      58 -> 61         0.25744
      58 -> 62         0.42335
      59 -> 61         0.42597
      59 -> 62        -0.25745

 Excited State   4:      Singlet-A      5.3999 eV  229.61 nm  f=0.0002  <S**2>=0.000
      58 -> 61        -0.24456
      58 -> 62         0.13403
      59 -> 61         0.13645
      59 -> 62         0.24621
      60 -> 63         0.58165

 Excited State   5:      Singlet-A      5.4658 eV  226.84 nm  f=0.1682  <S**2>=0.000
      58 -> 61         0.42427
      58 -> 62        -0.24085
      59 -> 61         0.23910
      59 -> 62         0.42381

 Excited State   6:      Singlet-A      5.4662 eV  226.82 nm  f=0.1685  <S**2>=0.000
      58 -> 61         0.24041
      58 -> 62         0.42513
      59 -> 61        -0.42294
      59 -> 62         0.23954

 Excited State   7:      Singlet-A      6.0315 eV  205.56 nm  f=0.0118  <S**2>=0.000
      58 -> 61         0.33514
      58 -> 62        -0.21336
      59 -> 61        -0.21286
      59 -> 62        -0.33526
      60 -> 63         0.38998

 Excited State   8:      Singlet-A      6.1711 eV  200.91 nm  f=0.0562  <S**2>=0.000
      54 -> 61        -0.12493
      57 -> 61        -0.46654
      59 -> 63         0.48290
      60 -> 64        -0.10043

 Excited State   9:      Singlet-A      6.1717 eV  200.89 nm  f=0.0560  <S**2>=0.000
      54 -> 62        -0.12482
      57 -> 62        -0.46622
      58 -> 63         0.48303
      60 -> 65         0.10022

 Excited State  10:      Singlet-A      6.2519 eV  198.32 nm  f=0.0683  <S**2>=0.000
      57 -> 61         0.31534
      58 -> 63        -0.19493
      59 -> 63         0.36339
      60 -> 64         0.42921

 The electronic state is 1-A.
 Alpha  occ. eigenvalues --  -77.10442 -19.21552 -19.21551 -19.21551 -10.23919
 Alpha  occ. eigenvalues --  -10.23918 -10.23917 -10.23693 -10.23693 -10.23692
 Alpha  occ. eigenvalues --  -10.19077 -10.19076 -10.19075 -10.18942 -10.18942
 Alpha  occ. eigenvalues --  -10.18941  -6.57105  -4.73366  -4.73366  -4.72863
 Alpha  occ. eigenvalues --   -1.10749  -1.10667  -1.10667  -0.80185  -0.79752
 Alpha  occ. eigenvalues --   -0.79751  -0.77542  -0.73926  -0.73925  -0.64938
 Alpha  occ. eigenvalues --   -0.60003  -0.59870  -0.59870  -0.55795  -0.55794
 Alpha  occ. eigenvalues --   -0.54788  -0.53287  -0.53286  -0.48932  -0.45120
 Alpha  occ. eigenvalues --   -0.45119  -0.44656  -0.42744  -0.42744  -0.42348
 Alpha  occ. eigenvalues --   -0.40363  -0.40312  -0.40312  -0.38831  -0.38830
 Alpha  occ. eigenvalues --   -0.37510  -0.36230  -0.36229  -0.28134  -0.27887
 Alpha  occ. eigenvalues --   -0.27885  -0.27314  -0.23486  -0.23484  -0.20895
 Alpha virt. eigenvalues --   -0.01046  -0.01043   0.01544   0.05283   0.05285
 Alpha virt. eigenvalues --    0.07048   0.07975   0.07980   0.11850   0.11906
 Alpha virt. eigenvalues --    0.12865   0.12866   0.15040   0.15041   0.15578

 Mulliken charges:
               1
     1  C   -0.175026
     2  C   -0.159889
     3  C    0.105588
     4  O   -0.408148
     5  C    0.105330
     6  P    0.397541
     7  C    0.111541
     8  C   -0.172551
     9  C   -0.174017
    10  C    0.103162
    11  O   -0.410208
    12  C    0.050655
    13  C   -0.195719
    14  C   -0.176195
    15  C    0.055905
    16  O   -0.437346
    17  H    0.158684
    18  H    0.180535
    19  H    0.174085
    20  H    0.157474
    21  H    0.153156
    22  H    0.171057
    23  H    0.123026
    24  H    0.125303
    25  H    0.136057
 Sum of Mulliken charges =  -0.00000

 Dipole moment (field-independent basis, Debye):
    X=              3.6744    Y=             -0.8520    Z=             -2.6715  Tot=              4.6221
 Quadrupole moment (field-independent basis, Debye-Ang):
   XX=            -92.5686   YY=            -80.2105   ZZ=            -96.8560
   XY=              0.0150   XZ=             -0.7451   YZ=              0.6669

 Summary of Natural Population Analysis:

                                       Natural Population
                Natural  -----------------------------------------------
    Atom  No    Charge         Core      Valence    Rydberg      Total
 -----------------------------------------------------------------------
      C    1   -0.32002      1.99910     4.30786    0.01306     6.32002
      C    2   -0.27881      1.99893     4.26495    0.01493     6.27881
      C    3   -0.04356      1.99892     4.00563    0.03902     6.04356
      O    4   -0.45830      1.99975     6.44496    0.01359     8.45830
      C    5    0.14576      1.99905     3.83070    0.02449     5.85424
      P    6    1.01112      9.99757     3.92504    0.06627    13.98888
      C    7   -0.03929      1.99888     4.00490    0.03551     6.03929
      C    8   -0.30458      1.99892     4.28990    0.01577     6.30458
      C    9   -0.31939      1.99909     4.30737    0.01293     6.31939
      C   10    0.13998      1.99905     3.83834    0.02263     5.86002
      O   11   -0.45912      1.99974     6.44044    0.01893     8.45912
      C   12   -0.15473      1.99885     4.11763    0.03825     6.15473
      C   13   -0.35285      1.99890     4.33614    0.01781     6.35285
      C   14   -0.32966      1.99908     4.31737    0.01321     6.32966
      C   15    0.06438      1.99905     3.91085    0.02572     5.93562
      O   16   -0.48488      1.99975     6.47131    0.01382     8.48488
      H   17    0.25467      0.00000     0.74484    0.00050     0.74533
      H   18    0.26844      0.00000     0.73073    0.00083     0.73156
      H   19    0.23081      0.00000     0.76863    0.00056     0.76919
      H   20    0.25570      0.00000     0.74360    0.00070     0.74430
      H   21    0.25189      0.00000     0.74759    0.00052     0.74811
      H   22    0.23032      0.00000     0.76920    0.00047     0.76968
      H   23    0.23805      0.00000     0.76104    0.00091     0.76195
      H   24    0.23921      0.00000     0.76032    0.00047     0.76079
      H   25    0.21487      0.00000     0.78458    0.00055     0.78513
 =======================================================================
   * Total *   -0.00000     39.98461    79.62392    0.39147   120.00000

 Normal termination of Gaussian 16 at Sun Aug 23 15:45:22 2020.
