 Gaussian 16, Revision A.03,

 ---------------------------------
 # opt=CalcAll B3LYP/6-31G* scf=qc
 ---------------------------------

 -------------------
 Title Card Required
 -------------------
 Symbolic Z-matrix:
 Charge =  0 Multiplicity = 1

 SCF Done:  E(RB3LYP) =  -1036.28911228     a.u. after    8 cycles
 SCF Done:  E(RB3LYP) =  -1036.29658700     a.u. after   17 cycles
 SCF Done:  E(RB3LYP) =  -1036.29756311     a.u. after   15 cycles
 SCF Done:  E(RB3LYP) =  -1036.29791878     a.u. after   17 cycles
 SCF Done:  E(RB3LYP) =  -1036.29812581     a.u. after   11 cycles
 SCF Done:  E(RB3LYP) =  -1036.29821898     a.u. after   11 cycles
 SCF Done:  E(RB3LYP) =  -1036.29822234     a.u. after    3 cycles
 SCF Done:  E(RB3LYP) =  -1036.29822341     a.u. after   11 cycles
 SCF Done:  E(RB3LYP) =  -1036.29823153     a.u. after    5 cycles
 SCF Done:  E(RB3LYP) =  -1036.29823112     a.u. after    7 cycles
 SCF Done:  E(RB3LYP) =  -1036.29823270     a.u. after    3 cycles
 SCF Done:  E(RB3LYP) =  -1036.29823277     a.u. after    2 cycles
 Optimization completed on the basis of negligible forces.
    -- Stationary point found.
 Normal termination of Gaussian 16 at Sun Aug 23 07:12:24 2020.

 ----------------------------------------------------------------------
 # freq B3LYP/6-31G* scf=qc volume NMR pop=NPA density=current Geom=All
 Check Guess=Read
 ----------------------------------------------------------------------

 Structure from the checkpoint file:  "phosphine_1_conf62.chk"
 -------------------
 Title Card Required
 -------------------
 Charge =  0 Multiplicity = 1

 SCF Done:  E(RB3LYP) =  -1036.29823277     a.u. after    1 cycles

      1  C    Isotropic =    68.1589   Anisotropy =   167.3489

      2  C    Isotropic =    68.7172   Anisotropy =   164.1351

      3  C    Isotropic =    60.9959   Anisotropy =   164.0943

      4  C    Isotropic =    56.1017   Anisotropy =   179.4504

      5  C    Isotropic =    62.5680   Anisotropy =   174.0501

      6  C    Isotropic =    68.6845   Anisotropy =   163.8781

      7  P    Isotropic =   361.4374   Anisotropy =    39.6227

      8  C    Isotropic =    56.1506   Anisotropy =   179.4278

      9  C    Isotropic =    62.5614   Anisotropy =   174.0980

     10  C    Isotropic =    68.6768   Anisotropy =   163.8998

     11  C    Isotropic =    68.1580   Anisotropy =   167.3549

     12  C    Isotropic =    68.7257   Anisotropy =   164.1214

     13  C    Isotropic =    60.9873   Anisotropy =   164.1051

     14  C    Isotropic =    56.1109   Anisotropy =   179.4626

     15  C    Isotropic =    61.0523   Anisotropy =   164.1684

     16  C    Isotropic =    68.7314   Anisotropy =   164.0942

     17  C    Isotropic =    68.1767   Anisotropy =   167.2821

     18  C    Isotropic =    68.6853   Anisotropy =   163.8935

     19  C    Isotropic =    62.6276   Anisotropy =   174.0651

     20  H    Isotropic =    25.0198   Anisotropy =     3.6422

     21  H    Isotropic =    24.9252   Anisotropy =     4.5907

     22  H    Isotropic =    24.6113   Anisotropy =     9.2517

     23  H    Isotropic =    25.3987   Anisotropy =    12.2213

     24  H    Isotropic =    25.0485   Anisotropy =     6.0856

     25  H    Isotropic =    25.3942   Anisotropy =    12.2253

     26  H    Isotropic =    25.0460   Anisotropy =     6.0870

     27  H    Isotropic =    25.0189   Anisotropy =     3.6417

     28  H    Isotropic =    24.9272   Anisotropy =     4.5855

     29  H    Isotropic =    24.6111   Anisotropy =     9.2470

     30  H    Isotropic =    24.6154   Anisotropy =     9.2601

     31  H    Isotropic =    24.9309   Anisotropy =     4.5844

     32  H    Isotropic =    25.0240   Anisotropy =     3.6351

     33  H    Isotropic =    25.0494   Anisotropy =     6.0866

     34  H    Isotropic =    25.4017   Anisotropy =    12.2420

  Exact polarizability: 224.232  -0.071 223.976   0.001  -0.110 165.099
 Approx polarizability: 331.078  -0.167 330.588  -0.001  -0.259 308.153

                      1                      2                      3
                      A                      A                      A
 Frequencies --     21.9151                24.2678                37.9967
 Red. masses --      3.7965                 3.7961                 3.6889
 Frc consts  --      0.0011                 0.0013                 0.0031
 IR Inten    --      0.2803                 0.2809                 0.0025

                      4                      5                      6
                      A                      A                      A
 Frequencies --     53.2849                53.4997                70.6241
 Red. masses --      5.2491                 5.2587                 5.1671
 Frc consts  --      0.0088                 0.0089                 0.0152
 IR Inten    --      0.0857                 0.0864                 0.3103

                      7                      8                      9
                      A                      A                      A
 Frequencies --    181.4710               202.3082               202.7046
 Red. masses --      4.5601                 4.6427                 4.6426
 Frc consts  --      0.0885                 0.1120                 0.1124
 IR Inten    --      0.3530                 1.1363                 1.1369

                     10                     11                     12
                      A                      A                      A
 Frequencies --    245.5723               259.7345               260.1107
 Red. masses --      5.7396                 4.7196                 4.7233
 Frc consts  --      0.2039                 0.1876                 0.1883
 IR Inten    --      0.4818                 0.2266                 0.2238

                     13                     14                     15
                      A                      A                      A
 Frequencies --    408.7654               408.8673               412.3562
 Red. masses --      3.0784                 3.0798                 3.5687
 Frc consts  --      0.3031                 0.3033                 0.3575
 IR Inten    --      1.9546                 1.9694                 0.1537

                     16                     17                     18
                      A                      A                      A
 Frequencies --    417.1183               429.3377               429.6218
 Red. masses --      4.6553                 7.3021                 7.3148
 Frc consts  --      0.4772                 0.7930                 0.7955
 IR Inten    --      0.5691                 7.6502                 7.7372

                     19                     20                     21
                      A                      A                      A
 Frequencies --    509.4342               509.5587               516.3486
 Red. masses --      4.2461                 4.2477                 4.5891
 Frc consts  --      0.6493                 0.6498                 0.7209
 IR Inten    --     26.1266                26.1492                11.9768

                     22                     23                     24
                      A                      A                      A
 Frequencies --    632.7104               632.7542               633.3712
 Red. masses --      6.4271                 6.4271                 6.4368
 Frc consts  --      1.5159                 1.5161                 1.5214
 IR Inten    --      0.1818                 0.1806                 0.0163

                     25                     26                     27
                      A                      A                      A
 Frequencies --    691.9068               705.1736               705.2433
 Red. masses --      6.5808                 5.6923                 5.7628
 Frc consts  --      1.8562                 1.6678                 1.6887
 IR Inten    --      0.7782                 1.1869                 1.1343

                     28                     29                     30
                      A                      A                      A
 Frequencies --    712.1863               712.3478               713.2597
 Red. masses --      2.2047                 2.1964                 2.1326
 Frc consts  --      0.6588                 0.6567                 0.6392
 IR Inten    --     26.3733                26.3514                16.6321

                     31                     32                     33
                      A                      A                      A
 Frequencies --    761.3924               762.8943               762.9341
 Red. masses --      1.6158                 1.6492                 1.6472
 Frc consts  --      0.5519                 0.5655                 0.5649
 IR Inten    --     19.1672                24.8849                24.9342

                     34                     35                     36
                      A                      A                      A
 Frequencies --    866.1482               866.2356               868.7025
 Red. masses --      1.2478                 1.2477                 1.2463
 Frc consts  --      0.5515                 0.5516                 0.5541
 IR Inten    --      0.2295                 0.2193                 0.1339

                     37                     38                     39
                      A                      A                      A
 Frequencies --    932.9385               933.0042               934.2010
 Red. masses --      1.3443                 1.3441                 1.3386
 Frc consts  --      0.6894                 0.6893                 0.6883
 IR Inten    --      1.2613                 1.2544                 0.0341

                     40                     41                     42
                      A                      A                      A
 Frequencies --    975.7770               975.8557               977.5860
 Red. masses --      1.3614                 1.3611                 1.3557
 Frc consts  --      0.7637                 0.7637                 0.7634
 IR Inten    --      0.0167                 0.0151                 0.1425

                     43                     44                     45
                      A                      A                      A
 Frequencies --   1000.3799              1000.3860              1001.0900
 Red. masses --      1.2543                 1.2542                 1.2526
 Frc consts  --      0.7396                 0.7395                 0.7396
 IR Inten    --      0.0784                 0.0794                 0.0005

                     46                     47                     48
                      A                      A                      A
 Frequencies --   1015.3713              1015.3822              1015.7622
 Red. masses --      6.3111                 6.3131                 6.3113
 Frc consts  --      3.8336                 3.8349                 3.8367
 IR Inten    --      4.3705                 4.3666                 0.0437

                     49                     50                     51
                      A                      A                      A
 Frequencies --   1052.6911              1052.7584              1052.9265
 Red. masses --      3.3099                 3.3187                 3.2550
 Frc consts  --      2.1611                 2.1671                 2.1262
 IR Inten    --      2.0929                 2.0738                 0.0516

                     52                     53                     54
                      A                      A                      A
 Frequencies --   1107.8030              1108.2818              1109.5387
 Red. masses --      1.8802                 1.8446                 1.6554
 Frc consts  --      1.3595                 1.3349                 1.2007
 IR Inten    --      4.1762                 3.6236                 2.8016

                     55                     56                     57
                      A                      A                      A
 Frequencies --   1110.7794              1110.8857              1116.2664
 Red. masses --      2.1945                 2.2465                 2.6127
 Frc consts  --      1.5953                 1.6334                 1.9181
 IR Inten    --      9.4776                10.0235                 1.2698

                     58                     59                     60
                      A                      A                      A
 Frequencies --   1193.4981              1193.9152              1193.9341
 Red. masses --      1.1033                 1.1000                 1.1000
 Frc consts  --      0.9260                 0.9238                 0.9239
 IR Inten    --      0.0012                 0.1310                 0.1284

                     61                     62                     63
                      A                      A                      A
 Frequencies --   1219.1725              1219.5934              1220.9621
 Red. masses --      1.1475                 1.1478                 1.1474
 Frc consts  --      1.0049                 1.0059                 1.0078
 IR Inten    --      6.0640                 5.9414                 0.4803

                     64                     65                     66
                      A                      A                      A
 Frequencies --   1325.0375              1328.6334              1328.9604
 Red. masses --      3.4992                 3.4744                 3.5372
 Frc consts  --      3.6197                 3.6136                 3.6807
 IR Inten    --      2.6300                 2.4303                 2.4474

                     67                     68                     69
                      A                      A                      A
 Frequencies --   1365.0946              1365.3772              1365.8147
 Red. masses --      1.6597                 1.6512                 1.6350
 Frc consts  --      1.8222                 1.8137                 1.7971
 IR Inten    --      0.1389                 1.1253                 2.1392

                     70                     71                     72
                      A                      A                      A
 Frequencies --   1480.5080              1480.9464              1481.0396
 Red. masses --      2.1106                 2.1148                 2.1167
 Frc consts  --      2.7257                 2.7327                 2.7355
 IR Inten    --     16.5894                 6.5873                 6.6905

                     73                     74                     75
                      A                      A                      A
 Frequencies --   1531.1052              1531.5499              1531.6957
 Red. masses --      2.0149                 1.9989                 1.9970
 Frc consts  --      2.7829                 2.7625                 2.7604
 IR Inten    --      2.0382                10.1173                10.1595

                     76                     77                     78
                      A                      A                      A
 Frequencies --   1630.1664              1630.4152              1630.4826
 Red. masses --      5.0999                 5.1127                 5.1117
 Frc consts  --      7.9850                 8.0075                 8.0065
 IR Inten    --      0.3981                 0.0447                 0.0471

                     79                     80                     81
                      A                      A                      A
 Frequencies --   1646.1537              1646.1843              1647.9630
 Red. masses --      5.2716                 5.2693                 5.2824
 Frc consts  --      8.4166                 8.4132                 8.4523
 IR Inten    --      3.4935                 3.5301                 0.3200

                     82                     83                     84
                      A                      A                      A
 Frequencies --   3176.0650              3176.1230              3176.1911
 Red. masses --      1.0854                 1.0853                 1.0853
 Frc consts  --      6.4506                 6.4508                 6.4510
 IR Inten    --      2.1045                 1.9807                 1.9197

                     85                     86                     87
                      A                      A                      A
 Frequencies --   3182.6333              3182.6810              3182.7729
 Red. masses --      1.0875                 1.0875                 1.0876
 Frc consts  --      6.4901                 6.4904                 6.4911
 IR Inten    --      0.7469                 0.6509                 0.3000

                     88                     89                     90
                      A                      A                      A
 Frequencies --   3192.8271              3192.8737              3192.9968
 Red. masses --      1.0916                 1.0916                 1.0917
 Frc consts  --      6.5567                 6.5568                 6.5579
 IR Inten    --     10.9406                12.2058                44.9925

                     91                     92                     93
                      A                      A                      A
 Frequencies --   3203.9030              3203.9388              3204.3240
 Red. masses --      1.0941                 1.0941                 1.0942
 Frc consts  --      6.6171                 6.6174                 6.6196
 IR Inten    --     41.4296                41.4630                 4.4685

                     94                     95                     96
                      A                      A                      A
 Frequencies --   3210.0627              3210.1273              3211.0077
 Red. masses --      1.0957                 1.0956                 1.0956
 Frc consts  --      6.6522                 6.6521                 6.6556
 IR Inten    --     20.2738                19.7473                16.3161

 - Thermochemistry -
 -------------------
 Temperature   298.150 Kelvin.  Pressure   1.00000 Atm.
 Atom     1 has atomic number  6 and mass  12.00000

 Molecular mass:   262.09114 amu.
 Principal axes and moments of inertia in atomic units:
                           1         2         3
     Eigenvalues --  5160.990745165.196828680.04880
           X            0.99984  -0.01776   0.00000
           Y            0.01776   0.99984  -0.00003
           Z           -0.00000   0.00003   1.00000
 This molecule is an asymmetric top.
 Rotational symmetry number  1.
 Warning -- assumption of classical behavior for rotation
           may cause significant error
 Rotational temperatures (Kelvin)      0.01678     0.01677     0.00998
 Rotational constants (GHZ):           0.34969     0.34940     0.20792
 Zero-point vibrational energy     719963.8 (Joules/Mol)
                                  172.07549 (Kcal/Mol)
 Warning -- explicit consideration of  21 degrees of freedom as
           vibrations may cause significant error
 Vibrational temperatures:     31.53    34.92    54.67    76.67    76.97
          (Kelvin)            101.61   261.10   291.08   291.65   353.32
                              373.70   374.24   588.12   588.27   593.29
                              600.14   617.72   618.13   732.96   733.14
                              742.91   910.33   910.39   911.28   995.50
                             1014.59  1014.69  1024.68  1024.91  1026.22
                             1095.47  1097.63  1097.69  1246.19  1246.32
                             1249.87  1342.29  1342.39  1344.11  1403.93
                             1404.04  1406.53  1439.32  1439.33  1440.35
                             1460.89  1460.91  1461.46  1514.59  1514.68
                             1514.93  1593.88  1594.57  1596.38  1598.16
                             1598.32  1606.06  1717.18  1717.78  1717.80
                             1754.12  1754.72  1756.69  1906.43  1911.61
                             1912.08  1964.07  1964.47  1965.10  2130.12
                             2130.75  2130.89  2202.92  2203.56  2203.77
                             2345.45  2345.80  2345.90  2368.45  2368.49
                             2371.05  4569.65  4569.73  4569.83  4579.10
                             4579.17  4579.30  4593.77  4593.83  4594.01
                             4609.70  4609.75  4610.31  4618.56  4618.66
                             4619.92

 Zero-point correction=                           0.274220 (Hartree/Particle)
 Thermal correction to Energy=                    0.290143
 Thermal correction to Enthalpy=                  0.291087
 Thermal correction to Gibbs Free Energy=         0.227730
 Sum of electronic and zero-point Energies=          -1036.024013
 Sum of electronic and thermal Energies=             -1036.008090
 Sum of electronic and thermal Enthalpies=           -1036.007146
 Sum of electronic and thermal Free Energies=        -1036.070502

                     E (Thermal)             CV                S
                      KCal/Mol        Cal/Mol-Kelvin    Cal/Mol-Kelvin
 Total                  182.067             62.537            133.345
 Electronic               0.000              0.000              0.000
 Translational            0.889              2.981             42.590
 Rotational               0.889              2.981             33.803
 Vibrational            180.290             56.575             56.952
 Vibration     1          0.593              1.985              6.453
 Vibration     2          0.593              1.985              6.250
 Vibration     3          0.594              1.982              5.361
 Vibration     4          0.596              1.976              4.692
 Vibration     5          0.596              1.976              4.684
 Vibration     6          0.598              1.968              4.136
 Vibration     7          0.630              1.865              2.313
 Vibration     8          0.639              1.837              2.112
 Vibration     9          0.639              1.836              2.108
 Vibration    10          0.660              1.770              1.762
 Vibration    11          0.668              1.746              1.664
 Vibration    12          0.668              1.746              1.661
 Vibration    13          0.773              1.451              0.931
 Vibration    14          0.773              1.451              0.931
 Vibration    15          0.776              1.443              0.918
 Vibration    16          0.780              1.433              0.902
 Vibration    17          0.791              1.406              0.861
 Vibration    18          0.791              1.406              0.860
 Vibration    19          0.865              1.229              0.635
 Vibration    20          0.865              1.229              0.635
 Vibration    21          0.871              1.214              0.618

 Optimization completed on the basis of negligible forces.
    -- Stationary point found.
 Normal termination of Gaussian 16 at Sun Aug 23 07:23:31 2020.
 Gaussian 16:  ES64L-G16RevA.03 25-Dec-2016

 ----------------------------------------------------------------------
 # TD(NStates=10, Root=1) B3LYP/6-31G* scf=qc volume pop=NPA density=cu
 rrent Geom=AllCheck Guess=Read
 ----------------------------------------------------------------------

 Structure from the checkpoint file:  "phosphine_1_conf63.chk"
 -------------------
 Title Card Required
 -------------------
 Charge =  0 Multiplicity = 1

                         Standard orientation:
 ---------------------------------------------------------------------
 Center     Atomic      Atomic             Coordinates (Angstroms)
 Number     Number       Type             X           Y           Z
 ---------------------------------------------------------------------
      1          6           0       -2.416075    3.532595    0.652735
      2          6           0       -1.654692    3.695098   -0.506611
      3          6           0       -0.946194    2.615407   -1.033336
      4          6           0       -0.969900    1.360038   -0.402357
      5          6           0       -1.740984    1.209362    0.760351
      6          6           0       -2.459846    2.287355    1.281667
      7         15           0        0.000496    0.000182   -1.206628
      8          6           0        1.663514    0.160233   -0.402612
      9          6           0        1.918871    0.902422    0.760619
     10          6           0        3.212020    0.985591    1.281610
     11          6           0        4.268371    0.325547    0.651864
     12          6           0        4.028115   -0.414156   -0.508005
     13          6           0        2.738677   -0.487438   -1.034435
     14          6           0       -0.692783   -1.520140   -0.403082
     15          6           0       -1.796269   -2.122524   -1.030931
     16          6           0       -2.378160   -3.275598   -0.504730
     17          6           0       -1.853385   -3.858363    0.650800
     18          6           0       -0.748647   -3.278555    1.276398
     19          6           0       -0.173409   -2.117227    0.755725
     20          1           0       -2.977090    4.369921    1.059478
     21          1           0       -1.621071    4.659495   -1.006946
     22          1           0       -0.371214    2.744774   -1.947544
     23          1           0       -1.783886    0.245538    1.258658
     24          1           0       -3.054349    2.152545    2.181862
     25          1           0        1.105747    1.420971    1.259648
     26          1           0        3.392784    1.567133    2.182216
     27          1           0        5.274131    0.392427    1.058395
     28          1           0        4.846360   -0.925078   -1.008961
     29          1           0        2.562921   -1.049282   -1.949069
     30          1           0       -2.198535   -1.685684   -1.942241
     31          1           0       -3.233682   -3.724815   -1.002536
     32          1           0       -2.298919   -4.762639    1.057096
     33          1           0       -0.332019   -3.729581    2.173592
     34          1           0        0.686046   -1.676327    1.251749
 ---------------------------------------------------------------------

 SCF Done:  E(RB3LYP) =  -1036.29823277     a.u. after    1 cycles

 Excitation energies and oscillator strengths:

 Excited State   1:      Singlet-A      4.5093 eV  274.95 nm  f=0.1273  <S**2>=0.000
      69 -> 70         0.69712
 This state for optimization and/or second-order correction.
 Total Energy, E(TD-HF/TD-DFT) =  -1036.13252032
 Copying the excited state density for this state as the 1-particle RhoCI density.

 Excited State   2:      Singlet-A      4.5120 eV  274.79 nm  f=0.1284  <S**2>=0.000
      69 -> 71         0.69707

 Excited State   3:      Singlet-A      4.7575 eV  260.61 nm  f=0.0022  <S**2>=0.000
      67 -> 70        -0.12290
      68 -> 71         0.12354
      69 -> 72         0.67463

 Excited State   4:      Singlet-A      5.0576 eV  245.14 nm  f=0.0002  <S**2>=0.000
      66 -> 70        -0.16776
      67 -> 71         0.11904
      68 -> 70        -0.11909
      69 -> 74         0.63021

 Excited State   5:      Singlet-A      5.0587 eV  245.09 nm  f=0.0002  <S**2>=0.000
      66 -> 71        -0.16853
      67 -> 70         0.11973
      68 -> 71         0.11961
      69 -> 75         0.62948

 Excited State   6:      Singlet-A      5.1511 eV  240.69 nm  f=0.0085  <S**2>=0.000
      69 -> 73         0.67909

 Excited State   7:      Singlet-A      5.4273 eV  228.44 nm  f=0.0147  <S**2>=0.000
      63 -> 72         0.16611
      64 -> 74        -0.14141
      65 -> 75         0.13860
      67 -> 70         0.42403
      68 -> 71        -0.41595
      69 -> 72         0.16527

 Excited State   8:      Singlet-A      5.5137 eV  224.87 nm  f=0.0005  <S**2>=0.000
      63 -> 74         0.14380
      64 -> 70         0.12686
      64 -> 72        -0.21996
      64 -> 75         0.11006
      65 -> 71         0.12553
      65 -> 72        -0.17733
      65 -> 74        -0.10965
      66 -> 70         0.22678
      67 -> 70         0.15269
      67 -> 71        -0.21982
      68 -> 70         0.22663
      68 -> 71         0.15628
      68 -> 72         0.16311
      69 -> 74         0.28689

 Excited State   9:      Singlet-A      5.5152 eV  224.81 nm  f=0.0004  <S**2>=0.000
      63 -> 75         0.14437
      64 -> 71        -0.12143
      64 -> 72        -0.17768
      64 -> 74         0.10794
      65 -> 70         0.12535
      65 -> 72         0.22009
      65 -> 75         0.11058
      66 -> 71         0.22508
      67 -> 70        -0.21771
      67 -> 71        -0.15523
      67 -> 72         0.16398
      68 -> 70         0.15653
      68 -> 71        -0.23031
      69 -> 75         0.28808

 Excited State  10:      Singlet-A      5.6180 eV  220.69 nm  f=0.0009  <S**2>=0.000
      67 -> 71         0.47361
      68 -> 70         0.48444

 The electronic state is 1-A.
 Alpha  occ. eigenvalues --  -77.08112 -10.19448 -10.19446 -10.19446 -10.19149
 Alpha  occ. eigenvalues --  -10.19147 -10.19143 -10.19119 -10.19117 -10.19115
 Alpha  occ. eigenvalues --  -10.19032 -10.19031 -10.19028 -10.19009 -10.19007
 Alpha  occ. eigenvalues --  -10.19005 -10.18964 -10.18962 -10.18959  -6.54843
 Alpha  occ. eigenvalues --   -4.71102  -4.71102  -4.70601  -0.85560  -0.84847
 Alpha  occ. eigenvalues --   -0.84844  -0.76669  -0.74366  -0.74365  -0.74329
 Alpha  occ. eigenvalues --   -0.73822  -0.73820  -0.64436  -0.60337  -0.60307
 Alpha  occ. eigenvalues --   -0.60305  -0.59207  -0.59206  -0.55448  -0.51436
 Alpha  occ. eigenvalues --   -0.51434  -0.49296  -0.45440  -0.45439  -0.44774
 Alpha  occ. eigenvalues --   -0.44344  -0.44344  -0.44068  -0.41946  -0.41869
 Alpha  occ. eigenvalues --   -0.41867  -0.40379  -0.40376  -0.36844  -0.36353
 Alpha  occ. eigenvalues --   -0.36349  -0.35898  -0.34252  -0.34251  -0.34224
 Alpha  occ. eigenvalues --   -0.31885  -0.31883  -0.26775  -0.25450  -0.25444
 Alpha  occ. eigenvalues --   -0.25242  -0.24704  -0.24703  -0.21145
 Alpha virt. eigenvalues --   -0.01883  -0.01876  -0.00829   0.00173   0.00425
 Alpha virt. eigenvalues --    0.00432   0.06877   0.06891   0.09492   0.11038
 Alpha virt. eigenvalues --    0.11040   0.13902   0.14528   0.14530   0.15165

 Mulliken charges:
               1
     1  C   -0.150891
     2  C   -0.125433
     3  C   -0.156939
     4  C   -0.105707
     5  C   -0.170335
     6  C   -0.115355
     7  P    0.450669
     8  C   -0.131216
     9  C   -0.167820
    10  C   -0.121819
    11  C   -0.163603
    12  C   -0.119712
    13  C   -0.176072
    14  C   -0.084185
    15  C   -0.159209
    16  C   -0.117942
    17  C   -0.121680
    18  C   -0.120865
    19  C   -0.147516
    20  H    0.122290
    21  H    0.125474
    22  H    0.130714
    23  H    0.133097
    24  H    0.127723
    25  H    0.138690
    26  H    0.120176
    27  H    0.111303
    28  H    0.115674
    29  H    0.114780
    30  H    0.148588
    31  H    0.143384
    32  H    0.146954
    33  H    0.147782
    34  H    0.178999
 Sum of Mulliken charges =  -0.00000

 Dipole moment (field-independent basis, Debye):
    X=             -2.5255    Y=             -2.7923    Z=             -0.1973  Tot=              3.7701
 Quadrupole moment (field-independent basis, Debye-Ang):
   XX=           -119.3618   YY=           -107.7113   ZZ=           -110.6587
   XY=              3.8999   XZ=             -0.1445   YZ=             -1.3566

 Summary of Natural Population Analysis:

                                       Natural Population
                Natural  -----------------------------------------------
    Atom  No    Charge         Core      Valence    Rydberg      Total
 -----------------------------------------------------------------------
      C    1   -0.26005      1.99909     4.24531    0.01564     6.26005
      C    2   -0.24831      1.99910     4.23421    0.01500     6.24831
      C    3   -0.20866      1.99901     4.19397    0.01567     6.20866
      C    4   -0.43382      1.99887     4.41073    0.02421     6.43382
      C    5   -0.25493      1.99899     4.23842    0.01752     6.25493
      C    6   -0.22313      1.99909     4.20981    0.01424     6.22313
      P    7    1.24225      9.99750     3.71001    0.05025    13.75775
      C    8   -0.48094      1.99887     4.45596    0.02612     6.48094
      C    9   -0.24557      1.99899     4.22881    0.01778     6.24557
      C   10   -0.23528      1.99909     4.22152    0.01467     6.23528
      C   11   -0.28675      1.99909     4.27122    0.01643     6.28675
      C   12   -0.23894      1.99910     4.22506    0.01479     6.23894
      C   13   -0.23928      1.99902     4.22391    0.01635     6.23928
      C   14   -0.38184      1.99891     4.35775    0.02518     6.38184
      C   15   -0.20631      1.99902     4.19210    0.01520     6.20631
      C   16   -0.23340      1.99910     4.22012    0.01418     6.23340
      C   17   -0.19777      1.99909     4.18492    0.01376     6.19777
      C   18   -0.23161      1.99909     4.21841    0.01411     6.23161
      C   19   -0.20250      1.99900     4.18742    0.01609     6.20250
      H   20    0.23185      0.00000     0.76726    0.00089     0.76815
      H   21    0.23550      0.00000     0.76362    0.00087     0.76450
      H   22    0.23355      0.00000     0.76526    0.00119     0.76645
      H   23    0.23773      0.00000     0.76094    0.00133     0.76227
      H   24    0.23671      0.00000     0.76241    0.00088     0.76329
      H   25    0.24037      0.00000     0.75806    0.00157     0.75963
      H   26    0.23336      0.00000     0.76576    0.00088     0.76664
      H   27    0.22700      0.00000     0.77209    0.00091     0.77300
      H   28    0.23028      0.00000     0.76878    0.00094     0.76972
      H   29    0.22390      0.00000     0.77515    0.00095     0.77610
      H   30    0.24171      0.00000     0.75712    0.00118     0.75829
      H   31    0.24329      0.00000     0.75581    0.00090     0.75671
      H   32    0.24240      0.00000     0.75677    0.00082     0.75760
      H   33    0.24611      0.00000     0.75303    0.00086     0.75389
      H   34    0.26308      0.00000     0.73569    0.00122     0.73692
 =======================================================================
   * Total *   -0.00000     45.98001    91.64741    0.37259   138.00000

 Normal termination of Gaussian 16 at Sun Aug 23 07:35:43 2020.
