 Gaussian 16, Revision A.03,

 ---------------------------------
 # opt=CalcAll B3LYP/6-31G* scf=qc
 ---------------------------------

 -------------------
 Title Card Required
 -------------------
 Symbolic Z-matrix:
 Charge =  0 Multiplicity = 1

 SCF Done:  E(RB3LYP) =  -1333.98806686     a.u. after    7 cycles
 SCF Done:  E(RB3LYP) =  -1333.99698394     a.u. after   17 cycles
 SCF Done:  E(RB3LYP) =  -1333.99829753     a.u. after   17 cycles
 SCF Done:  E(RB3LYP) =  -1333.99860100     a.u. after   17 cycles
 SCF Done:  E(RB3LYP) =  -1333.99892982     a.u. after   11 cycles
 SCF Done:  E(RB3LYP) =  -1333.99897736     a.u. after   11 cycles
 SCF Done:  E(RB3LYP) =  -1333.99897596     a.u. after    5 cycles
 SCF Done:  E(RB3LYP) =  -1333.99897830     a.u. after    5 cycles
 SCF Done:  E(RB3LYP) =  -1333.99897369     a.u. after    2 cycles
 SCF Done:  E(RB3LYP) =  -1333.99898117     a.u. after    3 cycles
 SCF Done:  E(RB3LYP) =  -1333.99897562     a.u. after    2 cycles
 SCF Done:  E(RB3LYP) =  -1333.99897493     a.u. after    2 cycles
 SCF Done:  E(RB3LYP) =  -1333.99897449     a.u. after    3 cycles
 SCF Done:  E(RB3LYP) =  -1333.99897496     a.u. after    2 cycles
 SCF Done:  E(RB3LYP) =  -1333.99897990     a.u. after    2 cycles
 SCF Done:  E(RB3LYP) =  -1333.99897513     a.u. after    2 cycles
 SCF Done:  E(RB3LYP) =  -1333.99897517     a.u. after    2 cycles
 SCF Done:  E(RB3LYP) =  -1333.99897850     a.u. after    2 cycles
 Optimization completed.
    -- Stationary point found.
 Normal termination of Gaussian 16 at Sun Aug 23 15:11:31 2020.

 ----------------------------------------------------------------------
 # freq B3LYP/6-31G* scf=qc volume NMR pop=NPA density=current Geom=All
 Check Guess=Read
 ----------------------------------------------------------------------

 Structure from the checkpoint file:  "phosphine_5_conf102.chk"
 -------------------
 Title Card Required
 -------------------
 Charge =  0 Multiplicity = 1

 SCF Done:  E(RB3LYP) =  -1333.99897850     a.u. after    1 cycles

      1  C    Isotropic =    79.9247   Anisotropy =   137.4129

      2  C    Isotropic =    59.0188   Anisotropy =   162.7681

      3  C    Isotropic =    61.5904   Anisotropy =   173.4528

      4  C    Isotropic =    60.6919   Anisotropy =   171.8225

      5  C    Isotropic =    80.0530   Anisotropy =   136.6861

      6  C    Isotropic =    32.6727   Anisotropy =    98.8337

      7  F    Isotropic =   295.8132   Anisotropy =   113.0997

      8  P    Isotropic =   366.1339   Anisotropy =    39.8312

      9  C    Isotropic =    61.6188   Anisotropy =   173.4858

     10  C    Isotropic =    59.0404   Anisotropy =   162.7770

     11  C    Isotropic =    79.9350   Anisotropy =   137.4323

     12  C    Isotropic =    32.6692   Anisotropy =    98.8090

     13  C    Isotropic =    80.0595   Anisotropy =   136.7214

     14  C    Isotropic =    60.7023   Anisotropy =   171.8689

     15  F    Isotropic =   295.8079   Anisotropy =   113.0383

     16  C    Isotropic =    61.6018   Anisotropy =   173.4717

     17  C    Isotropic =    59.0488   Anisotropy =   162.7863

     18  C    Isotropic =    79.9352   Anisotropy =   137.4379

     19  C    Isotropic =    32.6635   Anisotropy =    98.8205

     20  C    Isotropic =    80.0654   Anisotropy =   136.7172

     21  C    Isotropic =    60.7194   Anisotropy =   171.8367

     22  F    Isotropic =   295.7941   Anisotropy =   113.0042

     23  H    Isotropic =    25.3560   Anisotropy =     4.2624

     24  H    Isotropic =    24.6211   Anisotropy =     8.9171

     25  H    Isotropic =    25.3675   Anisotropy =    12.0080

     26  H    Isotropic =    25.4651   Anisotropy =     5.7367

     27  H    Isotropic =    24.6202   Anisotropy =     8.9184

     28  H    Isotropic =    25.3589   Anisotropy =     4.2579

     29  H    Isotropic =    25.4646   Anisotropy =     5.7384

     30  H    Isotropic =    25.3650   Anisotropy =    12.0184

     31  H    Isotropic =    24.6212   Anisotropy =     8.9212

     32  H    Isotropic =    25.3572   Anisotropy =     4.2613

     33  H    Isotropic =    25.4653   Anisotropy =     5.7393

     34  H    Isotropic =    25.3693   Anisotropy =    12.0162

  Exact polarizability: 226.216   0.019 226.135   0.030   0.017 167.718
 Approx polarizability: 337.888   0.040 337.724   0.067   0.040 314.856

                      1                      2                      3
                      A                      A                      A
 Frequencies --     23.6018                24.6793                37.2837
 Red. masses --      4.0450                 4.0523                 9.0743
 Frc consts  --      0.0013                 0.0015                 0.0074
 IR Inten    --      0.2528                 0.2514                 0.0953

                      4                      5                      6
                      A                      A                      A
 Frequencies --     37.4425                40.2639                50.6707
 Red. masses --      9.1221                 3.7489                 9.9563
 Frc consts  --      0.0075                 0.0036                 0.0151
 IR Inten    --      0.0926                 0.0065                 0.1153

                      7                      8                      9
                      A                      A                      A
 Frequencies --    133.0556               145.3841               145.6927
 Red. masses --      8.0518                 8.3627                 8.3732
 Frc consts  --      0.0840                 0.1041                 0.1047
 IR Inten    --      0.0230                 0.5215                 0.5187

                     10                     11                     12
                      A                      A                      A
 Frequencies --    208.9924               219.0276               219.3226
 Red. masses --      8.0494                 6.9861                 6.9912
 Frc consts  --      0.2071                 0.1975                 0.1981
 IR Inten    --      0.2898                 0.5247                 0.5263

                     13                     14                     15
                      A                      A                      A
 Frequencies --    307.9353               336.0601               336.1090
 Red. masses --      8.4347                 8.3083                 8.3085
 Frc consts  --      0.4712                 0.5528                 0.5530
 IR Inten    --      1.0311                 0.0439                 0.0454

                     16                     17                     18
                      A                      A                      A
 Frequencies --    397.2015               404.1551               404.1771
 Red. masses --      7.7379                 8.0288                 8.0145
 Frc consts  --      0.7193                 0.7727                 0.7714
 IR Inten    --      0.3045                10.0969                10.0397

                     19                     20                     21
                      A                      A                      A
 Frequencies --    420.6244               420.6911               424.7054
 Red. masses --      3.2794                 3.2810                 3.1341
 Frc consts  --      0.3419                 0.3421                 0.3331
 IR Inten    --      1.1174                 1.1517                 0.0256

                     22                     23                     24
                      A                      A                      A
 Frequencies --    435.1021               435.1619               463.5232
 Red. masses --      6.1424                 6.1549                 6.6403
 Frc consts  --      0.6851                 0.6867                 0.8406
 IR Inten    --     18.9904                19.0374                 7.3682

                     25                     26                     27
                      A                      A                      A
 Frequencies --    533.0575               533.1990               535.5326
 Red. masses --      2.8102                 2.8114                 2.9076
 Frc consts  --      0.4705                 0.4709                 0.4913
 IR Inten    --     21.8711                21.8014                13.5278

                     28                     29                     30
                      A                      A                      A
 Frequencies --    608.0791               630.0188               630.0522
 Red. masses --      7.9070                 7.8291                 7.8281
 Frc consts  --      1.7226                 1.8309                 1.8309
 IR Inten    --      0.0089                 0.0386                 0.0385

                     31                     32                     33
                      A                      A                      A
 Frequencies --    648.2370               648.4122               648.4423
 Red. masses --      7.2762                 7.3797                 7.3802
 Frc consts  --      1.8015                 1.8281                 1.8284
 IR Inten    --      0.0049                 0.1282                 0.1281

                     34                     35                     36
                      A                      A                      A
 Frequencies --    715.1290               715.6887               715.7671
 Red. masses --      4.8094                 4.8276                 4.8317
 Frc consts  --      1.4491                 1.4569                 1.4585
 IR Inten    --      1.0471                 3.9616                 3.9261

                     37                     38                     39
                      A                      A                      A
 Frequencies --    835.7418               835.8654               836.9543
 Red. masses --      1.2649                 1.2621                 1.3224
 Frc consts  --      0.5205                 0.5196                 0.5458
 IR Inten    --      0.7597                 0.6018                10.7787

                     40                     41                     42
                      A                      A                      A
 Frequencies --    839.5239               839.5774               839.7163
 Red. masses --      3.2892                 3.2908                 3.8916
 Frc consts  --      1.3659                 1.3667                 1.6168
 IR Inten    --     59.9136                59.8523                21.8708

                     43                     44                     45
                      A                      A                      A
 Frequencies --    843.5811               843.6208               844.0626
 Red. masses --      1.9600                 1.9960                 1.7068
 Frc consts  --      0.8218                 0.8370                 0.7164
 IR Inten    --     10.2598                10.5273                12.0321

                     46                     47                     48
                      A                      A                      A
 Frequencies --    958.5324               958.6784               959.9592
 Red. masses --      1.2559                 1.2557                 1.2577
 Frc consts  --      0.6799                 0.6800                 0.6829
 IR Inten    --      0.1741                 0.1772                 0.3409

                     49                     50                     51
                      A                      A                      A
 Frequencies --    969.7853               969.9628               973.1874
 Red. masses --      1.3360                 1.3356                 1.3208
 Frc consts  --      0.7403                 0.7403                 0.7370
 IR Inten    --      0.0322                 0.0328                 0.3067

                     52                     53                     54
                      A                      A                      A
 Frequencies --   1034.7113              1034.7807              1035.1768
 Red. masses --      3.0263                 3.0299                 3.0231
 Frc consts  --      1.9090                 1.9115                 1.9087
 IR Inten    --      7.9868                 7.9405                 0.0979

                     55                     56                     57
                      A                      A                      A
 Frequencies --   1102.8546              1103.1059              1108.7981
 Red. masses --      3.6608                 3.6666                 3.5533
 Frc consts  --      2.6234                 2.6287                 2.5739
 IR Inten    --     19.2134                19.2206                 1.9286

                     58                     59                     60
                      A                      A                      A
 Frequencies --   1127.4206              1127.6693              1127.8856
 Red. masses --      1.3307                 1.3305                 1.3290
 Frc consts  --      0.9966                 0.9968                 0.9961
 IR Inten    --      1.1823                 0.9178                 6.9399

                     61                     62                     63
                      A                      A                      A
 Frequencies --   1195.1043              1195.4860              1199.4367
 Red. masses --      1.1829                 1.1849                 1.1801
 Frc consts  --      0.9954                 0.9977                 1.0003
 IR Inten    --     60.3029                61.0841                 2.5893

                     64                     65                     66
                      A                      A                      A
 Frequencies --   1285.2554              1285.4052              1286.1791
 Red. masses --      3.7581                 3.7463                 3.7846
 Frc consts  --      3.6576                 3.6470                 3.6887
 IR Inten    --    167.0882               166.8783                38.6862

                     67                     68                     69
                      A                      A                      A
 Frequencies --   1324.2257              1327.3062              1327.6495
 Red. masses --      2.7291                 2.1856                 2.2754
 Frc consts  --      2.8196                 2.2686                 2.3631
 IR Inten    --      8.8678                 3.9754                 3.8685

                     70                     71                     72
                      A                      A                      A
 Frequencies --   1336.5297              1336.8112              1337.0971
 Red. masses --      2.3686                 2.2660                 1.9518
 Frc consts  --      2.4929                 2.3858                 2.0559
 IR Inten    --      0.3917                 0.3342                 0.8926

                     73                     74                     75
                      A                      A                      A
 Frequencies --   1437.9512              1438.1190              1438.2037
 Red. masses --      2.9886                 2.9915                 2.9911
 Frc consts  --      3.6408                 3.6452                 3.6451
 IR Inten    --      6.5671                 3.3087                 2.2675

                     76                     77                     78
                      A                      A                      A
 Frequencies --   1545.4709              1545.6291              1546.4516
 Red. masses --      2.4105                 2.4061                 2.4456
 Frc consts  --      3.3922                 3.3867                 3.4459
 IR Inten    --    116.3460               116.5475                24.2214

                     79                     80                     81
                      A                      A                      A
 Frequencies --   1633.9081              1633.9649              1633.9755
 Red. masses --      6.9792                 6.9680                 6.9606
 Frc consts  --     10.9777                10.9609                10.9493
 IR Inten    --      9.8081                 9.5734                15.3748

                     82                     83                     84
                      A                      A                      A
 Frequencies --   1653.5239              1653.5367              1654.3844
 Red. masses --      5.8110                 5.8074                 5.8799
 Frc consts  --      9.3609                 9.3554                 9.4818
 IR Inten    --     82.9245                82.7324                22.4848

                     85                     86                     87
                      A                      A                      A
 Frequencies --   3188.7884              3188.8553              3188.9397
 Red. masses --      1.0892                 1.0892                 1.0892
 Frc consts  --      6.5255                 6.5256                 6.5259
 IR Inten    --      5.6680                 4.0280                 3.7035

                     88                     89                     90
                      A                      A                      A
 Frequencies --   3205.6741              3205.8870              3206.4442
 Red. masses --      1.0878                 1.0878                 1.0879
 Frc consts  --      6.5862                 6.5870                 6.5898
 IR Inten    --      1.9752                 2.0238                 0.4106

                     91                     92                     93
                      A                      A                      A
 Frequencies --   3221.7968              3221.9065              3222.1457
 Red. masses --      1.0942                 1.0942                 1.0941
 Frc consts  --      6.6919                 6.6924                 6.6927
 IR Inten    --      3.5479                 4.3268                10.8528

                     94                     95                     96
                      A                      A                      A
 Frequencies --   3222.6167              3222.7410              3222.9246
 Red. masses --      1.0936                 1.0936                 1.0938
 Frc consts  --      6.6918                 6.6922                 6.6943
 IR Inten    --     11.2692                12.0726                 0.6993

 - Thermochemistry -
 -------------------
 Temperature   298.150 Kelvin.  Pressure   1.00000 Atm.
 Atom     1 has atomic number  6 and mass  12.00000

 Molecular mass:   316.06287 amu.
 Principal axes and moments of inertia in atomic units:
                           1         2         3
     Eigenvalues --  8317.758828319.65042**********
           X            0.99985   0.01718   0.00001
           Y           -0.01718   0.99985   0.00000
           Z           -0.00001  -0.00000   1.00000
 This molecule is an asymmetric top.
 Rotational symmetry number  1.
 Warning -- assumption of classical behavior for rotation
           may cause significant error
 Rotational temperatures (Kelvin)      0.01041     0.01041     0.00596
 Rotational constants (GHZ):           0.21697     0.21693     0.12429
 Zero-point vibrational energy     655278.2 (Joules/Mol)
                                  156.61524 (Kcal/Mol)
 Warning -- explicit consideration of  28 degrees of freedom as
           vibrations may cause significant error
 Vibrational temperatures:     33.96    35.51    53.64    53.87    57.93
          (Kelvin)             72.90   191.44   209.18   209.62   300.69
                              315.13   315.56   443.05   483.52   483.59
                              571.48   581.49   581.52   605.18   605.28
                              611.06   626.01   626.10   666.91   766.95
                              767.15   770.51   874.89   906.46   906.50
                              932.67   932.92   932.96  1028.91  1029.72
                             1029.83  1202.45  1202.62  1204.19  1207.89
                             1207.96  1208.16  1213.73  1213.78  1214.42
                             1379.11  1379.32  1381.17  1395.30  1395.56
                             1400.20  1488.72  1488.82  1489.39  1586.76
                             1587.12  1595.31  1622.11  1622.46  1622.78
                             1719.49  1720.04  1725.72  1849.20  1849.41
                             1850.52  1905.27  1909.70  1910.19  1922.97
                             1923.37  1923.78  2068.89  2069.13  2069.25
                             2223.59  2223.82  2225.00  2350.83  2350.91
                             2350.93  2379.05  2379.07  2380.29  4587.96
                             4588.05  4588.17  4612.25  4612.56  4613.36
                             4635.45  4635.60  4635.95  4636.63  4636.81
                             4637.07

 Zero-point correction=                           0.249582 (Hartree/Particle)
 Thermal correction to Energy=                    0.268013
 Thermal correction to Enthalpy=                  0.268957
 Thermal correction to Gibbs Free Energy=         0.199509
 Sum of electronic and zero-point Energies=          -1333.749396
 Sum of electronic and thermal Energies=             -1333.730966
 Sum of electronic and thermal Enthalpies=           -1333.730022
 Sum of electronic and thermal Free Energies=        -1333.799469

                     E (Thermal)             CV                S
                      KCal/Mol        Cal/Mol-Kelvin    Cal/Mol-Kelvin
 Total                  168.181             71.396            146.165
 Electronic               0.000              0.000              0.000
 Translational            0.889              2.981             43.148
 Rotational               0.889              2.981             35.262
 Vibrational            166.403             65.434             67.755
 Vibration     1          0.593              1.985              6.305
 Vibration     2          0.593              1.985              6.217
 Vibration     3          0.594              1.982              5.398
 Vibration     4          0.594              1.982              5.390
 Vibration     5          0.594              1.981              5.246
 Vibration     6          0.595              1.977              4.791
 Vibration     7          0.613              1.920              2.901
 Vibration     8          0.617              1.908              2.732
 Vibration     9          0.617              1.907              2.728
 Vibration    10          0.642              1.827              2.052
 Vibration    11          0.647              1.812              1.967
 Vibration    12          0.647              1.812              1.965
 Vibration    13          0.698              1.659              1.373
 Vibration    14          0.717              1.603              1.231
 Vibration    15          0.717              1.603              1.231
 Vibration    16          0.764              1.476              0.973
 Vibration    17          0.769              1.461              0.948
 Vibration    18          0.769              1.461              0.947
 Vibration    19          0.783              1.425              0.890
 Vibration    20          0.783              1.425              0.890
 Vibration    21          0.787              1.416              0.876
 Vibration    22          0.796              1.394              0.842
 Vibration    23          0.796              1.394              0.842
 Vibration    24          0.821              1.331              0.756
 Vibration    25          0.888              1.177              0.580
 Vibration    26          0.888              1.177              0.580
 Vibration    27          0.891              1.171              0.575
 Vibration    28          0.967              1.015              0.436

                           ! Non-Optimized Parameters !
 Normal termination of Gaussian 16 at Sun Aug 23 15:25:28 2020.
 Gaussian 16:  ES64L-G16RevA.03 25-Dec-2016

 ----------------------------------------------------------------------
 # TD(NStates=10, Root=1) B3LYP/6-31G* scf=qc volume pop=NPA density=cu
 rrent Geom=AllCheck Guess=Read
 ----------------------------------------------------------------------

 Structure from the checkpoint file:  "phosphine_5_conf103.chk"
 -------------------
 Title Card Required
 -------------------
 Charge =  0 Multiplicity = 1

                         Standard orientation:
 ---------------------------------------------------------------------
 Center     Atomic      Atomic             Coordinates (Angstroms)
 Number     Number       Type             X           Y           Z
 ---------------------------------------------------------------------
      1          6           0        2.842985    2.891215    0.699199
      2          6           0        1.806284    2.116637    1.216532
      3          6           0        1.377658    0.943369    0.571357
      4          6           0        2.036908    0.550994   -0.604445
      5          6           0        3.084580    1.308232   -1.130388
      6          6           0        3.467071    2.469553   -0.469650
      7          9           0        4.478838    3.205801   -0.972887
      8         15           0       -0.000034    0.000155    1.374465
      9          6           0       -1.505845    0.721659    0.571669
     10          6           0       -2.736320    0.505065    1.216302
     11          6           0       -3.925598    1.015241    0.698921
     12          6           0       -3.872536    1.767395   -0.469389
     13          6           0       -2.675477    2.018066   -1.129494
     14          6           0       -1.495710    1.489691   -0.603548
     15          9           0       -5.016184    2.275081   -0.972700
     16          6           0        0.127945   -1.664669    0.571616
     17          6           0        0.931773   -2.621603    1.215580
     18          6           0        1.084563   -3.906651    0.698245
     19          6           0        0.405599   -4.237184   -0.469350
     20          6           0       -0.411000   -3.326233   -1.128777
     21          6           0       -0.543279   -2.040313   -0.602875
     22          9           0        0.537693   -5.481481   -0.972616
     23          1           0        3.177907    3.799242    1.189982
     24          1           0        1.325254    2.427579    2.140695
     25          1           0        1.736709   -0.358434   -1.115712
     26          1           0        3.602924    1.011291   -2.036536
     27          1           0       -2.765058   -0.067729    2.140010
     28          1           0       -4.879504    0.850328    1.189234
     29          1           0       -2.677536    2.616109   -2.035192
     30          1           0       -0.557976    1.685382   -1.114382
     31          1           0        1.443027   -2.359781    2.138740
     32          1           0        1.705104   -4.650000    1.188053
     33          1           0       -0.928677   -3.627368   -2.033919
     34          1           0       -1.182396   -1.326359   -1.113148
 ---------------------------------------------------------------------

 SCF Done:  E(RB3LYP) =  -1333.99897850     a.u. after    1 cycles

 Excitation energies and oscillator strengths:

 Excited State   1:      Singlet-A      4.5739 eV  271.07 nm  f=0.1356  <S**2>=0.000
      81 -> 82         0.69441
 This state for optimization and/or second-order correction.
 Total Energy, E(TD-HF/TD-DFT) =  -1333.83089175
 Copying the excited state density for this state as the 1-particle RhoCI density.

 Excited State   2:      Singlet-A      4.5744 eV  271.04 nm  f=0.1360  <S**2>=0.000
      81 -> 83         0.69443

 Excited State   3:      Singlet-A      4.5860 eV  270.35 nm  f=0.0088  <S**2>=0.000
      81 -> 84         0.68932

 Excited State   4:      Singlet-A      4.9053 eV  252.76 nm  f=0.0017  <S**2>=0.000
      81 -> 85         0.67675

 Excited State   5:      Singlet-A      4.9057 eV  252.74 nm  f=0.0017  <S**2>=0.000
      81 -> 86         0.67666

 Excited State   6:      Singlet-A      5.2392 eV  236.65 nm  f=0.0075  <S**2>=0.000
      79 -> 82        -0.11359
      80 -> 83        -0.11383
      81 -> 87         0.67232

 Excited State   7:      Singlet-A      5.4170 eV  228.88 nm  f=0.0000  <S**2>=0.000
      75 -> 84         0.14228
      77 -> 82        -0.17485
      78 -> 83         0.17075
      79 -> 82        -0.24318
      79 -> 83         0.32666
      79 -> 85        -0.15490
      80 -> 82        -0.32652
      80 -> 83        -0.24215
      80 -> 86         0.15224

 Excited State   8:      Singlet-A      5.4454 eV  227.69 nm  f=0.0020  <S**2>=0.000
      76 -> 82         0.20342
      77 -> 83         0.18917
      77 -> 87        -0.11693
      78 -> 82        -0.18960
      79 -> 84        -0.29859
      79 -> 85         0.10274
      79 -> 86        -0.11617
      80 -> 84         0.40287
      80 -> 85         0.11659
      80 -> 86         0.10296
      81 -> 85         0.11281

 Excited State   9:      Singlet-A      5.4456 eV  227.68 nm  f=0.0021  <S**2>=0.000
      76 -> 83        -0.20289
      77 -> 82        -0.18664
      78 -> 83        -0.19100
      78 -> 87        -0.11691
      79 -> 84         0.40182
      79 -> 85        -0.11509
      79 -> 86        -0.10274
      80 -> 84         0.30020
      80 -> 85         0.10220
      80 -> 86        -0.11828
      81 -> 86         0.11302

 Excited State  10:      Singlet-A      5.6625 eV  218.96 nm  f=0.0006  <S**2>=0.000
      75 -> 84         0.16560
      76 -> 84        -0.10296
      77 -> 82        -0.24550
      78 -> 83         0.24319
      79 -> 83        -0.28373
      79 -> 85        -0.24107
      80 -> 82         0.30900
      80 -> 86         0.24429

 The electronic state is 1-A.
 Alpha  occ. eigenvalues --  -77.09285 -24.70933 -24.70933 -24.70932 -10.27929
 Alpha  occ. eigenvalues --  -10.27929 -10.27928 -10.20801 -10.20801 -10.20800
 Alpha  occ. eigenvalues --  -10.20701 -10.20700 -10.20699 -10.20478 -10.20478
 Alpha  occ. eigenvalues --  -10.20478 -10.20317 -10.20316 -10.20316 -10.20309
 Alpha  occ. eigenvalues --  -10.20309 -10.20308  -6.55986  -4.72248  -4.72248
 Alpha  occ. eigenvalues --   -4.71743  -1.22112  -1.22111  -1.22110  -0.87207
 Alpha  occ. eigenvalues --   -0.86555  -0.86555  -0.77802  -0.76322  -0.76285
 Alpha  occ. eigenvalues --   -0.76285  -0.74867  -0.74867  -0.65458  -0.63138
 Alpha  occ. eigenvalues --   -0.62959  -0.62958  -0.60998  -0.60997  -0.57074
 Alpha  occ. eigenvalues --   -0.54665  -0.54665  -0.54254  -0.49446  -0.49445
 Alpha  occ. eigenvalues --   -0.49381  -0.48019  -0.48018  -0.46310  -0.46309
 Alpha  occ. eigenvalues --   -0.46296  -0.45864  -0.44921  -0.44921  -0.43857
 Alpha  occ. eigenvalues --   -0.43705  -0.43705  -0.42082  -0.40157  -0.40108
 Alpha  occ. eigenvalues --   -0.40108  -0.37160  -0.37159  -0.36439  -0.34997
 Alpha  occ. eigenvalues --   -0.34997  -0.34951  -0.33923  -0.33922  -0.27232
 Alpha  occ. eigenvalues --   -0.26848  -0.26599  -0.26598  -0.25424  -0.25422
 Alpha  occ. eigenvalues --   -0.21917
 Alpha virt. eigenvalues --   -0.02511  -0.02510  -0.02414  -0.01173  -0.01171
 Alpha virt. eigenvalues --   -0.00310   0.05884   0.05887   0.08467   0.10088
 Alpha virt. eigenvalues --    0.10089   0.12848   0.13530   0.13530   0.14053

 Mulliken charges:
               1
     1  C   -0.196996
     2  C   -0.160154
     3  C   -0.115505
     4  C   -0.187094
     5  C   -0.178934
     6  C    0.345990
     7  F   -0.302534
     8  P    0.435501
     9  C   -0.116624
    10  C   -0.179425
    11  C   -0.181594
    12  C    0.357336
    13  C   -0.189104
    14  C   -0.160618
    15  F   -0.296715
    16  C   -0.077309
    17  C   -0.158580
    18  C   -0.187102
    19  C    0.390319
    20  C   -0.184293
    21  C   -0.156405
    22  F   -0.282685
    23  H    0.137142
    24  H    0.133035
    25  H    0.128869
    26  H    0.139675
    27  H    0.134296
    28  H    0.144037
    29  H    0.148117
    30  H    0.161305
    31  H    0.158277
    32  H    0.160490
    33  H    0.163339
    34  H    0.173943
 Sum of Mulliken charges =  -0.00000

 Dipole moment (field-independent basis, Debye):
    X=             -0.7811    Y=             -3.1391    Z=              1.4559  Tot=              3.5473
 Quadrupole moment (field-independent basis, Debye-Ang):
   XX=           -145.0826   YY=           -133.9538   ZZ=           -121.8271
   XY=             -2.9564   XZ=              0.8064   YZ=              0.3167

 Summary of Natural Population Analysis:

                                       Natural Population
                Natural  -----------------------------------------------
    Atom  No    Charge         Core      Valence    Rydberg      Total
 -----------------------------------------------------------------------
      C    1   -0.32559      1.99899     4.31051    0.01608     6.32559
      C    2   -0.19545      1.99902     4.18082    0.01561     6.19545
      C    3   -0.46769      1.99887     4.44387    0.02495     6.46769
      C    4   -0.27249      1.99900     4.25492    0.01857     6.27249
      C    5   -0.28495      1.99899     4.27112    0.01484     6.28495
      C    6    0.38221      1.99844     3.59141    0.02794     5.61779
      F    7   -0.33742      1.99994     7.33198    0.00549     9.33742
      P    8    1.21011      9.99756     3.74076    0.05156    13.78989
      C    9   -0.46363      1.99889     4.43797    0.02677     6.46363
      C   10   -0.22746      1.99903     4.21214    0.01629     6.22746
      C   11   -0.29676      1.99899     4.28280    0.01497     6.29676
      C   12    0.39953      1.99844     3.57423    0.02779     5.60047
      C   13   -0.30413      1.99899     4.28995    0.01519     6.30413
      C   14   -0.21171      1.99900     4.19577    0.01693     6.21171
      F   15   -0.33238      1.99994     7.32689    0.00554     9.33238
      C   16   -0.38680      1.99890     4.36318    0.02471     6.38680
      C   17   -0.18992      1.99903     4.17562    0.01526     6.18992
      C   18   -0.30859      1.99899     4.29438    0.01522     6.30859
      C   19    0.45463      1.99844     3.51982    0.02710     5.54537
      C   20   -0.29738      1.99898     4.28363    0.01477     6.29738
      C   21   -0.20578      1.99901     4.19034    0.01643     6.20578
      F   22   -0.31988      1.99994     7.31435    0.00558     9.31988
      H   23    0.24722      0.00000     0.75159    0.00118     0.75278
      H   24    0.23485      0.00000     0.76409    0.00106     0.76515
      H   25    0.23548      0.00000     0.76308    0.00145     0.76452
      H   26    0.24811      0.00000     0.75068    0.00121     0.75189
      H   27    0.23444      0.00000     0.76464    0.00093     0.76556
      H   28    0.24967      0.00000     0.74909    0.00124     0.75033
      H   29    0.25251      0.00000     0.74629    0.00120     0.74749
      H   30    0.25300      0.00000     0.74540    0.00160     0.74700
      H   31    0.24798      0.00000     0.75080    0.00122     0.75202
      H   32    0.25802      0.00000     0.74081    0.00117     0.74198
      H   33    0.25960      0.00000     0.73922    0.00118     0.74040
      H   34    0.26062      0.00000     0.73819    0.00119     0.73938
 =======================================================================
   * Total *   -0.00000     51.97740   109.59035    0.43225   162.00000

 Normal termination of Gaussian 16 at Sun Aug 23 15:39:51 2020.
