 Gaussian 16, Revision A.03,

 ---------------------------------
 # opt=CalcAll B3LYP/6-31G* scf=qc
 ---------------------------------

 -------------------
 Title Card Required
 -------------------
 Symbolic Z-matrix:
 Charge =  0 Multiplicity = 1

 SCF Done:  E(RB3LYP) =  -2415.02228598     a.u. after    8 cycles
 SCF Done:  E(RB3LYP) =  -2415.05218344     a.u. after   17 cycles
 SCF Done:  E(RB3LYP) =  -2415.06747135     a.u. after   15 cycles
 SCF Done:  E(RB3LYP) =  -2415.08337229     a.u. after   19 cycles
 SCF Done:  E(RB3LYP) =  -2415.08486466     a.u. after   15 cycles
 SCF Done:  E(RB3LYP) =  -2415.08562516     a.u. after   15 cycles
 SCF Done:  E(RB3LYP) =  -2415.08598882     a.u. after   15 cycles
 SCF Done:  E(RB3LYP) =  -2415.08616912     a.u. after   15 cycles
 SCF Done:  E(RB3LYP) =  -2415.08609915     a.u. after   15 cycles
 SCF Done:  E(RB3LYP) =  -2415.08624593     a.u. after   13 cycles
 SCF Done:  E(RB3LYP) =  -2415.08624233     a.u. after    3 cycles
 SCF Done:  E(RB3LYP) =  -2415.08623969     a.u. after    2 cycles
 SCF Done:  E(RB3LYP) =  -2415.08624762     a.u. after    2 cycles
 SCF Done:  E(RB3LYP) =  -2415.08624534     a.u. after    2 cycles
 SCF Done:  E(RB3LYP) =  -2415.08624186     a.u. after    3 cycles
 SCF Done:  E(RB3LYP) =  -2415.08624268     a.u. after    3 cycles
 SCF Done:  E(RB3LYP) =  -2415.08624625     a.u. after    2 cycles
 SCF Done:  E(RB3LYP) =  -2415.08624371     a.u. after    2 cycles
 Optimization completed.
    -- Stationary point found.
 Normal termination of Gaussian 16 at Sun Aug 23 04:54:22 2020.

 ----------------------------------------------------------------------
 # freq B3LYP/6-31G* scf=qc volume NMR pop=NPA density=current Geom=All
 Check Guess=Read
 ----------------------------------------------------------------------

 Structure from the checkpoint file:  "phosphine_11_conf12.chk"
 -------------------
 Title Card Required
 -------------------
 Charge =  0 Multiplicity = 1

 SCF Done:  E(RB3LYP) =  -2415.08624371     a.u. after    1 cycles

      1  C    Isotropic =    67.5397   Anisotropy =   140.1132

      2  C    Isotropic =    61.9163   Anisotropy =   168.6126

      3  C    Isotropic =    58.7418   Anisotropy =   177.4429

      4  C    Isotropic =    60.2392   Anisotropy =   160.3091

      5  C    Isotropic =    67.5478   Anisotropy =   140.5728

      6  C    Isotropic =    51.6021   Anisotropy =   109.1371

      7  Cl   Isotropic =   720.9280   Anisotropy =   453.0246

      8  P    Isotropic =   364.8641   Anisotropy =    37.8317

      9  C    Isotropic =    58.7663   Anisotropy =   177.4647

     10  C    Isotropic =    61.8877   Anisotropy =   168.6698

     11  C    Isotropic =    67.5385   Anisotropy =   140.1281

     12  C    Isotropic =    51.6003   Anisotropy =   109.1354

     13  C    Isotropic =    67.5536   Anisotropy =   140.5427

     14  C    Isotropic =    60.2143   Anisotropy =   160.2914

     15  Cl   Isotropic =   720.8913   Anisotropy =   453.0083

     16  C    Isotropic =    58.7311   Anisotropy =   177.4381

     17  C    Isotropic =    60.2150   Anisotropy =   160.2755

     18  C    Isotropic =    67.5449   Anisotropy =   140.5848

     19  C    Isotropic =    51.5955   Anisotropy =   109.1501

     20  C    Isotropic =    67.5389   Anisotropy =   140.1077

     21  C    Isotropic =    61.8802   Anisotropy =   168.6079

     22  Cl   Isotropic =   720.9673   Anisotropy =   452.8956

     23  H    Isotropic =    25.2091   Anisotropy =     8.1427

     24  H    Isotropic =    25.5828   Anisotropy =    12.1205

     25  H    Isotropic =    24.7785   Anisotropy =     8.9746

     26  H    Isotropic =    25.0933   Anisotropy =     6.6331

     27  H    Isotropic =    25.5754   Anisotropy =    12.1181

     28  H    Isotropic =    25.2065   Anisotropy =     8.1434

     29  H    Isotropic =    25.0958   Anisotropy =     6.6248

     30  H    Isotropic =    24.7762   Anisotropy =     8.9684

     31  H    Isotropic =    24.7779   Anisotropy =     8.9685

     32  H    Isotropic =    25.0909   Anisotropy =     6.6359

     33  H    Isotropic =    25.2089   Anisotropy =     8.1401

     34  H    Isotropic =    25.5805   Anisotropy =    12.1114

  Exact polarizability: 280.607  -0.050 280.555  -0.022  -0.044 185.154
 Approx polarizability: 393.417  -0.119 393.346  -0.051  -0.100 343.246

                      1                      2                      3
                      A                      A                      A
 Frequencies --     21.3843                22.8423                29.3144
 Red. masses --      4.5027                 4.8400                 9.6384
 Frc consts  --      0.0012                 0.0015                 0.0049
 IR Inten    --      0.2836                 0.2739                 0.1711

                      4                      5                      6
                      A                      A                      A
 Frequencies --     29.6890                38.1635                39.8200
 Red. masses --      8.3023                 6.2278                 5.4964
 Frc consts  --      0.0043                 0.0053                 0.0051
 IR Inten    --      0.1962                 0.1574                 0.0698

                      7                      8                      9
                      A                      A                      A
 Frequencies --    109.2769               117.6338               117.6873
 Red. masses --      8.8643                 8.8321                 8.8289
 Frc consts  --      0.0624                 0.0720                 0.0720
 IR Inten    --      0.0248                 0.3530                 0.3536

                     10                     11                     12
                      A                      A                      A
 Frequencies --    181.0385               187.3788               187.6472
 Red. masses --     10.0366                 8.7839                 8.7960
 Frc consts  --      0.1938                 0.1817                 0.1825
 IR Inten    --      0.3316                 0.5719                 0.5692

                     13                     14                     15
                      A                      A                      A
 Frequencies --    264.0199               293.6573               293.7366
 Red. masses --      8.9802                 8.4114                 8.4049
 Frc consts  --      0.3688                 0.4274                 0.4273
 IR Inten    --      0.2154                 0.9066                 0.9096

                     16                     17                     18
                      A                      A                      A
 Frequencies --    310.8706               328.7368               328.8103
 Red. masses --      6.0431                 5.9779                 5.9864
 Frc consts  --      0.3441                 0.3806                 0.3813
 IR Inten    --      0.0032                 1.8747                 1.8953

                     19                     20                     21
                      A                      A                      A
 Frequencies --    383.9693               384.0957               414.6528
 Red. masses --      8.0346                 8.0155                 3.0454
 Frc consts  --      0.6979                 0.6967                 0.3085
 IR Inten    --     20.9662                20.9962                 0.0578

                     22                     23                     24
                      A                      A                      A
 Frequencies --    414.7139               416.7287               426.8682
 Red. masses --      3.0456                 3.2073                 6.6236
 Frc consts  --      0.3086                 0.3282                 0.7111
 IR Inten    --      0.0503                 0.1597                 2.9454

                     25                     26                     27
                      A                      A                      A
 Frequencies --    499.4432               509.3830               509.5528
 Red. masses --      5.5145                 3.6448                 3.6505
 Frc consts  --      0.8105                 0.5572                 0.5585
 IR Inten    --      6.8531                19.9451                19.8344

                     28                     29                     30
                      A                      A                      A
 Frequencies --    531.5990               548.7675               548.8739
 Red. masses --      4.5753                 7.4432                 7.4187
 Frc consts  --      0.7618                 1.3206                 1.3168
 IR Inten    --      9.8399                 5.4383                 5.4769

                     31                     32                     33
                      A                      A                      A
 Frequencies --    644.3640               644.3833               645.3141
 Red. masses --      7.1599                 7.1602                 7.1686
 Frc consts  --      1.7515                 1.7517                 1.7588
 IR Inten    --      0.0370                 0.0364                 0.0957

                     34                     35                     36
                      A                      A                      A
 Frequencies --    718.1966               718.3499               718.6614
 Red. masses --      4.5868                 4.5935                 4.6055
 Frc consts  --      1.3939                 1.3966                 1.4014
 IR Inten    --      1.6700                 1.6780                 0.2834

                     37                     38                     39
                      A                      A                      A
 Frequencies --    746.0979               751.6078               751.6370
 Red. masses --      7.2603                 7.2710                 7.2748
 Frc consts  --      2.3812                 2.4201                 2.4215
 IR Inten    --     14.6239                54.4138                54.3220

                     40                     41                     42
                      A                      A                      A
 Frequencies --    833.7078               834.1508               834.2495
 Red. masses --      1.4166                 1.4323                 1.4317
 Frc consts  --      0.5801                 0.5872                 0.5871
 IR Inten    --     23.2444                32.9618                32.9208

                     43                     44                     45
                      A                      A                      A
 Frequencies --    845.8671               845.9608               848.9441
 Red. masses --      1.2467                 1.2466                 1.2500
 Frc consts  --      0.5255                 0.5256                 0.5308
 IR Inten    --      0.6176                 0.6286                 0.2873

                     46                     47                     48
                      A                      A                      A
 Frequencies --    969.5596               969.6605               970.0286
 Red. masses --      1.2757                 1.2765                 1.2875
 Frc consts  --      0.7065                 0.7071                 0.7138
 IR Inten    --      0.1563                 0.1477                 0.2201

                     49                     50                     51
                      A                      A                      A
 Frequencies --    973.3250               973.4969               976.6069
 Red. masses --      1.3463                 1.3446                 1.3225
 Frc consts  --      0.7515                 0.7508                 0.7432
 IR Inten    --      0.0113                 0.0112                 0.4226

                     52                     53                     54
                      A                      A                      A
 Frequencies --   1027.9534              1028.0042              1029.6188
 Red. masses --      4.7542                 4.7632                 4.6987
 Frc consts  --      2.9599                 2.9658                 2.9348
 IR Inten    --     62.7253                62.6998                 5.1182

                     55                     56                     57
                      A                      A                      A
 Frequencies --   1097.6938              1097.7839              1101.4987
 Red. masses --      7.8811                 7.9210                 8.0740
 Frc consts  --      5.5950                 5.6242                 5.7717
 IR Inten    --     80.6835                81.3318                13.6910

                     58                     59                     60
                      A                      A                      A
 Frequencies --   1118.0886              1118.3073              1121.1648
 Red. masses --      2.1240                 2.1213                 2.1017
 Frc consts  --      1.5645                 1.5630                 1.5566
 IR Inten    --     33.4910                32.7986                 6.4032

                     61                     62                     63
                      A                      A                      A
 Frequencies --   1139.2305              1139.3930              1139.5298
 Red. masses --      1.4009                 1.4014                 1.4019
 Frc consts  --      1.0712                 1.0719                 1.0725
 IR Inten    --      0.2855                 0.8900                 2.9570

                     64                     65                     66
                      A                      A                      A
 Frequencies --   1218.9450              1219.3396              1220.7959
 Red. masses --      1.1568                 1.1572                 1.1517
 Frc consts  --      1.0127                 1.0137                 1.0113
 IR Inten    --      4.8143                 4.8053                 0.9211

                     67                     68                     69
                      A                      A                      A
 Frequencies --   1318.2881              1322.1761              1322.3444
 Red. masses --      6.8728                 7.4605                 7.6933
 Frc consts  --      7.0373                 7.6842                 7.9260
 IR Inten    --      1.3274                 2.6703                 2.6619

                     70                     71                     72
                      A                      A                      A
 Frequencies --   1337.0606              1337.4298              1337.6622
 Red. masses --      1.3405                 1.3336                 1.3494
 Frc consts  --      1.4120                 1.4054                 1.4226
 IR Inten    --      0.4011                 0.4995                 1.3785

                     73                     74                     75
                      A                      A                      A
 Frequencies --   1429.5032              1429.8750              1430.0590
 Red. masses --      2.6372                 2.6448                 2.6416
 Frc consts  --      3.1751                 3.1859                 3.1830
 IR Inten    --     19.0298                 6.7584                 6.1229

                     76                     77                     78
                      A                      A                      A
 Frequencies --   1527.0263              1527.0974              1527.1436
 Red. masses --      2.0803                 2.0917                 2.0782
 Frc consts  --      2.8580                 2.8740                 2.8556
 IR Inten    --     58.9257                24.2623                58.7906

                     79                     80                     81
                      A                      A                      A
 Frequencies --   1611.0146              1611.2334              1611.2846
 Red. masses --      6.6447                 6.6664                 6.6631
 Frc consts  --     10.1608                10.1967                10.1923
 IR Inten    --      3.8718                 3.8102                 3.8117

                     82                     83                     84
                      A                      A                      A
 Frequencies --   1633.4095              1633.4334              1634.4765
 Red. masses --      5.4323                 5.4277                 5.4942
 Frc consts  --      8.5393                 8.5324                 8.6479
 IR Inten    --     29.8136                29.7008                13.1275

                     85                     86                     87
                      A                      A                      A
 Frequencies --   3188.0389              3188.1376              3188.1667
 Red. masses --      1.0892                 1.0892                 1.0892
 Frc consts  --      6.5226                 6.5229                 6.5227
 IR Inten    --      5.6104                 4.9588                 2.1185

                     88                     89                     90
                      A                      A                      A
 Frequencies --   3205.7057              3205.8957              3206.4450
 Red. masses --      1.0878                 1.0878                 1.0879
 Frc consts  --      6.5867                 6.5872                 6.5898
 IR Inten    --      0.8572                 0.8651                 0.6509

                     91                     92                     93
                      A                      A                      A
 Frequencies --   3222.6155              3222.6204              3222.7510
 Red. masses --      1.0937                 1.0937                 1.0937
 Frc consts  --      6.6923                 6.6924                 6.6925
 IR Inten    --      2.3214                 2.2540                10.0732

                     94                     95                     96
                      A                      A                      A
 Frequencies --   3223.6532              3223.6811              3223.9233
 Red. masses --      1.0939                 1.0939                 1.0941
 Frc consts  --      6.6979                 6.6980                 6.7003
 IR Inten    --      5.6509                 5.6551                 0.0410

 - Thermochemistry -
 -------------------
 Temperature   298.150 Kelvin.  Pressure   1.00000 Atm.
 Atom     1 has atomic number  6 and mass  12.00000

 Molecular mass:   363.97422 amu.
 Principal axes and moments of inertia in atomic units:
                           1         2         3
     Eigenvalues --  ******************************
           X            0.99954  -0.03043  -0.00000
           Y            0.03043   0.99954  -0.00001
           Z            0.00000   0.00001   1.00000
 This molecule is an asymmetric top.
 Rotational symmetry number  1.
 Warning -- assumption of classical behavior for rotation
           may cause significant error
 Rotational temperatures (Kelvin)      0.00723     0.00723     0.00405
 Rotational constants (GHZ):           0.15064     0.15059     0.08440
 Zero-point vibrational energy     643734.6 (Joules/Mol)
                                  153.85627 (Kcal/Mol)
 Warning -- explicit consideration of  30 degrees of freedom as
           vibrations may cause significant error
 Vibrational temperatures:     30.77    32.86    42.18    42.72    54.91
          (Kelvin)             57.29   157.23   169.25   169.33   260.47
                              269.60   269.98   379.87   422.51   422.62
                              447.27   472.98   473.08   552.45   552.63
                              596.59   596.68   599.58   614.17   718.59
                              732.89   733.13   764.85   789.55   789.71
                              927.10   927.12   928.46  1033.32  1033.55
                             1033.99  1073.47  1081.40  1081.44  1199.52
                             1200.16  1200.30  1217.01  1217.15  1221.44
                             1394.98  1395.13  1395.65  1400.40  1400.64
                             1405.12  1479.00  1479.07  1481.39  1579.34
                             1579.47  1584.81  1608.68  1608.99  1613.11
                             1639.10  1639.33  1639.53  1753.79  1754.36
                             1756.45  1896.72  1902.32  1902.56  1923.73
                             1924.26  1924.60  2056.74  2057.27  2057.54
                             2197.05  2197.15  2197.22  2317.89  2318.21
                             2318.28  2350.11  2350.15  2351.65  4586.88
                             4587.02  4587.06  4612.30  4612.57  4613.36
                             4636.62  4636.63  4636.82  4638.12  4638.16
                             4638.51

 Zero-point correction=                           0.245186 (Hartree/Particle)
 Thermal correction to Energy=                    0.264839
 Thermal correction to Enthalpy=                  0.265783
 Thermal correction to Gibbs Free Energy=         0.192232
 Sum of electronic and zero-point Energies=          -2414.841058
 Sum of electronic and thermal Energies=             -2414.821405
 Sum of electronic and thermal Enthalpies=           -2414.820460
 Sum of electronic and thermal Free Energies=        -2414.894012

                     E (Thermal)             CV                S
                      KCal/Mol        Cal/Mol-Kelvin    Cal/Mol-Kelvin
 Total                  166.189             74.124            154.802
 Electronic               0.000              0.000              0.000
 Translational            0.889              2.981             43.569
 Rotational               0.889              2.981             36.372
 Vibrational            164.412             68.163             74.861
 Vibration     1          0.593              1.985              6.501
 Vibration     2          0.593              1.985              6.370
 Vibration     3          0.593              1.984              5.875
 Vibration     4          0.593              1.984              5.850
 Vibration     5          0.594              1.982              5.352
 Vibration     6          0.594              1.981              5.268
 Vibration     7          0.606              1.942              3.282
 Vibration     8          0.608              1.935              3.139
 Vibration     9          0.608              1.935              3.138
 Vibration    10          0.630              1.865              2.318
 Vibration    11          0.632              1.857              2.254
 Vibration    12          0.632              1.857              2.251
 Vibration    13          0.671              1.739              1.635
 Vibration    14          0.688              1.686              1.453
 Vibration    15          0.689              1.685              1.452
 Vibration    16          0.700              1.653              1.358
 Vibration    17          0.712              1.618              1.266
 Vibration    18          0.712              1.618              1.266
 Vibration    19          0.753              1.504              1.023
 Vibration    20          0.753              1.504              1.023
 Vibration    21          0.778              1.438              0.910
 Vibration    22          0.778              1.438              0.910
 Vibration    23          0.780              1.434              0.903
 Vibration    24          0.789              1.412              0.869
 Vibration    25          0.855              1.251              0.660
 Vibration    26          0.865              1.229              0.635
 Vibration    27          0.865              1.229              0.635
 Vibration    28          0.887              1.180              0.584
 Vibration    29          0.904              1.142              0.547
 Vibration    30          0.904              1.142              0.547

                           ! Non-Optimized Parameters !
 Normal termination of Gaussian 16 at Sun Aug 23 05:06:31 2020.
 Gaussian 16:  ES64L-G16RevA.03 25-Dec-2016

 ----------------------------------------------------------------------
 # TD(NStates=10, Root=1) B3LYP/6-31G* scf=qc volume pop=NPA density=cu
 rrent Geom=AllCheck Guess=Read
 ----------------------------------------------------------------------

 Structure from the checkpoint file:  "phosphine_11_conf13.chk"
 -------------------
 Title Card Required
 -------------------
 Charge =  0 Multiplicity = 1

                         Standard orientation:
 ---------------------------------------------------------------------
 Center     Atomic      Atomic             Coordinates (Angstroms)
 Number     Number       Type             X           Y           Z
 ---------------------------------------------------------------------
      1          6           0        2.002667    2.697360   -0.944613
      2          6           0        1.015221    1.863322   -0.418095
      3          6           0        1.246332    1.110033    0.742594
      4          6           0        2.497540    1.223624    1.371405
      5          6           0        3.498365    2.042652    0.851954
      6          6           0        3.238940    2.775980   -0.305672
      7         17           0        4.487770    3.822976   -0.963651
      8         15           0       -0.000123    0.000249    1.547623
      9          6           0       -1.584531    0.524522    0.742596
     10          6           0       -2.119320   -0.050089   -0.420117
     11          6           0       -3.335407    0.387636   -0.946767
     12          6           0       -4.023786    1.416332   -0.305856
     13          6           0       -3.520464    2.005451    0.853774
     14          6           0       -2.310576    1.548669    1.373270
     15         17           0       -5.555087    1.973723   -0.963976
     16          6           0        0.338025   -1.634074    0.742660
     17          6           0       -0.186420   -2.774835    1.373048
     18          6           0        0.022731   -4.051015    0.853477
     19          6           0        0.784903   -4.192452   -0.305934
     20          6           0        1.332139   -3.082049   -0.946546
     21          6           0        1.103368   -1.810011   -0.419827
     22         17           0        1.067525   -5.797334   -0.964106
     23          1           0        1.815609    3.279005   -1.841282
     24          1           0        0.054254    1.807315   -0.920164
     25          1           0        2.694230    0.667610    2.284924
     26          1           0        4.462765    2.121233    1.342550
     27          1           0       -1.588616   -0.852251   -0.923673
     28          1           0       -3.744042   -0.063459   -1.845014
     29          1           0       -4.072376    2.799289    1.345856
     30          1           0       -1.928917    1.995199    2.288309
     31          1           0       -0.764215   -2.667522    2.287917
     32          1           0       -0.389210   -4.925844    1.345316
     33          1           0        1.927360   -3.210464   -1.844621
     34          1           0        1.533098   -0.949370   -0.923116
 ---------------------------------------------------------------------

 SCF Done:  E(RB3LYP) =  -2415.08624371     a.u. after    1 cycles

 Excitation energies and oscillator strengths:

 Excited State   1:      Singlet-A      4.4055 eV  281.43 nm  f=0.1831  <S**2>=0.000
      93 -> 94         0.69577
 This state for optimization and/or second-order correction.
 Total Energy, E(TD-HF/TD-DFT) =  -2414.92434293
 Copying the excited state density for this state as the 1-particle RhoCI density.

 Excited State   2:      Singlet-A      4.4069 eV  281.34 nm  f=0.1839  <S**2>=0.000
      93 -> 95         0.69576

 Excited State   3:      Singlet-A      4.6119 eV  268.83 nm  f=0.0036  <S**2>=0.000
      89 -> 94        -0.10978
      90 -> 95        -0.11004
      93 -> 96         0.67971

 Excited State   4:      Singlet-A      4.9175 eV  252.13 nm  f=0.0001  <S**2>=0.000
      88 -> 94        -0.11580
      89 -> 95        -0.11085
      89 -> 97         0.10064
      90 -> 94        -0.11072
      93 -> 98         0.64530

 Excited State   5:      Singlet-A      4.9180 eV  252.10 nm  f=0.0001  <S**2>=0.000
      88 -> 95         0.11566
      89 -> 94         0.11099
      90 -> 95        -0.11127
      90 -> 97        -0.10112
      93 -> 99         0.64502

 Excited State   6:      Singlet-A      5.0222 eV  246.87 nm  f=0.0090  <S**2>=0.000
      91 -> 94         0.11555
      92 -> 95         0.11579
      93 -> 97         0.66878

 Excited State   7:      Singlet-A      5.2596 eV  235.73 nm  f=0.0017  <S**2>=0.000
      89 -> 94        -0.13209
      90 -> 95        -0.13024
      91 -> 94        -0.24895
      91 -> 95        -0.36693
      91 -> 98         0.12549
      92 -> 94         0.36981
      92 -> 95        -0.24838
      92 -> 99        -0.12415
      93 -> 96        -0.10395

 Excited State   8:      Singlet-A      5.3613 eV  231.26 nm  f=0.0051  <S**2>=0.000
      87 -> 94         0.10034
      88 -> 94        -0.19093
      89 -> 94        -0.12101
      89 -> 95        -0.15015
      89 -> 97         0.11207
      90 -> 94        -0.15051
      90 -> 95         0.12051
      91 -> 95        -0.14565
      91 -> 96         0.38348
      91 -> 99        -0.15172
      92 -> 94        -0.14734
      92 -> 96         0.22005
      92 -> 98         0.15320
      93 -> 98        -0.22755

 Excited State   9:      Singlet-A      5.3619 eV  231.23 nm  f=0.0049  <S**2>=0.000
      88 -> 95        -0.18968
      89 -> 94        -0.15043
      89 -> 95         0.12067
      90 -> 94         0.12052
      90 -> 95         0.15012
      90 -> 97         0.11208
      91 -> 94        -0.14554
      91 -> 96        -0.21907
      91 -> 98         0.15215
      92 -> 95         0.14729
      92 -> 96         0.38501
      92 -> 99         0.15211
      93 -> 99         0.22812

 Excited State  10:      Singlet-A      5.4212 eV  228.70 nm  f=0.1613  <S**2>=0.000
      91 -> 94         0.44846
      91 -> 95         0.12170
      92 -> 94         0.12058
      92 -> 95        -0.44750
      92 -> 96         0.13672

 The electronic state is 1-A.
 Alpha  occ. eigenvalues -- -101.55493-101.55492-101.55491 -77.10094 -10.26329
 Alpha  occ. eigenvalues --  -10.26329 -10.26326 -10.21418 -10.21417 -10.21417
 Alpha  occ. eigenvalues --  -10.21368 -10.21367 -10.21366 -10.21346 -10.21346
 Alpha  occ. eigenvalues --  -10.21344 -10.21313 -10.21312 -10.21311 -10.21249
 Alpha  occ. eigenvalues --  -10.21248 -10.21246  -9.47125  -9.47124  -9.47123
 Alpha  occ. eigenvalues --   -7.23520  -7.23519  -7.23518  -7.22555  -7.22554
 Alpha  occ. eigenvalues --   -7.22553  -7.22518  -7.22517  -7.22516  -6.56809
 Alpha  occ. eigenvalues --   -4.73069  -4.73069  -4.72564  -0.89964  -0.89791
 Alpha  occ. eigenvalues --   -0.89790  -0.85153  -0.84237  -0.84236  -0.76898
 Alpha  occ. eigenvalues --   -0.76780  -0.76779  -0.76742  -0.73906  -0.73905
 Alpha  occ. eigenvalues --   -0.65058  -0.63150  -0.62987  -0.62986  -0.60497
 Alpha  occ. eigenvalues --   -0.60496  -0.57615  -0.52431  -0.52430  -0.49747
 Alpha  occ. eigenvalues --   -0.48088  -0.47999  -0.47998  -0.47167  -0.47166
 Alpha  occ. eigenvalues --   -0.46321  -0.44340  -0.44246  -0.44245  -0.42725
 Alpha  occ. eigenvalues --   -0.42724  -0.40319  -0.40238  -0.40237  -0.39580
 Alpha  occ. eigenvalues --   -0.37219  -0.37219  -0.37129  -0.35189  -0.35187
 Alpha  occ. eigenvalues --   -0.34134  -0.33461  -0.33458  -0.31867  -0.31862
 Alpha  occ. eigenvalues --   -0.31861  -0.27683  -0.27414  -0.27143  -0.27141
 Alpha  occ. eigenvalues --   -0.25830  -0.25827  -0.22678
 Alpha virt. eigenvalues --   -0.03958  -0.03955  -0.03033  -0.01964  -0.01787
 Alpha virt. eigenvalues --   -0.01784   0.02242   0.02244   0.02402   0.05590
 Alpha virt. eigenvalues --    0.05595   0.10344   0.12154   0.12345   0.12346

 Mulliken charges:
               1
     1  C   -0.118292
     2  C   -0.147246
     3  C   -0.084274
     4  C   -0.160391
     5  C   -0.114320
     6  C   -0.065134
     7  Cl   0.014065
     8  P    0.446532
     9  C   -0.130834
    10  C   -0.168244
    11  C   -0.120937
    12  C   -0.100326
    13  C   -0.120501
    14  C   -0.173974
    15  Cl  -0.043123
    16  C   -0.100625
    17  C   -0.154862
    18  C   -0.124839
    19  C   -0.085508
    20  C   -0.113080
    21  C   -0.168726
    22  Cl  -0.020185
    23  H    0.173466
    24  H    0.185988
    25  H    0.159345
    26  H    0.169256
    27  H    0.143995
    28  H    0.148082
    29  H    0.144211
    30  H    0.127414
    31  H    0.146026
    32  H    0.155681
    33  H    0.157502
    34  H    0.143854
 Sum of Mulliken charges =  -0.00000

 Dipole moment (field-independent basis, Debye):
    X=              4.0000    Y=              1.2573    Z=              1.9736  Tot=              4.6342
 Quadrupole moment (field-independent basis, Debye-Ang):
   XX=           -169.8674   YY=           -165.2416   ZZ=           -145.0355
   XY=              8.6498   XZ=             -0.4953   YZ=             -0.9108

 Summary of Natural Population Analysis:

                                       Natural Population
                Natural  -----------------------------------------------
    Atom  No    Charge         Core      Valence    Rydberg      Total
 -----------------------------------------------------------------------
      C    1   -0.24385      1.99892     4.22953    0.01539     6.24385
      C    2   -0.19140      1.99900     4.17642    0.01599     6.19140
      C    3   -0.38506      1.99891     4.36088    0.02528     6.38506
      C    4   -0.19790      1.99902     4.18362    0.01526     6.19790
      C    5   -0.24308      1.99893     4.22888    0.01527     6.24308
      C    6   -0.01845      1.99855     3.99762    0.02228     6.01845
     Cl    7    0.02695      9.99967     6.95404    0.01934    16.97305
      P    8    1.21203      9.99758     3.74055    0.04985    13.78797
      C    9   -0.48330      1.99887     4.45855    0.02589     6.48330
      C   10   -0.23663      1.99899     4.22011    0.01753     6.23663
      C   11   -0.24862      1.99893     4.23366    0.01603     6.24862
      C   12   -0.09066      1.99854     4.06989    0.02223     6.09066
      C   13   -0.25474      1.99894     4.23960    0.01619     6.25474
      C   14   -0.22545      1.99901     4.21025    0.01619     6.22545
     Cl   15   -0.01600      9.99967     6.99584    0.02048    17.01600
      C   16   -0.42662      1.99888     4.40370    0.02404     6.42662
      C   17   -0.19326      1.99901     4.17878    0.01547     6.19326
      C   18   -0.26254      1.99893     4.24719    0.01642     6.26254
      C   19   -0.06052      1.99854     4.03975    0.02223     6.06052
      C   20   -0.23462      1.99893     4.22035    0.01534     6.23462
      C   21   -0.24109      1.99899     4.22490    0.01720     6.24109
     Cl   22    0.00096      9.99967     6.97934    0.02003    16.99904
      H   23    0.26330      0.00000     0.73565    0.00105     0.73670
      H   24    0.26764      0.00000     0.73115    0.00121     0.73236
      H   25    0.24867      0.00000     0.75019    0.00114     0.75133
      H   26    0.26061      0.00000     0.73832    0.00107     0.73939
      H   27    0.24388      0.00000     0.75460    0.00152     0.75612
      H   28    0.25145      0.00000     0.74751    0.00105     0.74855
      H   29    0.24894      0.00000     0.74998    0.00107     0.75106
      H   30    0.23179      0.00000     0.76731    0.00091     0.76821
      H   31    0.24277      0.00000     0.75608    0.00115     0.75723
      H   32    0.25494      0.00000     0.74403    0.00103     0.74506
      H   33    0.25561      0.00000     0.74333    0.00106     0.74439
      H   34    0.24425      0.00000     0.75444    0.00131     0.75575
 =======================================================================
   * Total *    0.00000     75.97648   109.56602    0.45750   186.00000

 Normal termination of Gaussian 16 at Sun Aug 23 05:20:14 2020.
