 Gaussian 16, Revision A.03,

 ---------------------------------
 # opt=CalcAll B3LYP/6-31G* scf=qc
 ---------------------------------

 -------------------
 Title Card Required
 -------------------
 Symbolic Z-matrix:
 Charge =  0 Multiplicity = 1

 SCF Done:  E(RB3LYP) =  -1333.98410982     a.u. after    7 cycles
 SCF Done:  E(RB3LYP) =  -1333.99600047     a.u. after   17 cycles
 SCF Done:  E(RB3LYP) =  -1333.99739992     a.u. after   15 cycles
 SCF Done:  E(RB3LYP) =  -1333.99745375     a.u. after   13 cycles
 SCF Done:  E(RB3LYP) =  -1333.99823023     a.u. after   17 cycles
 SCF Done:  E(RB3LYP) =  -1333.99889862     a.u. after   15 cycles
 SCF Done:  E(RB3LYP) =  -1333.99896021     a.u. after   13 cycles
 SCF Done:  E(RB3LYP) =  -1333.99896827     a.u. after    4 cycles
 SCF Done:  E(RB3LYP) =  -1333.99896707     a.u. after    4 cycles
 SCF Done:  E(RB3LYP) =  -1333.99897865     a.u. after    9 cycles
 SCF Done:  E(RB3LYP) =  -1333.99897597     a.u. after    2 cycles
 SCF Done:  E(RB3LYP) =  -1333.99897964     a.u. after    3 cycles
 SCF Done:  E(RB3LYP) =  -1333.99897731     a.u. after    2 cycles
 SCF Done:  E(RB3LYP) =  -1333.99897958     a.u. after    2 cycles
 SCF Done:  E(RB3LYP) =  -1333.99897732     a.u. after    2 cycles
 SCF Done:  E(RB3LYP) =  -1333.99897931     a.u. after    2 cycles
 SCF Done:  E(RB3LYP) =  -1333.99897325     a.u. after    2 cycles
 Optimization completed.
    -- Stationary point found.
 Normal termination of Gaussian 16 at Sun Aug 23 16:33:31 2020.

 ----------------------------------------------------------------------
 # freq B3LYP/6-31G* scf=qc volume NMR pop=NPA density=current Geom=All
 Check Guess=Read
 ----------------------------------------------------------------------

 Structure from the checkpoint file:  "phosphine_5_conf42.chk"
 -------------------
 Title Card Required
 -------------------
 Charge =  0 Multiplicity = 1

 SCF Done:  E(RB3LYP) =  -1333.99897325     a.u. after    1 cycles

      1  C    Isotropic =    79.9511   Anisotropy =   137.4411

      2  C    Isotropic =    59.0392   Anisotropy =   162.7907

      3  C    Isotropic =    61.6293   Anisotropy =   173.5313

      4  C    Isotropic =    60.7191   Anisotropy =   171.9334

      5  C    Isotropic =    80.0733   Anisotropy =   136.7604

      6  C    Isotropic =    32.6706   Anisotropy =    98.8015

      7  F    Isotropic =   295.7783   Anisotropy =   112.9724

      8  P    Isotropic =   366.1568   Anisotropy =    39.7548

      9  C    Isotropic =    61.6084   Anisotropy =   173.5004

     10  C    Isotropic =    59.0440   Anisotropy =   162.8044

     11  C    Isotropic =    79.9249   Anisotropy =   137.4381

     12  C    Isotropic =    32.6617   Anisotropy =    98.8244

     13  C    Isotropic =    80.0715   Anisotropy =   136.7246

     14  C    Isotropic =    60.7259   Anisotropy =   171.8728

     15  F    Isotropic =   295.7991   Anisotropy =   113.0381

     16  C    Isotropic =    61.5967   Anisotropy =   173.5067

     17  C    Isotropic =    59.0313   Anisotropy =   162.7868

     18  C    Isotropic =    79.9256   Anisotropy =   137.4282

     19  C    Isotropic =    32.6670   Anisotropy =    98.8248

     20  C    Isotropic =    80.0646   Anisotropy =   136.7200

     21  C    Isotropic =    60.6987   Anisotropy =   171.8736

     22  F    Isotropic =   295.8053   Anisotropy =   113.0562

     23  H    Isotropic =    25.3618   Anisotropy =     4.2500

     24  H    Isotropic =    24.6187   Anisotropy =     8.9199

     25  H    Isotropic =    25.3608   Anisotropy =    12.0285

     26  H    Isotropic =    25.4644   Anisotropy =     5.7399

     27  H    Isotropic =    24.6194   Anisotropy =     8.9250

     28  H    Isotropic =    25.3572   Anisotropy =     4.2611

     29  H    Isotropic =    25.4680   Anisotropy =     5.7345

     30  H    Isotropic =    25.3658   Anisotropy =    12.0222

     31  H    Isotropic =    24.6190   Anisotropy =     8.9211

     32  H    Isotropic =    25.3584   Anisotropy =     4.2585

     33  H    Isotropic =    25.4653   Anisotropy =     5.7384

     34  H    Isotropic =    25.3643   Anisotropy =    12.0235

  Exact polarizability: 226.183   0.023 226.148   0.009  -0.019 167.726
 Approx polarizability: 337.815   0.050 337.776   0.021  -0.041 314.871

                      1                      2                      3
                      A                      A                      A
 Frequencies --     22.9014                23.1247                37.2554
 Red. masses --      4.0645                 4.0365                 9.2239
 Frc consts  --      0.0013                 0.0013                 0.0075
 IR Inten    --      0.2527                 0.2536                 0.0937

                      4                      5                      6
                      A                      A                      A
 Frequencies --     37.4361                39.8776                50.5944
 Red. masses --      9.0774                 3.7300                 9.9561
 Frc consts  --      0.0075                 0.0035                 0.0150
 IR Inten    --      0.0962                 0.0049                 0.1145

                      7                      8                      9
                      A                      A                      A
 Frequencies --    132.9538               145.4574               145.6948
 Red. masses --      8.0503                 8.3684                 8.3727
 Frc consts  --      0.0838                 0.1043                 0.1047
 IR Inten    --      0.0231                 0.5218                 0.5178

                     10                     11                     12
                      A                      A                      A
 Frequencies --    208.9933               219.0504               219.3238
 Red. masses --      8.0487                 6.9860                 6.9923
 Frc consts  --      0.2071                 0.1975                 0.1982
 IR Inten    --      0.2899                 0.5273                 0.5285

                     13                     14                     15
                      A                      A                      A
 Frequencies --    307.9057               335.9887               336.0471
 Red. masses --      8.4338                 8.3112                 8.3084
 Frc consts  --      0.4711                 0.5528                 0.5528
 IR Inten    --      1.0305                 0.0434                 0.0441

                     16                     17                     18
                      A                      A                      A
 Frequencies --    397.1381               404.0917               404.1733
 Red. masses --      7.7435                 8.0270                 8.0173
 Frc consts  --      0.7196                 0.7723                 0.7716
 IR Inten    --      0.3008                10.0754                10.1190

                     19                     20                     21
                      A                      A                      A
 Frequencies --    420.5997               420.6456               424.6790
 Red. masses --      3.2784                 3.2816                 3.1341
 Frc consts  --      0.3417                 0.3421                 0.3330
 IR Inten    --      1.1346                 1.0924                 0.0225

                     22                     23                     24
                      A                      A                      A
 Frequencies --    435.0765               435.1258               463.5191
 Red. masses --      6.1462                 6.1503                 6.6420
 Frc consts  --      0.6855                 0.6861                 0.8408
 IR Inten    --     18.9861                18.9764                 7.3965

                     25                     26                     27
                      A                      A                      A
 Frequencies --    533.0007               533.0399               535.4700
 Red. masses --      2.8116                 2.8103                 2.9073
 Frc consts  --      0.4706                 0.4705                 0.4911
 IR Inten    --     21.8712                21.8708                13.4825

                     28                     29                     30
                      A                      A                      A
 Frequencies --    608.0518               629.9995               630.0178
 Red. masses --      7.9081                 7.8290                 7.8301
 Frc consts  --      1.7227                 1.8308                 1.8311
 IR Inten    --      0.0092                 0.0381                 0.0382

                     31                     32                     33
                      A                      A                      A
 Frequencies --    648.2340               648.4076               648.4221
 Red. masses --      7.2769                 7.3795                 7.3806
 Frc consts  --      1.8016                 1.8280                 1.8283
 IR Inten    --      0.0050                 0.1282                 0.1288

                     34                     35                     36
                      A                      A                      A
 Frequencies --    715.1078               715.6082               715.6718
 Red. masses --      4.8091                 4.8254                 4.8266
 Frc consts  --      1.4490                 1.4559                 1.4565
 IR Inten    --      1.0092                 3.9675                 3.9580

                     37                     38                     39
                      A                      A                      A
 Frequencies --    835.7155               835.7883               836.8536
 Red. masses --      1.2621                 1.2641                 1.3256
 Frc consts  --      0.5193                 0.5203                 0.5470
 IR Inten    --      0.5204                 0.5851                11.1693

                     40                     41                     42
                      A                      A                      A
 Frequencies --    839.5107               839.5415               839.7799
 Red. masses --      3.2683                 3.2598                 4.0303
 Frc consts  --      1.3571                 1.3537                 1.6746
 IR Inten    --     62.0994                61.8248                18.0405

                     43                     44                     45
                      A                      A                      A
 Frequencies --    843.6360               843.7286               844.0076
 Red. masses --      1.9956                 2.0021                 1.6617
 Frc consts  --      0.8368                 0.8398                 0.6974
 IR Inten    --     10.1489                 9.9920                12.2387

                     46                     47                     48
                      A                      A                      A
 Frequencies --    958.5789               958.6649               959.8229
 Red. masses --      1.2561                 1.2560                 1.2585
 Frc consts  --      0.6800                 0.6801                 0.6831
 IR Inten    --      0.1724                 0.1685                 0.3421

                     49                     50                     51
                      A                      A                      A
 Frequencies --    969.8185               969.9207               973.3223
 Red. masses --      1.3356                 1.3356                 1.3200
 Frc consts  --      0.7402                 0.7403                 0.7368
 IR Inten    --      0.0347                 0.0332                 0.3137

                     52                     53                     54
                      A                      A                      A
 Frequencies --   1034.6931              1034.7664              1035.1626
 Red. masses --      3.0253                 3.0299                 3.0225
 Frc consts  --      1.9083                 1.9114                 1.9082
 IR Inten    --      7.9683                 7.9348                 0.1161

                     55                     56                     57
                      A                      A                      A
 Frequencies --   1102.8594              1102.9905              1108.7416
 Red. masses --      3.6682                 3.6671                 3.5553
 Frc consts  --      2.6287                 2.6286                 2.5751
 IR Inten    --     19.2159                19.2424                 1.8826

                     58                     59                     60
                      A                      A                      A
 Frequencies --   1127.4711              1127.6648              1127.8636
 Red. masses --      1.3301                 1.3304                 1.3289
 Frc consts  --      0.9962                 0.9967                 0.9960
 IR Inten    --      0.9051                 0.8420                 7.2924

                     61                     62                     63
                      A                      A                      A
 Frequencies --   1195.1309              1195.4434              1199.4169
 Red. masses --      1.1834                 1.1847                 1.1801
 Frc consts  --      0.9959                 0.9975                 1.0002
 IR Inten    --     60.5120                60.9898                 2.4936

                     64                     65                     66
                      A                      A                      A
 Frequencies --   1285.2833              1285.4019              1286.1819
 Red. masses --      3.7556                 3.7477                 3.7856
 Frc consts  --      3.6553                 3.6483                 3.6897
 IR Inten    --    167.3583               167.0509                38.2107

                     67                     68                     69
                      A                      A                      A
 Frequencies --   1324.0953              1327.2450              1327.5032
 Red. masses --      2.7304                 2.2014                 2.2673
 Frc consts  --      2.8204                 2.2848                 2.3541
 IR Inten    --      8.8569                 3.9364                 3.8610

                     70                     71                     72
                      A                      A                      A
 Frequencies --   1336.6362              1336.7923              1337.0513
 Red. masses --      2.3545                 2.2780                 1.9449
 Frc consts  --      2.4784                 2.3984                 2.0485
 IR Inten    --      0.3574                 0.3253                 0.9181

                     73                     74                     75
                      A                      A                      A
 Frequencies --   1437.8947              1438.0503              1438.1347
 Red. masses --      2.9861                 2.9942                 2.9918
 Frc consts  --      3.6375                 3.6482                 3.6457
 IR Inten    --      7.1235                 2.7238                 2.2709

                     76                     77                     78
                      A                      A                      A
 Frequencies --   1545.4767              1545.6225              1546.4496
 Red. masses --      2.4092                 2.4064                 2.4453
 Frc consts  --      3.3904                 3.3871                 3.4456
 IR Inten    --    116.5051               116.4902                24.1692

                     79                     80                     81
                      A                      A                      A
 Frequencies --   1633.9099              1633.9430              1633.9682
 Red. masses --      6.9723                 6.9611                 6.9633
 Frc consts  --     10.9669                10.9497                10.9535
 IR Inten    --      9.1838                13.3917                12.1899

                     82                     83                     84
                      A                      A                      A
 Frequencies --   1653.5040              1653.5240              1654.3644
 Red. masses --      5.8105                 5.8075                 5.8801
 Frc consts  --      9.3600                 9.3553                 9.4819
 IR Inten    --     82.8583                82.6944                22.5438

                     85                     86                     87
                      A                      A                      A
 Frequencies --   3188.8185              3188.8450              3188.8711
 Red. masses --      1.0893                 1.0891                 1.0892
 Frc consts  --      6.5260                 6.5253                 6.5255
 IR Inten    --      9.0500                 1.8466                 2.5068

                     88                     89                     90
                      A                      A                      A
 Frequencies --   3205.8376              3205.9850              3206.5547
 Red. masses --      1.0878                 1.0878                 1.0878
 Frc consts  --      6.5868                 6.5873                 6.5902
 IR Inten    --      1.9943                 2.0564                 0.3714

                     91                     92                     93
                      A                      A                      A
 Frequencies --   3221.9029              3221.9497              3222.1569
 Red. masses --      1.0942                 1.0942                 1.0940
 Frc consts  --      6.6923                 6.6923                 6.6923
 IR Inten    --      3.1565                 3.2091                11.6725

                     94                     95                     96
                      A                      A                      A
 Frequencies --   3222.5890              3222.6758              3222.8815
 Red. masses --      1.0937                 1.0936                 1.0939
 Frc consts  --      6.6921                 6.6919                 6.6946
 IR Inten    --     12.1761                12.1407                 0.4236

 - Thermochemistry -
 -------------------
 Temperature   298.150 Kelvin.  Pressure   1.00000 Atm.
 Atom     1 has atomic number  6 and mass  12.00000

 Molecular mass:   316.06287 amu.
 Principal axes and moments of inertia in atomic units:
                           1         2         3
     Eigenvalues --  8316.593258319.53255**********
           X            0.99987   0.01618   0.00000
           Y           -0.01618   0.99987  -0.00001
           Z           -0.00000   0.00001   1.00000
 This molecule is an asymmetric top.
 Rotational symmetry number  1.
 Warning -- assumption of classical behavior for rotation
           may cause significant error
 Rotational temperatures (Kelvin)      0.01041     0.01041     0.00597
 Rotational constants (GHZ):           0.21700     0.21693     0.12431
 Zero-point vibrational energy     655252.6 (Joules/Mol)
                                  156.60913 (Kcal/Mol)
 Warning -- explicit consideration of  28 degrees of freedom as
           vibrations may cause significant error
 Vibrational temperatures:     32.95    33.27    53.60    53.86    57.37
          (Kelvin)             72.79   191.29   209.28   209.62   300.69
                              315.16   315.56   443.01   483.41   483.50
                              571.39   581.40   581.52   605.15   605.22
                              611.02   625.98   626.05   666.90   766.87
                              766.93   770.42   874.85   906.43   906.46
                              932.66   932.91   932.93  1028.88  1029.60
                             1029.69  1202.41  1202.51  1204.05  1207.87
                             1207.91  1208.26  1213.80  1213.94  1214.34
                             1379.18  1379.30  1380.97  1395.35  1395.50
                             1400.39  1488.69  1488.80  1489.37  1586.77
                             1586.96  1595.23  1622.18  1622.46  1622.74
                             1719.53  1719.98  1725.69  1849.24  1849.41
                             1850.53  1905.08  1909.61  1909.98  1923.12
                             1923.35  1923.72  2068.81  2069.03  2069.16
                             2223.60  2223.81  2225.00  2350.83  2350.88
                             2350.92  2379.02  2379.05  2380.26  4588.00
                             4588.04  4588.07  4612.49  4612.70  4613.52
                             4635.60  4635.67  4635.97  4636.59  4636.71
                             4637.01

 Zero-point correction=                           0.249573 (Hartree/Particle)
 Thermal correction to Energy=                    0.268010
 Thermal correction to Enthalpy=                  0.268954
 Thermal correction to Gibbs Free Energy=         0.199404
 Sum of electronic and zero-point Energies=          -1333.749401
 Sum of electronic and thermal Energies=             -1333.730963
 Sum of electronic and thermal Enthalpies=           -1333.730019
 Sum of electronic and thermal Free Energies=        -1333.799569

                     E (Thermal)             CV                S
                      KCal/Mol        Cal/Mol-Kelvin    Cal/Mol-Kelvin
 Total                  168.179             71.399            146.381
 Electronic               0.000              0.000              0.000
 Translational            0.889              2.981             43.148
 Rotational               0.889              2.981             35.262
 Vibrational            166.401             65.437             67.971
 Vibration     1          0.593              1.985              6.365
 Vibration     2          0.593              1.985              6.346
 Vibration     3          0.594              1.982              5.400
 Vibration     4          0.594              1.982              5.390
 Vibration     5          0.594              1.981              5.265
 Vibration     6          0.595              1.977              4.794
 Vibration     7          0.613              1.920              2.903
 Vibration     8          0.617              1.908              2.731
 Vibration     9          0.617              1.907              2.728
 Vibration    10          0.642              1.827              2.052
 Vibration    11          0.647              1.812              1.967
 Vibration    12          0.647              1.812              1.965
 Vibration    13          0.698              1.659              1.374
 Vibration    14          0.717              1.604              1.231
 Vibration    15          0.717              1.604              1.231
 Vibration    16          0.764              1.476              0.973
 Vibration    17          0.769              1.461              0.948
 Vibration    18          0.769              1.461              0.947
 Vibration    19          0.783              1.425              0.890
 Vibration    20          0.783              1.425              0.890
 Vibration    21          0.787              1.417              0.876
 Vibration    22          0.796              1.394              0.842
 Vibration    23          0.796              1.394              0.842
 Vibration    24          0.821              1.331              0.756
 Vibration    25          0.888              1.177              0.581
 Vibration    26          0.888              1.177              0.580
 Vibration    27          0.890              1.172              0.575
 Vibration    28          0.967              1.015              0.436

                           ! Non-Optimized Parameters !
 Normal termination of Gaussian 16 at Sun Aug 23 16:47:15 2020.
 Gaussian 16:  ES64L-G16RevA.03 25-Dec-2016

 ----------------------------------------------------------------------
 # TD(NStates=10, Root=1) B3LYP/6-31G* scf=qc volume pop=NPA density=cu
 rrent Geom=AllCheck Guess=Read
 ----------------------------------------------------------------------

 Structure from the checkpoint file:  "phosphine_5_conf43.chk"
 -------------------
 Title Card Required
 -------------------
 Charge =  0 Multiplicity = 1

                         Standard orientation:
 ---------------------------------------------------------------------
 Center     Atomic      Atomic             Coordinates (Angstroms)
 Number     Number       Type             X           Y           Z
 ---------------------------------------------------------------------
      1          6           0        3.403985    2.203363    0.698735
      2          6           0        2.223643    1.673095    1.216397
      3          6           0        1.550159    0.620688    0.571885
      4          6           0        2.108374    0.093506   -0.603515
      5          6           0        3.295626    0.604490   -1.129782
      6          6           0        3.921438    1.655335   -0.469771
      7          9           0        5.069047    2.153687   -0.973384
      8         15           0        0.000103    0.000307    1.375053
      9          6           0       -1.312473    1.032203    0.571951
     10          6           0       -2.561045    1.087701    1.215802
     11          6           0       -3.610799    1.844258    0.698144
     12          6           0       -3.394887    2.567546   -0.469652
     13          6           0       -2.171527    2.552600   -1.128953
     14          6           0       -1.135005    1.780340   -0.602735
     15          9           0       -4.400657    3.311739   -0.973238
     16          6           0       -0.237585   -1.652376    0.572080
     17          6           0        0.337197   -2.761780    1.216567
     18          6           0        0.206529   -4.049093    0.698771
     19          6           0       -0.526644   -4.223252   -0.469830
     20          6           0       -1.123937   -3.155913   -1.129805
     21          6           0       -0.973084   -1.872249   -0.603414
     22          9           0       -0.668536   -5.466275   -0.973570
     23          1           0        3.928324    3.017170    1.188979
     24          1           0        1.821671    2.081841    2.140247
     25          1           0        1.617661   -0.729274   -1.114222
     26          1           0        3.737031    0.201329   -2.035639
     27          1           0       -2.714137    0.534338    2.139116
     28          1           0       -4.578070    1.890200    1.187862
     29          1           0       -2.043060    3.137276   -2.034275
     30          1           0       -0.176844    1.767977   -1.112987
     31          1           0        0.892074   -2.618037    2.140474
     32          1           0        0.649251   -4.910052    1.188966
     33          1           0       -1.693647   -3.336617   -2.035747
     34          1           0       -1.440273   -1.035874   -1.114095
 ---------------------------------------------------------------------

 SCF Done:  E(RB3LYP) =  -1333.99897325     a.u. after    1 cycles

 Excitation energies and oscillator strengths:

 Excited State   1:      Singlet-A      4.5741 eV  271.05 nm  f=0.1357  <S**2>=0.000
      81 -> 82         0.69315
 This state for optimization and/or second-order correction.
 Total Energy, E(TD-HF/TD-DFT) =  -1333.83087672
 Copying the excited state density for this state as the 1-particle RhoCI density.

 Excited State   2:      Singlet-A      4.5748 eV  271.02 nm  f=0.1359  <S**2>=0.000
      81 -> 83         0.69312

 Excited State   3:      Singlet-A      4.5859 eV  270.36 nm  f=0.0088  <S**2>=0.000
      81 -> 84         0.68932

 Excited State   4:      Singlet-A      4.9056 eV  252.74 nm  f=0.0017  <S**2>=0.000
      81 -> 85         0.67558

 Excited State   5:      Singlet-A      4.9059 eV  252.73 nm  f=0.0017  <S**2>=0.000
      81 -> 86         0.67551

 Excited State   6:      Singlet-A      5.2392 eV  236.65 nm  f=0.0075  <S**2>=0.000
      81 -> 87         0.67232

 Excited State   7:      Singlet-A      5.4171 eV  228.88 nm  f=0.0000  <S**2>=0.000
      75 -> 84        -0.14237
      77 -> 82         0.17470
      78 -> 83         0.17132
      79 -> 82         0.29902
      79 -> 83        -0.27645
      79 -> 85        -0.14082
      80 -> 82         0.27630
      80 -> 83         0.29815
      80 -> 86         0.13834

 Excited State   8:      Singlet-A      5.4453 eV  227.69 nm  f=0.0020  <S**2>=0.000
      76 -> 82        -0.21079
      77 -> 82         0.17377
      77 -> 87         0.12611
      78 -> 83        -0.17643
      79 -> 84        -0.28694
      79 -> 86        -0.15288
      80 -> 84         0.41159
      80 -> 85         0.15232
      81 -> 85        -0.12783

 Excited State   9:      Singlet-A      5.4455 eV  227.68 nm  f=0.0021  <S**2>=0.000
      76 -> 83         0.21027
      77 -> 83         0.17461
      78 -> 82         0.17496
      78 -> 87        -0.12610
      79 -> 84         0.41074
      79 -> 85        -0.15149
      80 -> 84         0.28818
      80 -> 86        -0.15350
      81 -> 86        -0.12799

 Excited State  10:      Singlet-A      5.6625 eV  218.96 nm  f=0.0006  <S**2>=0.000
      75 -> 84         0.16572
      76 -> 84         0.10273
      77 -> 82        -0.24634
      78 -> 83        -0.24383
      79 -> 82         0.11399
      79 -> 83        -0.26794
      79 -> 85         0.21676
      79 -> 86        -0.13437
      80 -> 82         0.29347
      80 -> 83         0.10756
      80 -> 85        -0.13454
      80 -> 86        -0.21988

 The electronic state is 1-A.
 Alpha  occ. eigenvalues --  -77.09285 -24.70933 -24.70933 -24.70932 -10.27929
 Alpha  occ. eigenvalues --  -10.27929 -10.27928 -10.20802 -10.20801 -10.20801
 Alpha  occ. eigenvalues --  -10.20701 -10.20700 -10.20700 -10.20478 -10.20478
 Alpha  occ. eigenvalues --  -10.20478 -10.20317 -10.20316 -10.20316 -10.20309
 Alpha  occ. eigenvalues --  -10.20309 -10.20308  -6.55987  -4.72248  -4.72248
 Alpha  occ. eigenvalues --   -4.71744  -1.22111  -1.22111  -1.22110  -0.87208
 Alpha  occ. eigenvalues --   -0.86555  -0.86555  -0.77803  -0.76322  -0.76285
 Alpha  occ. eigenvalues --   -0.76285  -0.74867  -0.74867  -0.65458  -0.63138
 Alpha  occ. eigenvalues --   -0.62959  -0.62958  -0.60998  -0.60997  -0.57074
 Alpha  occ. eigenvalues --   -0.54665  -0.54665  -0.54254  -0.49446  -0.49445
 Alpha  occ. eigenvalues --   -0.49381  -0.48018  -0.48018  -0.46310  -0.46309
 Alpha  occ. eigenvalues --   -0.46296  -0.45864  -0.44921  -0.44921  -0.43857
 Alpha  occ. eigenvalues --   -0.43706  -0.43705  -0.42082  -0.40157  -0.40108
 Alpha  occ. eigenvalues --   -0.40108  -0.37160  -0.37159  -0.36439  -0.34997
 Alpha  occ. eigenvalues --   -0.34997  -0.34951  -0.33923  -0.33923  -0.27232
 Alpha  occ. eigenvalues --   -0.26849  -0.26599  -0.26598  -0.25424  -0.25422
 Alpha  occ. eigenvalues --   -0.21918
 Alpha virt. eigenvalues --   -0.02511  -0.02509  -0.02415  -0.01172  -0.01171
 Alpha virt. eigenvalues --   -0.00311   0.05882   0.05886   0.08467   0.10088
 Alpha virt. eigenvalues --    0.10088   0.12848   0.13530   0.13530   0.14052

 Mulliken charges:
               1
     1  C   -0.186506
     2  C   -0.176658
     3  C   -0.127718
     4  C   -0.173356
     5  C   -0.185639
     6  C    0.342352
     7  F   -0.303439
     8  P    0.435486
     9  C   -0.083949
    10  C   -0.167000
    11  C   -0.182315
    12  C    0.388414
    13  C   -0.187764
    14  C   -0.150268
    15  F   -0.283243
    16  C   -0.097882
    17  C   -0.154452
    18  C   -0.196853
    19  C    0.362846
    20  C   -0.178899
    21  C   -0.180464
    22  F   -0.295254
    23  H    0.136330
    24  H    0.126861
    25  H    0.143146
    26  H    0.140050
    27  H    0.154845
    28  H    0.159701
    29  H    0.163263
    30  H    0.181040
    31  H    0.143894
    32  H    0.145645
    33  H    0.147820
    34  H    0.139968
 Sum of Mulliken charges =  -0.00000

 Dipole moment (field-independent basis, Debye):
    X=             -3.0639    Y=              0.9088    Z=              1.4562  Tot=              3.5120
 Quadrupole moment (field-independent basis, Debye-Ang):
   XX=           -140.3022   YY=           -138.7256   ZZ=           -121.8304
   XY=             -6.1703   XZ=              0.2735   YZ=             -0.7945

 Summary of Natural Population Analysis:

                                       Natural Population
                Natural  -----------------------------------------------
    Atom  No    Charge         Core      Valence    Rydberg      Total
 -----------------------------------------------------------------------
      C    1   -0.30550      1.99900     4.29115    0.01536     6.30550
      C    2   -0.22375      1.99903     4.20848    0.01624     6.22375
      C    3   -0.48812      1.99887     4.46274    0.02651     6.48812
      C    4   -0.24014      1.99900     4.22336    0.01778     6.24014
      C    5   -0.29691      1.99899     4.28279    0.01512     6.29691
      C    6    0.37513      1.99844     3.59840    0.02803     5.62487
      F    7   -0.33832      1.99994     7.33287    0.00550     9.33832
      P    8    1.21001      9.99756     3.74086    0.05156    13.78999
      C    9   -0.39793      1.99891     4.37342    0.02560     6.39793
      C   10   -0.20421      1.99903     4.18956    0.01562     6.20421
      C   11   -0.29946      1.99899     4.28559    0.01488     6.29946
      C   12    0.45108      1.99844     3.52332    0.02717     5.54892
      C   13   -0.30357      1.99898     4.28965    0.01494     6.30357
      C   14   -0.19078      1.99901     4.17572    0.01605     6.19078
      F   15   -0.32041      1.99994     7.31488    0.00559     9.32041
      C   16   -0.43203      1.99888     4.40883    0.02432     6.43203
      C   17   -0.18487      1.99903     4.17055    0.01530     6.18487
      C   18   -0.32592      1.99899     4.31090    0.01603     6.32592
      C   19    0.41012      1.99844     3.56380    0.02764     5.58988
      C   20   -0.28595      1.99899     4.27222    0.01474     6.28595
      C   21   -0.25902      1.99900     4.24191    0.01811     6.25902
      F   22   -0.33094      1.99994     7.32548    0.00553     9.33094
      H   23    0.24622      0.00000     0.75255    0.00123     0.75378
      H   24    0.23074      0.00000     0.76837    0.00089     0.76926
      H   25    0.24295      0.00000     0.75539    0.00166     0.75705
      H   26    0.24854      0.00000     0.75026    0.00120     0.75146
      H   27    0.24569      0.00000     0.75317    0.00114     0.75431
      H   28    0.25733      0.00000     0.74147    0.00120     0.74267
      H   29    0.25969      0.00000     0.73913    0.00117     0.74031
      H   30    0.26435      0.00000     0.73440    0.00125     0.73565
      H   31    0.24084      0.00000     0.75798    0.00118     0.75916
      H   32    0.25136      0.00000     0.74747    0.00117     0.74864
      H   33    0.25199      0.00000     0.74680    0.00121     0.74801
      H   34    0.24181      0.00000     0.75686    0.00133     0.75819
 =======================================================================
   * Total *   -0.00000     51.97740   109.59033    0.43228   162.00000

 Normal termination of Gaussian 16 at Sun Aug 23 17:01:28 2020.
