 Gaussian 16, Revision A.03,

 ---------------------------------
 # opt=CalcAll B3LYP/6-31G* scf=qc
 ---------------------------------

 -------------------
 Title Card Required
 -------------------
 Symbolic Z-matrix:
 Charge =  0 Multiplicity = 1

 SCF Done:  E(RB3LYP) =  -1036.27045669     a.u. after    8 cycles
 SCF Done:  E(RB3LYP) =  -1036.27747144     a.u. after   17 cycles
 SCF Done:  E(RB3LYP) =  -1036.28421603     a.u. after   13 cycles
 SCF Done:  E(RB3LYP) =  -1036.29317381     a.u. after   17 cycles
 SCF Done:  E(RB3LYP) =  -1036.29639171     a.u. after   17 cycles
 SCF Done:  E(RB3LYP) =  -1036.29754379     a.u. after   17 cycles
 SCF Done:  E(RB3LYP) =  -1036.29790880     a.u. after   13 cycles
 SCF Done:  E(RB3LYP) =  -1036.29748743     a.u. after   17 cycles
 SCF Done:  E(RB3LYP) =  -1036.29815721     a.u. after   10 cycles
 SCF Done:  E(RB3LYP) =  -1036.29823715     a.u. after   11 cycles
 SCF Done:  E(RB3LYP) =  -1036.29823866     a.u. after    5 cycles
 SCF Done:  E(RB3LYP) =  -1036.29823917     a.u. after    4 cycles
 SCF Done:  E(RB3LYP) =  -1036.29823898     a.u. after    2 cycles
 SCF Done:  E(RB3LYP) =  -1036.29823925     a.u. after    2 cycles
 SCF Done:  E(RB3LYP) =  -1036.29823968     a.u. after    3 cycles
 SCF Done:  E(RB3LYP) =  -1036.29823360     a.u. after    2 cycles
 SCF Done:  E(RB3LYP) =  -1036.29823908     a.u. after    2 cycles
 SCF Done:  E(RB3LYP) =  -1036.29822949     a.u. after    2 cycles
 Optimization completed.
    -- Stationary point found.
 Normal termination of Gaussian 16 at Sun Aug 23 07:19:20 2020.

 ----------------------------------------------------------------------
 # freq B3LYP/6-31G* scf=qc volume NMR pop=NPA density=current Geom=All
 Check Guess=Read
 ----------------------------------------------------------------------

 Structure from the checkpoint file:  "phosphine_1_conf242.chk"
 -------------------
 Title Card Required
 -------------------
 Charge =  0 Multiplicity = 1

 SCF Done:  E(RB3LYP) =  -1036.29822949     a.u. after    1 cycles

      1  C    Isotropic =    68.1726   Anisotropy =   167.3299

      2  C    Isotropic =    68.7245   Anisotropy =   164.1308

      3  C    Isotropic =    61.0170   Anisotropy =   164.1254

      4  C    Isotropic =    56.0748   Anisotropy =   179.4504

      5  C    Isotropic =    62.5877   Anisotropy =   174.0082

      6  C    Isotropic =    68.6774   Anisotropy =   163.8853

      7  P    Isotropic =   361.4693   Anisotropy =    39.6444

      8  C    Isotropic =    56.1314   Anisotropy =   179.4133

      9  C    Isotropic =    62.6087   Anisotropy =   174.0606

     10  C    Isotropic =    68.6807   Anisotropy =   163.8889

     11  C    Isotropic =    68.1674   Anisotropy =   167.3179

     12  C    Isotropic =    68.7270   Anisotropy =   164.1252

     13  C    Isotropic =    61.0239   Anisotropy =   164.1566

     14  C    Isotropic =    56.1593   Anisotropy =   179.4701

     15  C    Isotropic =    62.5672   Anisotropy =   174.1419

     16  C    Isotropic =    68.6810   Anisotropy =   163.9033

     17  C    Isotropic =    68.1499   Anisotropy =   167.3185

     18  C    Isotropic =    68.7287   Anisotropy =   164.0917

     19  C    Isotropic =    60.9943   Anisotropy =   164.1201

     20  H    Isotropic =    25.0206   Anisotropy =     3.6397

     21  H    Isotropic =    24.9275   Anisotropy =     4.5901

     22  H    Isotropic =    24.6140   Anisotropy =     9.2582

     23  H    Isotropic =    25.4013   Anisotropy =    12.2313

     24  H    Isotropic =    25.0478   Anisotropy =     6.0873

     25  H    Isotropic =    25.4007   Anisotropy =    12.2368

     26  H    Isotropic =    25.0486   Anisotropy =     6.0866

     27  H    Isotropic =    25.0212   Anisotropy =     3.6401

     28  H    Isotropic =    24.9259   Anisotropy =     4.5896

     29  H    Isotropic =    24.6135   Anisotropy =     9.2598

     30  H    Isotropic =    25.3918   Anisotropy =    12.2243

     31  H    Isotropic =    25.0469   Anisotropy =     6.0854

     32  H    Isotropic =    25.0227   Anisotropy =     3.6353

     33  H    Isotropic =    24.9304   Anisotropy =     4.5793

     34  H    Isotropic =    24.6096   Anisotropy =     9.2444

  Exact polarizability: 224.240   0.080 224.029   0.101  -0.032 165.055
 Approx polarizability: 331.092   0.185 330.685   0.238  -0.071 308.056

                      1                      2                      3
                      A                      A                      A
 Frequencies --     21.2851                21.8623                37.4704
 Red. masses --      3.7919                 3.7981                 3.6888
 Frc consts  --      0.0010                 0.0011                 0.0031
 IR Inten    --      0.2811                 0.2817                 0.0017

                      4                      5                      6
                      A                      A                      A
 Frequencies --     53.1411                53.2809                70.5756
 Red. masses --      5.2563                 5.2521                 5.1672
 Frc consts  --      0.0087                 0.0088                 0.0152
 IR Inten    --      0.0821                 0.0867                 0.3103

                      7                      8                      9
                      A                      A                      A
 Frequencies --    181.4705               202.3187               202.5858
 Red. masses --      4.5602                 4.6431                 4.6408
 Frc consts  --      0.0885                 0.1120                 0.1122
 IR Inten    --      0.3525                 1.1370                 1.1391

                     10                     11                     12
                      A                      A                      A
 Frequencies --    245.5647               259.7754               259.9980
 Red. masses --      5.7405                 4.7210                 4.7213
 Frc consts  --      0.2040                 0.1877                 0.1880
 IR Inten    --      0.4828                 0.2233                 0.2233

                     13                     14                     15
                      A                      A                      A
 Frequencies --    408.6866               408.7902               412.3304
 Red. masses --      3.0782                 3.0779                 3.5867
 Frc consts  --      0.3029                 0.3030                 0.3593
 IR Inten    --      1.9606                 1.9567                 0.1582

                     16                     17                     18
                      A                      A                      A
 Frequencies --    417.0275               429.3912               429.5349
 Red. masses --      4.6253                 7.3030                 7.3102
 Frc consts  --      0.4739                 0.7933                 0.7946
 IR Inten    --      0.5636                 7.6515                 7.7135

                     19                     20                     21
                      A                      A                      A
 Frequencies --    509.3683               509.5690               516.2904
 Red. masses --      4.2495                 4.2461                 4.5898
 Frc consts  --      0.6496                 0.6496                 0.7208
 IR Inten    --     26.1298                26.1557                11.9732

                     22                     23                     24
                      A                      A                      A
 Frequencies --    632.7221               632.7326               633.3586
 Red. masses --      6.4270                 6.4272                 6.4367
 Frc consts  --      1.5159                 1.5160                 1.5213
 IR Inten    --      0.1806                 0.1816                 0.0161

                     25                     26                     27
                      A                      A                      A
 Frequencies --    691.8743               705.1420               705.1762
 Red. masses --      6.5806                 5.7017                 5.6898
 Frc consts  --      1.8560                 1.6703                 1.6670
 IR Inten    --      0.7705                 1.2051                 1.2210

                     28                     29                     30
                      A                      A                      A
 Frequencies --    712.1887               712.2574               713.2209
 Red. masses --      2.2039                 2.2033                 2.1336
 Frc consts  --      0.6586                 0.6586                 0.6395
 IR Inten    --     26.2824                26.4044                16.5730

                     31                     32                     33
                      A                      A                      A
 Frequencies --    761.3740               762.8461               762.9173
 Red. masses --      1.6152                 1.6484                 1.6492
 Frc consts  --      0.5517                 0.5652                 0.5656
 IR Inten    --     19.2101                24.9582                24.8209

                     34                     35                     36
                      A                      A                      A
 Frequencies --    866.0551               866.2187               868.7029
 Red. masses --      1.2478                 1.2477                 1.2463
 Frc consts  --      0.5514                 0.5516                 0.5541
 IR Inten    --      0.2276                 0.2271                 0.1340

                     37                     38                     39
                      A                      A                      A
 Frequencies --    932.7652               932.9447               934.1832
 Red. masses --      1.3445                 1.3443                 1.3387
 Frc consts  --      0.6892                 0.6894                 0.6883
 IR Inten    --      1.2632                 1.2544                 0.0337

                     40                     41                     42
                      A                      A                      A
 Frequencies --    975.6742               975.8535               977.5816
 Red. masses --      1.3615                 1.3613                 1.3557
 Frc consts  --      0.7636                 0.7638                 0.7634
 IR Inten    --      0.0166                 0.0170                 0.1415

                     43                     44                     45
                      A                      A                      A
 Frequencies --   1000.3140              1000.3872              1001.0888
 Red. masses --      1.2544                 1.2543                 1.2527
 Frc consts  --      0.7396                 0.7396                 0.7397
 IR Inten    --      0.0757                 0.0798                 0.0002

                     46                     47                     48
                      A                      A                      A
 Frequencies --   1015.3685              1015.3777              1015.7530
 Red. masses --      6.3118                 6.3124                 6.3088
 Frc consts  --      3.8340                 3.8344                 3.8351
 IR Inten    --      4.3581                 4.3639                 0.0452

                     49                     50                     51
                      A                      A                      A
 Frequencies --   1052.6817              1052.7246              1052.9092
 Red. masses --      3.3075                 3.3136                 3.2522
 Frc consts  --      2.1595                 2.1636                 2.1243
 IR Inten    --      2.1182                 2.0937                 0.0376

                     52                     53                     54
                      A                      A                      A
 Frequencies --   1107.7855              1108.0207              1109.5066
 Red. masses --      1.8846                 1.8705                 1.6547
 Frc consts  --      1.3627                 1.3530                 1.2001
 IR Inten    --      4.2667                 3.9967                 2.8698

                     55                     56                     57
                      A                      A                      A
 Frequencies --   1110.7374              1110.7900              1116.1957
 Red. masses --      2.1948                 2.2022                 2.6141
 Frc consts  --      1.5954                 1.6009                 1.9189
 IR Inten    --      9.4949                 9.5232                 1.2597

                     58                     59                     60
                      A                      A                      A
 Frequencies --   1193.4690              1193.8556              1193.9233
 Red. masses --      1.1033                 1.1000                 1.1001
 Frc consts  --      0.9259                 0.9237                 0.9239
 IR Inten    --      0.0018                 0.1325                 0.1305

                     61                     62                     63
                      A                      A                      A
 Frequencies --   1219.0970              1219.3542              1220.8658
 Red. masses --      1.1475                 1.1477                 1.1473
 Frc consts  --      1.0048                 1.0054                 1.0075
 IR Inten    --      6.0492                 6.0790                 0.3300

                     64                     65                     66
                      A                      A                      A
 Frequencies --   1324.9877              1328.5854              1328.7744
 Red. masses --      3.4938                 3.4671                 3.4968
 Frc consts  --      3.6139                 3.6058                 3.6376
 IR Inten    --      2.6344                 2.4295                 2.4469

                     67                     68                     69
                      A                      A                      A
 Frequencies --   1364.9823              1365.2187              1365.5721
 Red. masses --      1.6624                 1.6535                 1.6436
 Frc consts  --      1.8249                 1.8158                 1.8058
 IR Inten    --      0.1908                 0.1485                 3.0488

                     70                     71                     72
                      A                      A                      A
 Frequencies --   1480.4841              1480.9249              1480.9868
 Red. masses --      2.1108                 2.1156                 2.1157
 Frc consts  --      2.7259                 2.7337                 2.7340
 IR Inten    --     16.6663                 6.6043                 6.5758

                     73                     74                     75
                      A                      A                      A
 Frequencies --   1531.0324              1531.4650              1531.5705
 Red. masses --      2.0152                 1.9993                 1.9983
 Frc consts  --      2.7831                 2.7627                 2.7617
 IR Inten    --      2.0022                10.1623                10.1312

                     76                     77                     78
                      A                      A                      A
 Frequencies --   1630.1465              1630.4032              1630.4463
 Red. masses --      5.1004                 5.1146                 5.1129
 Frc consts  --      7.9857                 8.0103                 8.0081
 IR Inten    --      0.3996                 0.0428                 0.0463

                     79                     80                     81
                      A                      A                      A
 Frequencies --   1646.1198              1646.1531              1647.9314
 Red. masses --      5.2727                 5.2713                 5.2833
 Frc consts  --      8.4179                 8.4160                 8.4534
 IR Inten    --      3.4856                 3.5324                 0.3207

                     82                     83                     84
                      A                      A                      A
 Frequencies --   3176.0961              3176.1140              3176.1453
 Red. masses --      1.0854                 1.0853                 1.0853
 Frc consts  --      6.4508                 6.4508                 6.4508
 IR Inten    --      2.2852                 1.8620                 1.8596

                     85                     86                     87
                      A                      A                      A
 Frequencies --   3182.6583              3182.6708              3182.7383
 Red. masses --      1.0875                 1.0875                 1.0876
 Frc consts  --      6.4902                 6.4902                 6.4911
 IR Inten    --      0.7928                 0.7855                 0.1216

                     88                     89                     90
                      A                      A                      A
 Frequencies --   3192.8583              3192.8601              3192.9861
 Red. masses --      1.0916                 1.0916                 1.0917
 Frc consts  --      6.5568                 6.5568                 6.5579
 IR Inten    --     10.1637                10.1665                47.9640

                     91                     92                     93
                      A                      A                      A
 Frequencies --   3203.9465              3203.9666              3204.3423
 Red. masses --      1.0941                 1.0942                 1.0943
 Frc consts  --      6.6175                 6.6178                 6.6199
 IR Inten    --     41.6345                42.2079                 4.2563

                     94                     95                     96
                      A                      A                      A
 Frequencies --   3210.1342              3210.1930              3211.0530
 Red. masses --      1.0956                 1.0956                 1.0956
 Frc consts  --      6.6521                 6.6520                 6.6555
 IR Inten    --     19.7255                19.3990                16.3138

 - Thermochemistry -
 -------------------
 Temperature   298.150 Kelvin.  Pressure   1.00000 Atm.
 Atom     1 has atomic number  6 and mass  12.00000

 Molecular mass:   262.09114 amu.
 Principal axes and moments of inertia in atomic units:
                           1         2         3
     Eigenvalues --  5161.401235164.842178680.95067
           X            0.99969   0.02475   0.00003
           Y           -0.02475   0.99969  -0.00001
           Z           -0.00003   0.00001   1.00000
 This molecule is an asymmetric top.
 Rotational symmetry number  1.
 Warning -- assumption of classical behavior for rotation
           may cause significant error
 Rotational temperatures (Kelvin)      0.01678     0.01677     0.00998
 Rotational constants (GHZ):           0.34966     0.34943     0.20790
 Zero-point vibrational energy     719917.8 (Joules/Mol)
                                  172.06449 (Kcal/Mol)
 Warning -- explicit consideration of  21 degrees of freedom as
           vibrations may cause significant error
 Vibrational temperatures:     30.62    31.46    53.91    76.46    76.66
          (Kelvin)            101.54   261.10   291.09   291.48   353.31
                              373.76   374.08   588.01   588.16   593.25
                              600.01   617.80   618.00   732.87   733.16
                              742.83   910.35   910.36   911.26   995.45
                             1014.54  1014.59  1024.68  1024.78  1026.17
                             1095.45  1097.57  1097.67  1246.06  1246.30
                             1249.87  1342.04  1342.30  1344.08  1403.78
                             1404.04  1406.52  1439.23  1439.33  1440.34
                             1460.89  1460.90  1461.44  1514.57  1514.64
                             1514.90  1593.86  1594.19  1596.33  1598.10
                             1598.18  1605.96  1717.14  1717.69  1717.79
                             1754.01  1754.38  1756.55  1906.36  1911.54
                             1911.81  1963.91  1964.25  1964.75  2130.09
                             2130.72  2130.81  2202.81  2203.44  2203.59
                             2345.42  2345.79  2345.85  2368.40  2368.45
                             2371.01  4569.69  4569.72  4569.76  4579.14
                             4579.15  4579.25  4593.81  4593.81  4593.99
                             4609.76  4609.79  4610.33  4618.67  4618.75
                             4619.99

 Zero-point correction=                           0.274202 (Hartree/Particle)
 Thermal correction to Energy=                    0.290135
 Thermal correction to Enthalpy=                  0.291079
 Thermal correction to Gibbs Free Energy=         0.227574
 Sum of electronic and zero-point Energies=          -1036.024027
 Sum of electronic and thermal Energies=             -1036.008095
 Sum of electronic and thermal Enthalpies=           -1036.007151
 Sum of electronic and thermal Free Energies=        -1036.070655

                     E (Thermal)             CV                S
                      KCal/Mol        Cal/Mol-Kelvin    Cal/Mol-Kelvin
 Total                  182.062             62.541            133.656
 Electronic               0.000              0.000              0.000
 Translational            0.889              2.981             42.590
 Rotational               0.889              2.981             33.803
 Vibrational            180.285             56.580             57.263
 Vibration     1          0.593              1.985              6.511
 Vibration     2          0.593              1.985              6.457
 Vibration     3          0.594              1.982              5.389
 Vibration     4          0.596              1.976              4.697
 Vibration     5          0.596              1.976              4.692
 Vibration     6          0.598              1.968              4.137
 Vibration     7          0.630              1.865              2.313
 Vibration     8          0.639              1.837              2.112
 Vibration     9          0.639              1.836              2.109
 Vibration    10          0.660              1.770              1.762
 Vibration    11          0.668              1.746              1.663
 Vibration    12          0.668              1.746              1.662
 Vibration    13          0.773              1.451              0.931
 Vibration    14          0.773              1.451              0.931
 Vibration    15          0.776              1.443              0.918
 Vibration    16          0.780              1.433              0.902
 Vibration    17          0.791              1.406              0.861
 Vibration    18          0.791              1.406              0.860
 Vibration    19          0.865              1.229              0.635
 Vibration    20          0.865              1.229              0.635
 Vibration    21          0.871              1.214              0.619

                           ! Non-Optimized Parameters !
 Normal termination of Gaussian 16 at Sun Aug 23 07:28:07 2020.
 Gaussian 16:  ES64L-G16RevA.03 25-Dec-2016

 ----------------------------------------------------------------------
 # TD(NStates=10, Root=1) B3LYP/6-31G* scf=qc volume pop=NPA density=cu
 rrent Geom=AllCheck Guess=Read
 ----------------------------------------------------------------------

 Structure from the checkpoint file:  "phosphine_1_conf243.chk"
 -------------------
 Title Card Required
 -------------------
 Charge =  0 Multiplicity = 1

                         Standard orientation:
 ---------------------------------------------------------------------
 Center     Atomic      Atomic             Coordinates (Angstroms)
 Number     Number       Type             X           Y           Z
 ---------------------------------------------------------------------
      1          6           0        0.508105    4.249792    0.651866
      2          6           0       -0.245503    4.040661   -0.505096
      3          6           0       -0.373988    2.755575   -1.031528
      4          6           0        0.231276    1.654343   -0.402521
      5          6           0        0.988025    1.878444    0.757746
      6          6           0        1.126539    3.166884    1.278689
      7         15           0       -0.000143   -0.000339   -1.206386
      8          6           0        1.317484   -1.027865   -0.402807
      9          6           0        1.133304   -1.796497    0.756673
     10          6           0        2.180134   -2.560681    1.277083
     11          6           0        3.427315   -2.565350    0.650541
     12          6           0        3.622902   -1.806911   -0.505640
     13          6           0        2.573972   -1.053119   -1.031577
     14          6           0       -1.548789   -0.627015   -0.402236
     15          6           0       -2.117336   -0.087602    0.761786
     16          6           0       -3.302596   -0.611217    1.282889
     17          6           0       -3.935348   -1.683708    0.652405
     18          6           0       -3.381333   -2.227911   -0.508231
     19          6           0       -2.203875   -1.697270   -1.034725
     20          1           0        0.618007    5.251780    1.058351
     21          1           0       -0.724251    4.879468   -1.003824
     22          1           0       -0.946281    2.603565   -1.943942
     23          1           0        1.474648    1.044455    1.254470
     24          1           0        1.718632    3.323135    2.177004
     25          1           0        0.167669   -1.801939    1.253255
     26          1           0        2.019477   -3.152548    2.174770
     27          1           0        4.240311   -3.161525    1.056624
     28          1           0        4.588819   -1.810742   -1.004153
     29          1           0        2.728405   -0.480521   -1.943393
     30          1           0       -1.635166    0.747314    1.261300
     31          1           0       -3.730936   -0.179624    2.184115
     32          1           0       -4.858243   -2.088994    1.058975
     33          1           0       -3.871613   -3.058352   -1.009745
     34          1           0       -1.789044   -2.113714   -1.949931
 ---------------------------------------------------------------------

 SCF Done:  E(RB3LYP) =  -1036.29822949     a.u. after    1 cycles

 Excitation energies and oscillator strengths:

 Excited State   1:      Singlet-A      4.5089 eV  274.98 nm  f=0.1273  <S**2>=0.000
      69 -> 70         0.69706
 This state for optimization and/or second-order correction.
 Total Energy, E(TD-HF/TD-DFT) =  -1036.13253025
 Copying the excited state density for this state as the 1-particle RhoCI density.

 Excited State   2:      Singlet-A      4.5118 eV  274.80 nm  f=0.1285  <S**2>=0.000
      69 -> 71         0.69701

 Excited State   3:      Singlet-A      4.7570 eV  260.63 nm  f=0.0022  <S**2>=0.000
      67 -> 70        -0.12288
      68 -> 71        -0.12348
      69 -> 72         0.67466

 Excited State   4:      Singlet-A      5.0573 eV  245.16 nm  f=0.0002  <S**2>=0.000
      66 -> 70         0.16666
      67 -> 70        -0.13397
      68 -> 71         0.13369
      69 -> 74         0.62991

 Excited State   5:      Singlet-A      5.0585 eV  245.10 nm  f=0.0002  <S**2>=0.000
      66 -> 71        -0.16743
      67 -> 71        -0.13480
      68 -> 70        -0.13469
      69 -> 75         0.62923

 Excited State   6:      Singlet-A      5.1509 eV  240.71 nm  f=0.0085  <S**2>=0.000
      69 -> 73         0.67907

 Excited State   7:      Singlet-A      5.4274 eV  228.44 nm  f=0.0147  <S**2>=0.000
      63 -> 72         0.16608
      64 -> 74        -0.14334
      65 -> 75        -0.14040
      67 -> 70         0.42440
      68 -> 71         0.41572
      69 -> 72         0.16514

 Excited State   8:      Singlet-A      5.5137 eV  224.87 nm  f=0.0005  <S**2>=0.000
      63 -> 74         0.14347
      64 -> 71        -0.11950
      64 -> 72        -0.22126
      65 -> 70         0.12316
      65 -> 72        -0.17575
      66 -> 70        -0.22673
      67 -> 70         0.25556
      68 -> 71        -0.26935
      68 -> 72         0.16317
      69 -> 74         0.28623

 Excited State   9:      Singlet-A      5.5151 eV  224.81 nm  f=0.0004  <S**2>=0.000
      63 -> 75         0.14405
      64 -> 70         0.11905
      64 -> 72         0.17619
      65 -> 71         0.11829
      65 -> 72        -0.22141
      66 -> 71         0.22497
      67 -> 71         0.26026
      67 -> 72         0.16397
      68 -> 70         0.26741
      69 -> 75         0.28747

 Excited State  10:      Singlet-A      5.6181 eV  220.69 nm  f=0.0009  <S**2>=0.000
      67 -> 71        -0.47397
      68 -> 70         0.48436

 The electronic state is 1-A.
 Alpha  occ. eigenvalues --  -77.08113 -10.19448 -10.19447 -10.19446 -10.19150
 Alpha  occ. eigenvalues --  -10.19144 -10.19144 -10.19119 -10.19116 -10.19115
 Alpha  occ. eigenvalues --  -10.19033 -10.19029 -10.19029 -10.19009 -10.19006
 Alpha  occ. eigenvalues --  -10.19006 -10.18964 -10.18960 -10.18960  -6.54843
 Alpha  occ. eigenvalues --   -4.71102  -4.71102  -4.70601  -0.85560  -0.84847
 Alpha  occ. eigenvalues --   -0.84844  -0.76669  -0.74366  -0.74365  -0.74329
 Alpha  occ. eigenvalues --   -0.73822  -0.73820  -0.64436  -0.60336  -0.60308
 Alpha  occ. eigenvalues --   -0.60306  -0.59207  -0.59206  -0.55448  -0.51436
 Alpha  occ. eigenvalues --   -0.51434  -0.49295  -0.45441  -0.45439  -0.44774
 Alpha  occ. eigenvalues --   -0.44345  -0.44344  -0.44067  -0.41946  -0.41869
 Alpha  occ. eigenvalues --   -0.41867  -0.40379  -0.40376  -0.36844  -0.36353
 Alpha  occ. eigenvalues --   -0.36349  -0.35898  -0.34253  -0.34251  -0.34224
 Alpha  occ. eigenvalues --   -0.31885  -0.31883  -0.26776  -0.25450  -0.25444
 Alpha  occ. eigenvalues --   -0.25243  -0.24704  -0.24703  -0.21144
 Alpha virt. eigenvalues --   -0.01883  -0.01876  -0.00830   0.00173   0.00425
 Alpha virt. eigenvalues --    0.00432   0.06877   0.06891   0.09492   0.11038
 Alpha virt. eigenvalues --    0.11040   0.13903   0.14528   0.14530   0.15165

 Mulliken charges:
               1
     1  C   -0.131712
     2  C   -0.123169
     3  C   -0.152245
     4  C   -0.086440
     5  C   -0.159030
     6  C   -0.116277
     7  P    0.450681
     8  C   -0.101774
     9  C   -0.150867
    10  C   -0.123123
    11  C   -0.134165
    12  C   -0.116548
    13  C   -0.168689
    14  C   -0.132972
    15  C   -0.175764
    16  C   -0.118629
    17  C   -0.170309
    18  C   -0.123362
    19  C   -0.171283
    20  H    0.138592
    21  H    0.137933
    22  H    0.145052
    23  H    0.155183
    24  H    0.140525
    25  H    0.172649
    26  H    0.139804
    27  H    0.136253
    28  H    0.134647
    29  H    0.136678
    30  H    0.122974
    31  H    0.115351
    32  H    0.105706
    33  H    0.111958
    34  H    0.112370
 Sum of Mulliken charges =  -0.00000

 Dipole moment (field-independent basis, Debye):
    X=              3.4065    Y=              1.6478    Z=             -0.1971  Tot=              3.7892
 Quadrupole moment (field-independent basis, Debye-Ang):
   XX=           -118.7151   YY=           -108.3472   ZZ=           -110.6671
   XY=             -4.7852   XZ=              1.3483   YZ=             -0.2424

 Summary of Natural Population Analysis:

                                       Natural Population
                Natural  -----------------------------------------------
    Atom  No    Charge         Core      Valence    Rydberg      Total
 -----------------------------------------------------------------------
      C    1   -0.21930      1.99909     4.20579    0.01441     6.21930
      C    2   -0.24315      1.99910     4.22941    0.01464     6.24315
      C    3   -0.19807      1.99901     4.18387    0.01519     6.19807
      C    4   -0.39185      1.99889     4.36888    0.02408     6.39185
      C    5   -0.23018      1.99899     4.21448    0.01671     6.23018
      C    6   -0.22392      1.99909     4.21079    0.01403     6.22392
      P    7    1.24222      9.99750     3.71004    0.05024    13.75778
      C    8   -0.41677      1.99890     4.39183    0.02605     6.41677
      C    9   -0.20826      1.99899     4.19271    0.01656     6.20826
      C   10   -0.23618      1.99909     4.22272    0.01437     6.23618
      C   11   -0.22428      1.99909     4.21055    0.01463     6.22428
      C   12   -0.23164      1.99910     4.21830    0.01425     6.23164
      C   13   -0.22263      1.99902     4.20792    0.01569     6.22263
      C   14   -0.48803      1.99886     4.46380    0.02538     6.48803
      C   15   -0.26447      1.99899     4.24737    0.01812     6.26447
      C   16   -0.22994      1.99909     4.21624    0.01461     6.22994
      C   17   -0.30101      1.99910     4.28512    0.01679     6.30101
      C   18   -0.24584      1.99910     4.23166    0.01508     6.24584
      C   19   -0.23357      1.99901     4.21820    0.01635     6.23357
      H   20    0.23888      0.00000     0.76027    0.00085     0.76112
      H   21    0.24122      0.00000     0.75791    0.00087     0.75878
      H   22    0.24086      0.00000     0.75789    0.00125     0.75914
      H   23    0.25005      0.00000     0.74870    0.00124     0.74995
      H   24    0.24265      0.00000     0.75648    0.00087     0.75735
      H   25    0.25934      0.00000     0.73927    0.00139     0.74066
      H   26    0.24247      0.00000     0.75666    0.00088     0.75753
      H   27    0.23777      0.00000     0.76136    0.00088     0.76223
      H   28    0.23899      0.00000     0.76006    0.00095     0.76101
      H   29    0.23503      0.00000     0.76389    0.00108     0.76497
      H   30    0.23180      0.00000     0.76670    0.00150     0.76820
      H   31    0.23105      0.00000     0.76807    0.00088     0.76895
      H   32    0.22462      0.00000     0.77449    0.00089     0.77538
      H   33    0.22886      0.00000     0.77023    0.00091     0.77114
      H   34    0.22327      0.00000     0.77573    0.00099     0.77673
 =======================================================================
   * Total *   -0.00000     45.98001    91.64742    0.37258   138.00000

 Normal termination of Gaussian 16 at Sun Aug 23 07:37:20 2020.
