 Gaussian 16, Revision A.03,

 ---------------------------------
 # opt=CalcAll B3LYP/6-31G* scf=qc
 ---------------------------------

 -------------------
 Title Card Required
 -------------------
 Symbolic Z-matrix:
 Charge =  0 Multiplicity = 1

 SCF Done:  E(RB3LYP) =  -1333.98102246     a.u. after    7 cycles
 SCF Done:  E(RB3LYP) =  -1333.98601925     a.u. after   17 cycles
 SCF Done:  E(RB3LYP) =  -1333.99672769     a.u. after   17 cycles
 SCF Done:  E(RB3LYP) =  -1333.99833262     a.u. after   15 cycles
 SCF Done:  E(RB3LYP) =  -1333.99880273     a.u. after   17 cycles
 SCF Done:  E(RB3LYP) =  -1333.99895633     a.u. after   11 cycles
 SCF Done:  E(RB3LYP) =  -1333.99897698     a.u. after    7 cycles
 SCF Done:  E(RB3LYP) =  -1333.99897953     a.u. after    5 cycles
 SCF Done:  E(RB3LYP) =  -1333.99897603     a.u. after    2 cycles
 SCF Done:  E(RB3LYP) =  -1333.99897595     a.u. after    4 cycles
 SCF Done:  E(RB3LYP) =  -1333.99897689     a.u. after    2 cycles
 SCF Done:  E(RB3LYP) =  -1333.99897619     a.u. after    2 cycles
 Optimization completed.
    -- Stationary point found.
 Normal termination of Gaussian 16 at Sun Aug 23 13:20:52 2020.

 ----------------------------------------------------------------------
 # freq B3LYP/6-31G* scf=qc volume NMR pop=NPA density=current Geom=All
 Check Guess=Read
 ----------------------------------------------------------------------

 Structure from the checkpoint file:  "phosphine_5_conf182.chk"
 -------------------
 Title Card Required
 -------------------
 Charge =  0 Multiplicity = 1

 SCF Done:  E(RB3LYP) =  -1333.99897619     a.u. after    1 cycles

      1  C    Isotropic =    79.9321   Anisotropy =   137.4242

      2  C    Isotropic =    59.0118   Anisotropy =   162.7745

      3  C    Isotropic =    61.6525   Anisotropy =   173.4844

      4  C    Isotropic =    60.6882   Anisotropy =   171.9332

      5  C    Isotropic =    80.0627   Anisotropy =   136.7291

      6  C    Isotropic =    32.6647   Anisotropy =    98.8305

      7  F    Isotropic =   295.7875   Anisotropy =   113.0733

      8  P    Isotropic =   366.1313   Anisotropy =    39.7293

      9  C    Isotropic =    61.5901   Anisotropy =   173.5339

     10  C    Isotropic =    60.7638   Anisotropy =   171.8537

     11  C    Isotropic =    80.0820   Anisotropy =   136.7477

     12  C    Isotropic =    32.6786   Anisotropy =    98.7897

     13  C    Isotropic =    79.9452   Anisotropy =   137.4499

     14  C    Isotropic =    59.0843   Anisotropy =   162.8153

     15  F    Isotropic =   295.8145   Anisotropy =   112.9243

     16  C    Isotropic =    61.5967   Anisotropy =   173.5217

     17  C    Isotropic =    59.0128   Anisotropy =   162.7516

     18  C    Isotropic =    79.9191   Anisotropy =   137.4265

     19  C    Isotropic =    32.6551   Anisotropy =    98.8364

     20  C    Isotropic =    80.0696   Anisotropy =   136.7164

     21  C    Isotropic =    60.6877   Anisotropy =   171.8843

     22  F    Isotropic =   295.7812   Anisotropy =   113.0968

     23  H    Isotropic =    25.3586   Anisotropy =     4.2556

     24  H    Isotropic =    24.6175   Anisotropy =     8.9155

     25  H    Isotropic =    25.3582   Anisotropy =    12.0175

     26  H    Isotropic =    25.4633   Anisotropy =     5.7384

     27  H    Isotropic =    25.3680   Anisotropy =    12.0371

     28  H    Isotropic =    25.4667   Anisotropy =     5.7397

     29  H    Isotropic =    25.3613   Anisotropy =     4.2550

     30  H    Isotropic =    24.6232   Anisotropy =     8.9310

     31  H    Isotropic =    24.6169   Anisotropy =     8.9162

     32  H    Isotropic =    25.3566   Anisotropy =     4.2616

     33  H    Isotropic =    25.4676   Anisotropy =     5.7332

     34  H    Isotropic =    25.3624   Anisotropy =    12.0051

  Exact polarizability: 226.282   0.118 225.992  -0.047  -0.141 167.779
 Approx polarizability: 338.005   0.263 337.460  -0.101  -0.321 314.988

                      1                      2                      3
                      A                      A                      A
 Frequencies --     23.3781                24.6651                37.4305
 Red. masses --      4.0672                 4.0878                 8.9375
 Frc consts  --      0.0013                 0.0015                 0.0074
 IR Inten    --      0.2488                 0.2562                 0.1014

                      4                      5                      6
                      A                      A                      A
 Frequencies --     37.5829                40.4315                50.6202
 Red. masses --      9.0462                 3.7431                 9.9518
 Frc consts  --      0.0075                 0.0036                 0.0150
 IR Inten    --      0.0923                 0.0057                 0.1144

                      7                      8                      9
                      A                      A                      A
 Frequencies --    133.0051               145.4861               145.8076
 Red. masses --      8.0542                 8.3694                 8.3762
 Frc consts  --      0.0839                 0.1044                 0.1049
 IR Inten    --      0.0235                 0.5209                 0.5143

                     10                     11                     12
                      A                      A                      A
 Frequencies --    209.0197               218.8882               219.5025
 Red. masses --      8.0486                 6.9855                 6.9951
 Frc consts  --      0.2072                 0.1972                 0.1986
 IR Inten    --      0.2901                 0.5284                 0.5292

                     13                     14                     15
                      A                      A                      A
 Frequencies --    307.9491               336.0135               336.1047
 Red. masses --      8.4310                 8.3165                 8.3045
 Frc consts  --      0.4711                 0.5532                 0.5527
 IR Inten    --      1.0311                 0.0450                 0.0434

                     16                     17                     18
                      A                      A                      A
 Frequencies --    397.1546               404.1051               404.1763
 Red. masses --      7.7405                 8.0304                 8.0195
 Frc consts  --      0.7193                 0.7726                 0.7719
 IR Inten    --      0.3034                10.1121                10.1009

                     19                     20                     21
                      A                      A                      A
 Frequencies --    420.6624               420.7543               424.7485
 Red. masses --      3.2840                 3.2771                 3.1355
 Frc consts  --      0.3424                 0.3418                 0.3333
 IR Inten    --      1.1633                 1.0782                 0.0242

                     22                     23                     24
                      A                      A                      A
 Frequencies --    435.0058               435.2386               463.5947
 Red. masses --      6.1421                 6.1534                 6.6459
 Frc consts  --      0.6848                 0.6868                 0.8415
 IR Inten    --     18.9048                19.0628                 7.4010

                     25                     26                     27
                      A                      A                      A
 Frequencies --    533.0197               533.1598               535.5672
 Red. masses --      2.8108                 2.8120                 2.9071
 Frc consts  --      0.4705                 0.4710                 0.4913
 IR Inten    --     21.9220                21.8170                13.4848

                     28                     29                     30
                      A                      A                      A
 Frequencies --    608.0751               630.0024               630.0480
 Red. masses --      7.9092                 7.8317                 7.8284
 Frc consts  --      1.7231                 1.8314                 1.8309
 IR Inten    --      0.0096                 0.0365                 0.0391

                     31                     32                     33
                      A                      A                      A
 Frequencies --    648.2424               648.3827               648.4512
 Red. masses --      7.2771                 7.3790                 7.3809
 Frc consts  --      1.8017                 1.8277                 1.8286
 IR Inten    --      0.0049                 0.1276                 0.1296

                     34                     35                     36
                      A                      A                      A
 Frequencies --    715.1465               715.6517               715.7219
 Red. masses --      4.8100                 4.8252                 4.8304
 Frc consts  --      1.4494                 1.4560                 1.4579
 IR Inten    --      1.0800                 3.9397                 3.9390

                     37                     38                     39
                      A                      A                      A
 Frequencies --    835.7452               835.8199               836.8435
 Red. masses --      1.2634                 1.2616                 1.3272
 Frc consts  --      0.5199                 0.5193                 0.5476
 IR Inten    --      0.5322                 0.4573                11.3489

                     40                     41                     42
                      A                      A                      A
 Frequencies --    839.5412               839.5698               839.8192
 Red. masses --      3.2644                 3.2744                 4.0269
 Frc consts  --      1.3556                 1.3599                 1.6734
 IR Inten    --     62.0786                61.3937                18.4641

                     43                     44                     45
                      A                      A                      A
 Frequencies --    843.6565               843.7747               844.1119
 Red. masses --      2.0005                 1.9691                 1.6786
 Frc consts  --      0.8389                 0.8260                 0.7047
 IR Inten    --      9.9965                10.2242                12.1010

                     46                     47                     48
                      A                      A                      A
 Frequencies --    958.6602               958.7347               959.8643
 Red. masses --      1.2560                 1.2560                 1.2588
 Frc consts  --      0.6801                 0.6802                 0.6833
 IR Inten    --      0.1677                 0.1650                 0.3310

                     49                     50                     51
                      A                      A                      A
 Frequencies --    969.9393               969.9764               973.5040
 Red. masses --      1.3353                 1.3352                 1.3193
 Frc consts  --      0.7402                 0.7401                 0.7366
 IR Inten    --      0.0357                 0.0329                 0.3108

                     52                     53                     54
                      A                      A                      A
 Frequencies --   1034.7168              1034.8106              1035.1879
 Red. masses --      3.0268                 3.0327                 3.0246
 Frc consts  --      1.9093                 1.9134                 1.9096
 IR Inten    --      7.9561                 7.8745                 0.1474

                     55                     56                     57
                      A                      A                      A
 Frequencies --   1102.9042              1103.1670              1108.8231
 Red. masses --      3.6674                 3.6665                 3.5537
 Frc consts  --      2.6283                 2.6290                 2.5743
 IR Inten    --     19.3306                19.1345                 1.8933

                     58                     59                     60
                      A                      A                      A
 Frequencies --   1127.5354              1127.7535              1127.9624
 Red. masses --      1.3306                 1.3303                 1.3293
 Frc consts  --      0.9967                 0.9968                 0.9964
 IR Inten    --      0.9589                 1.9657                 6.1129

                     61                     62                     63
                      A                      A                      A
 Frequencies --   1195.2229              1195.6509              1199.5143
 Red. masses --      1.1836                 1.1857                 1.1805
 Frc consts  --      0.9962                 0.9987                 1.0007
 IR Inten    --     60.6306                61.1670                 2.6499

                     64                     65                     66
                      A                      A                      A
 Frequencies --   1285.3228              1285.4820              1286.2143
 Red. masses --      3.7556                 3.7415                 3.7827
 Frc consts  --      3.6556                 3.6427                 3.6870
 IR Inten    --    167.4705               166.0527                38.8933

                     67                     68                     69
                      A                      A                      A
 Frequencies --   1324.1652              1327.2887              1327.8083
 Red. masses --      2.7461                 2.2247                 2.3391
 Frc consts  --      2.8370                 2.3091                 2.4298
 IR Inten    --      8.7998                 3.8885                 3.8801

                     70                     71                     72
                      A                      A                      A
 Frequencies --   1336.7040              1336.9046              1337.1821
 Red. masses --      2.3257                 2.2075                 1.9414
 Frc consts  --      2.4483                 2.3246                 2.0453
 IR Inten    --      0.3442                 0.3915                 0.8507

                     73                     74                     75
                      A                      A                      A
 Frequencies --   1437.9299              1438.0697              1438.2748
 Red. masses --      2.9854                 2.9931                 2.9866
 Frc consts  --      3.6368                 3.6470                 3.6401
 IR Inten    --      6.8526                 2.6254                 2.6484

                     76                     77                     78
                      A                      A                      A
 Frequencies --   1545.5607              1545.7411              1546.5300
 Red. masses --      2.4083                 2.4046                 2.4441
 Frc consts  --      3.3894                 3.3850                 3.4442
 IR Inten    --    116.3229               116.4202                24.4649

                     79                     80                     81
                      A                      A                      A
 Frequencies --   1633.9225              1633.9770              1634.0068
 Red. masses --      6.9690                 6.9577                 6.9597
 Frc consts  --     10.9618                10.9448                10.9484
 IR Inten    --      9.2838                14.4159                11.0712

                     82                     83                     84
                      A                      A                      A
 Frequencies --   1653.5130              1653.5667              1654.3881
 Red. masses --      5.8086                 5.8059                 5.8788
 Frc consts  --      9.3570                 9.3532                 9.4801
 IR Inten    --     82.8449                82.5803                22.5925

                     85                     86                     87
                      A                      A                      A
 Frequencies --   3188.7827              3188.8574              3188.9507
 Red. masses --      1.0892                 1.0892                 1.0892
 Frc consts  --      6.5255                 6.5256                 6.5259
 IR Inten    --      5.7692                 4.0056                 3.6161

                     88                     89                     90
                      A                      A                      A
 Frequencies --   3205.8129              3205.8979              3206.5165
 Red. masses --      1.0878                 1.0878                 1.0879
 Frc consts  --      6.5867                 6.5870                 6.5901
 IR Inten    --      2.0262                 2.0274                 0.3590

                     91                     92                     93
                      A                      A                      A
 Frequencies --   3221.8723              3221.9686              3222.1666
 Red. masses --      1.0942                 1.0942                 1.0940
 Frc consts  --      6.6921                 6.6923                 6.6923
 IR Inten    --      3.4380                 3.0716                11.5083

                     94                     95                     96
                      A                      A                      A
 Frequencies --   3222.6011              3222.6430              3222.8674
 Red. masses --      1.0937                 1.0936                 1.0939
 Frc consts  --      6.6919                 6.6919                 6.6947
 IR Inten    --     12.2171                12.3074                 0.2533

 - Thermochemistry -
 -------------------
 Temperature   298.150 Kelvin.  Pressure   1.00000 Atm.
 Atom     1 has atomic number  6 and mass  12.00000

 Molecular mass:   316.06287 amu.
 Principal axes and moments of inertia in atomic units:
                           1         2         3
     Eigenvalues --  8314.319068322.52972**********
           X            0.99965   0.02645  -0.00002
           Y           -0.02645   0.99965  -0.00004
           Z            0.00002   0.00004   1.00000
 This molecule is an asymmetric top.
 Rotational symmetry number  1.
 Warning -- assumption of classical behavior for rotation
           may cause significant error
 Rotational temperatures (Kelvin)      0.01042     0.01041     0.00597
 Rotational constants (GHZ):           0.21706     0.21685     0.12431
 Zero-point vibrational energy     655296.9 (Joules/Mol)
                                  156.61973 (Kcal/Mol)
 Warning -- explicit consideration of  28 degrees of freedom as
           vibrations may cause significant error
 Vibrational temperatures:     33.64    35.49    53.85    54.07    58.17
          (Kelvin)             72.83   191.36   209.32   209.78   300.73
                              314.93   315.82   443.07   483.45   483.58
                              571.42   581.42   581.52   605.24   605.37
                              611.12   625.88   626.21   667.01   766.90
                              767.10   770.56   874.88   906.43   906.50
                              932.68   932.88   932.98  1028.94  1029.66
                             1029.76  1202.45  1202.56  1204.03  1207.91
                             1207.95  1208.31  1213.83  1214.00  1214.49
                             1379.30  1379.41  1381.03  1395.53  1395.58
                             1400.66  1488.73  1488.86  1489.40  1586.83
                             1587.21  1595.35  1622.27  1622.59  1622.89
                             1719.66  1720.27  1725.83  1849.29  1849.52
                             1850.58  1905.18  1909.67  1910.42  1923.22
                             1923.51  1923.91  2068.86  2069.06  2069.36
                             2223.72  2223.98  2225.11  2350.85  2350.93
                             2350.97  2379.04  2379.11  2380.30  4587.95
                             4588.05  4588.19  4612.45  4612.57  4613.46
                             4635.56  4635.69  4635.98  4636.60  4636.66
                             4636.99

 Zero-point correction=                           0.249589 (Hartree/Particle)
 Thermal correction to Energy=                    0.268019
 Thermal correction to Enthalpy=                  0.268963
 Thermal correction to Gibbs Free Energy=         0.199518
 Sum of electronic and zero-point Energies=          -1333.749387
 Sum of electronic and thermal Energies=             -1333.730957
 Sum of electronic and thermal Enthalpies=           -1333.730013
 Sum of electronic and thermal Free Energies=        -1333.799458

                     E (Thermal)             CV                S
                      KCal/Mol        Cal/Mol-Kelvin    Cal/Mol-Kelvin
 Total                  168.184             71.393            146.160
 Electronic               0.000              0.000              0.000
 Translational            0.889              2.981             43.148
 Rotational               0.889              2.981             35.262
 Vibrational            166.407             65.432             67.750
 Vibration     1          0.593              1.985              6.324
 Vibration     2          0.593              1.985              6.218
 Vibration     3          0.594              1.982              5.391
 Vibration     4          0.594              1.982              5.383
 Vibration     5          0.594              1.981              5.238
 Vibration     6          0.595              1.977              4.793
 Vibration     7          0.613              1.920              2.902
 Vibration     8          0.617              1.908              2.730
 Vibration     9          0.617              1.907              2.726
 Vibration    10          0.642              1.827              2.052
 Vibration    11          0.647              1.812              1.968
 Vibration    12          0.647              1.811              1.963
 Vibration    13          0.698              1.659              1.373
 Vibration    14          0.717              1.604              1.231
 Vibration    15          0.717              1.603              1.231
 Vibration    16          0.764              1.476              0.973
 Vibration    17          0.769              1.461              0.948
 Vibration    18          0.769              1.461              0.947
 Vibration    19          0.783              1.425              0.890
 Vibration    20          0.783              1.425              0.889
 Vibration    21          0.787              1.416              0.876
 Vibration    22          0.796              1.394              0.842
 Vibration    23          0.796              1.393              0.842
 Vibration    24          0.821              1.331              0.756
 Vibration    25          0.888              1.177              0.580
 Vibration    26          0.888              1.177              0.580
 Vibration    27          0.891              1.171              0.575
 Vibration    28          0.967              1.015              0.436

 Optimization completed on the basis of negligible forces.
    -- Stationary point found.
 Normal termination of Gaussian 16 at Sun Aug 23 13:34:56 2020.
 Gaussian 16:  ES64L-G16RevA.03 25-Dec-2016

 ----------------------------------------------------------------------
 # TD(NStates=10, Root=1) B3LYP/6-31G* scf=qc volume pop=NPA density=cu
 rrent Geom=AllCheck Guess=Read
 ----------------------------------------------------------------------

 Structure from the checkpoint file:  "phosphine_5_conf183.chk"
 -------------------
 Title Card Required
 -------------------
 Charge =  0 Multiplicity = 1

                         Standard orientation:
 ---------------------------------------------------------------------
 Center     Atomic      Atomic             Coordinates (Angstroms)
 Number     Number       Type             X           Y           Z
 ---------------------------------------------------------------------
      1          6           0        4.038088    0.375865    0.700437
      2          6           0        2.746282    0.451775    1.217979
      3          6           0        1.661962   -0.167367    0.571906
      4          6           0        1.912605   -0.890695   -0.604996
      5          6           0        3.201585   -0.986887   -1.131194
      6          6           0        4.242940   -0.347020   -0.469587
      7          9           0        5.490932   -0.436036   -0.973143
      8         15           0        0.000714   -0.000223    1.374950
      9          6           0       -0.685552    1.522050    0.572175
     10          6           0       -0.179441    2.106004   -0.599952
     11          6           0       -0.741330    3.270208   -1.125909
     12          6           0       -1.821913    3.846605   -0.468986
     13          6           0       -2.350635    3.302455    0.696304
     14          6           0       -1.769720    2.146150    1.213796
     15          9           0       -2.369548    4.971640   -0.972392
     16          6           0       -0.975001   -1.354941    0.571626
     17          6           0       -0.982623   -2.603335    1.218086
     18          6           0       -1.694769   -3.683652    0.700245
     19          6           0       -2.421966   -3.499377   -0.470526
     20          6           0       -2.453660   -2.277826   -1.132641
     21          6           0       -1.725441   -1.210101   -0.606086
     22          9           0       -3.123579   -4.535180   -0.974336
     23          1           0        4.879731    0.853001    1.191886
     24          1           0        2.579238    0.998234    2.142979
     25          1           0        1.096586   -1.391313   -1.116945
     26          1           0        3.406146   -1.546764   -2.038195
     27          1           0        0.666520    1.654013   -1.108518
     28          1           0       -0.354905    3.731229   -2.029283
     29          1           0       -3.189180    3.788514    1.184295
     30          1           0       -2.163604    1.724272    2.135230
     31          1           0       -0.426818   -2.732116    2.143634
     32          1           0       -1.703723   -4.650927    1.192034
     33          1           0       -3.039823   -2.174856   -2.040259
     34          1           0       -1.749602   -0.253220   -1.118343
 ---------------------------------------------------------------------

 SCF Done:  E(RB3LYP) =  -1333.99897619     a.u. after    1 cycles

 Excitation energies and oscillator strengths:

 Excited State   1:      Singlet-A      4.5727 eV  271.14 nm  f=0.1345  <S**2>=0.000
      81 -> 82         0.69345
 This state for optimization and/or second-order correction.
 Total Energy, E(TD-HF/TD-DFT) =  -1333.83093191
 Copying the excited state density for this state as the 1-particle RhoCI density.

 Excited State   2:      Singlet-A      4.5762 eV  270.93 nm  f=0.1356  <S**2>=0.000
      81 -> 83         0.69298

 Excited State   3:      Singlet-A      4.5867 eV  270.31 nm  f=0.0101  <S**2>=0.000
      81 -> 84         0.68833

 Excited State   4:      Singlet-A      4.9051 eV  252.77 nm  f=0.0018  <S**2>=0.000
      81 -> 85         0.67643

 Excited State   5:      Singlet-A      4.9069 eV  252.67 nm  f=0.0017  <S**2>=0.000
      81 -> 86         0.67602

 Excited State   6:      Singlet-A      5.2397 eV  236.63 nm  f=0.0075  <S**2>=0.000
      79 -> 82        -0.10603
      80 -> 83         0.10708
      81 -> 87         0.67229

 Excited State   7:      Singlet-A      5.4167 eV  228.89 nm  f=0.0000  <S**2>=0.000
      75 -> 84         0.14154
      77 -> 82         0.18159
      78 -> 83        -0.16146
      79 -> 82         0.27753
      79 -> 83         0.29950
      79 -> 85         0.15365
      80 -> 82         0.29964
      80 -> 83        -0.27260
      80 -> 86        -0.14063

 Excited State   8:      Singlet-A      5.4449 eV  227.71 nm  f=0.0019  <S**2>=0.000
      76 -> 82         0.21155
      77 -> 82        -0.11483
      77 -> 83        -0.14806
      77 -> 87         0.12158
      78 -> 82         0.14841
      78 -> 83        -0.12554
      79 -> 84        -0.31017
      79 -> 86        -0.15338
      80 -> 84         0.39243
      80 -> 85         0.15296
      81 -> 85        -0.12425

 Excited State   9:      Singlet-A      5.4462 eV  227.65 nm  f=0.0021  <S**2>=0.000
      76 -> 83         0.20806
      77 -> 82        -0.13633
      77 -> 83         0.11740
      78 -> 82        -0.12072
      78 -> 83        -0.15530
      78 -> 87        -0.12136
      79 -> 84         0.38753
      79 -> 85        -0.14609
      80 -> 84         0.31829
      80 -> 86        -0.15998
      81 -> 86        -0.12509

 Excited State  10:      Singlet-A      5.6622 eV  218.97 nm  f=0.0028  <S**2>=0.000
      75 -> 84        -0.16314
      76 -> 84        -0.10222
      77 -> 82        -0.24657
      78 -> 83         0.23325
      79 -> 83         0.21647
      79 -> 85        -0.22115
      79 -> 86         0.10654
      80 -> 82         0.35590
      80 -> 85         0.10928
      80 -> 86         0.23770

 The electronic state is 1-A.
 Alpha  occ. eigenvalues --  -77.09285 -24.70935 -24.70934 -24.70929 -10.27932
 Alpha  occ. eigenvalues --  -10.27931 -10.27924 -10.20803 -10.20802 -10.20798
 Alpha  occ. eigenvalues --  -10.20703 -10.20702 -10.20696 -10.20479 -10.20478
 Alpha  occ. eigenvalues --  -10.20477 -10.20319 -10.20318 -10.20312 -10.20310
 Alpha  occ. eigenvalues --  -10.20309 -10.20306  -6.55986  -4.72247  -4.72247
 Alpha  occ. eigenvalues --   -4.71743  -1.22113  -1.22113  -1.22107  -0.87207
 Alpha  occ. eigenvalues --   -0.86557  -0.86553  -0.77802  -0.76322  -0.76286
 Alpha  occ. eigenvalues --   -0.76284  -0.74868  -0.74865  -0.65458  -0.63139
 Alpha  occ. eigenvalues --   -0.62959  -0.62957  -0.60999  -0.60996  -0.57074
 Alpha  occ. eigenvalues --   -0.54666  -0.54664  -0.54254  -0.49447  -0.49443
 Alpha  occ. eigenvalues --   -0.49382  -0.48019  -0.48018  -0.46311  -0.46308
 Alpha  occ. eigenvalues --   -0.46295  -0.45865  -0.44921  -0.44920  -0.43857
 Alpha  occ. eigenvalues --   -0.43706  -0.43704  -0.42082  -0.40157  -0.40108
 Alpha  occ. eigenvalues --   -0.40107  -0.37163  -0.37157  -0.36438  -0.34998
 Alpha  occ. eigenvalues --   -0.34996  -0.34951  -0.33924  -0.33922  -0.27230
 Alpha  occ. eigenvalues --   -0.26848  -0.26601  -0.26596  -0.25428  -0.25419
 Alpha  occ. eigenvalues --   -0.21919
 Alpha virt. eigenvalues --   -0.02515  -0.02507  -0.02413  -0.01176  -0.01168
 Alpha virt. eigenvalues --   -0.00310   0.05876   0.05894   0.08467   0.10088
 Alpha virt. eigenvalues --    0.10090   0.12846   0.13529   0.13531   0.14052

 Mulliken charges:
               1
     1  C   -0.183456
     2  C   -0.180621
     3  C   -0.125479
     4  C   -0.166962
     5  C   -0.188477
     6  C    0.346340
     7  F   -0.301686
     8  P    0.435569
     9  C   -0.079910
    10  C   -0.150852
    11  C   -0.185522
    12  C    0.390774
    13  C   -0.182981
    14  C   -0.162568
    15  F   -0.281992
    16  C   -0.103771
    17  C   -0.154974
    18  C   -0.199485
    19  C    0.356778
    20  C   -0.178465
    21  C   -0.186559
    22  F   -0.298198
    23  H    0.138410
    24  H    0.127943
    25  H    0.149838
    26  H    0.142169
    27  H    0.180900
    28  H    0.165006
    29  H    0.161632
    30  H    0.157935
    31  H    0.139724
    32  H    0.141595
    33  H    0.143944
    34  H    0.133404
 Sum of Mulliken charges =  -0.00000

 Dipole moment (field-independent basis, Debye):
    X=             -1.7400    Y=              2.9047    Z=              1.4585  Tot=              3.6868
 Quadrupole moment (field-independent basis, Debye-Ang):
   XX=           -144.3314   YY=           -134.7054   ZZ=           -121.8238
   XY=             -4.4468   XZ=             -0.4153   YZ=             -0.8356

 Summary of Natural Population Analysis:

                                       Natural Population
                Natural  -----------------------------------------------
    Atom  No    Charge         Core      Valence    Rydberg      Total
 -----------------------------------------------------------------------
      C    1   -0.29968      1.99900     4.28554    0.01514     6.29968
      C    2   -0.23091      1.99903     4.21543    0.01645     6.23091
      C    3   -0.48258      1.99888     4.45709    0.02661     6.48258
      C    4   -0.22609      1.99900     4.20977    0.01732     6.22609
      C    5   -0.30243      1.99899     4.28820    0.01524     6.30243
      C    6    0.38158      1.99844     3.59201    0.02797     5.61842
      F    7   -0.33679      1.99994     7.33133    0.00551     9.33679
      P    8    1.21011      9.99756     3.74080    0.05153    13.78989
      C    9   -0.39058      1.99891     4.36632    0.02534     6.39058
      C   10   -0.19282      1.99901     4.17776    0.01605     6.19282
      C   11   -0.29950      1.99898     4.28573    0.01479     6.29950
      C   12    0.45472      1.99844     3.51974    0.02710     5.54528
      C   13   -0.30096      1.99899     4.28707    0.01490     6.30096
      C   14   -0.19619      1.99903     4.18181    0.01535     6.19619
      F   15   -0.31930      1.99994     7.31377    0.00560     9.31930
      C   16   -0.44435      1.99887     4.42103    0.02444     6.44435
      C   17   -0.18575      1.99902     4.17137    0.01535     6.18575
      C   18   -0.33074      1.99899     4.31551    0.01623     6.33074
      C   19    0.40058      1.99844     3.57322    0.02776     5.59942
      C   20   -0.28477      1.99899     4.27099    0.01479     6.28477
      C   21   -0.27153      1.99900     4.25395    0.01858     6.27153
      F   22   -0.33353      1.99994     7.32808    0.00551     9.33353
      H   23    0.24708      0.00000     0.75168    0.00124     0.75292
      H   24    0.23129      0.00000     0.76783    0.00089     0.76871
      H   25    0.24656      0.00000     0.75174    0.00170     0.75344
      H   26    0.24965      0.00000     0.74915    0.00120     0.75035
      H   27    0.26436      0.00000     0.73444    0.00120     0.73564
      H   28    0.26045      0.00000     0.73838    0.00117     0.73955
      H   29    0.25833      0.00000     0.74048    0.00118     0.74167
      H   30    0.24742      0.00000     0.75140    0.00118     0.75258
      H   31    0.23856      0.00000     0.76031    0.00113     0.76144
      H   32    0.24948      0.00000     0.74934    0.00117     0.75052
      H   33    0.25013      0.00000     0.74867    0.00121     0.74987
      H   34    0.23821      0.00000     0.76045    0.00134     0.76179
 =======================================================================
   * Total *   -0.00000     51.97740   109.59042    0.43218   162.00000

 Normal termination of Gaussian 16 at Sun Aug 23 13:50:28 2020.
