 Gaussian 16, Revision A.03,

 ---------------------------------
 # opt=CalcAll B3LYP/6-31G* scf=qc
 ---------------------------------

 -------------------
 Title Card Required
 -------------------
 Symbolic Z-matrix:
 Charge =  0 Multiplicity = 1

 SCF Done:  E(RB3LYP) =  -1333.93780739     a.u. after    7 cycles
 SCF Done:  E(RB3LYP) =  -1333.96307739     a.u. after   17 cycles
 SCF Done:  E(RB3LYP) =  -1333.97297220     a.u. after   15 cycles
 SCF Done:  E(RB3LYP) =  -1333.99071964     a.u. after   17 cycles
 SCF Done:  E(RB3LYP) =  -1333.99519699     a.u. after   17 cycles
 SCF Done:  E(RB3LYP) =  -1333.99752088     a.u. after   15 cycles
 SCF Done:  E(RB3LYP) =  -1333.99716805     a.u. after   15 cycles
 SCF Done:  E(RB3LYP) =  -1333.99841769     a.u. after   13 cycles
 SCF Done:  E(RB3LYP) =  -1333.99890112     a.u. after   15 cycles
 SCF Done:  E(RB3LYP) =  -1333.99894993     a.u. after   15 cycles
 SCF Done:  E(RB3LYP) =  -1333.99897725     a.u. after    5 cycles
 SCF Done:  E(RB3LYP) =  -1333.99897269     a.u. after    3 cycles
 SCF Done:  E(RB3LYP) =  -1333.99898028     a.u. after    2 cycles
 SCF Done:  E(RB3LYP) =  -1333.99897779     a.u. after    2 cycles
 SCF Done:  E(RB3LYP) =  -1333.99897685     a.u. after    2 cycles
 SCF Done:  E(RB3LYP) =  -1333.99897841     a.u. after    3 cycles
 SCF Done:  E(RB3LYP) =  -1333.99897740     a.u. after    2 cycles
 SCF Done:  E(RB3LYP) =  -1333.99897861     a.u. after    2 cycles
 Optimization completed.
    -- Stationary point found.
 Normal termination of Gaussian 16 at Sun Aug 23 17:06:33 2020.

 ----------------------------------------------------------------------
 # freq B3LYP/6-31G* scf=qc volume NMR pop=NPA density=current Geom=All
 Check Guess=Read
 ----------------------------------------------------------------------

 Structure from the checkpoint file:  "phosphine_5_conf12.chk"
 -------------------
 Title Card Required
 -------------------
 Charge =  0 Multiplicity = 1

 SCF Done:  E(RB3LYP) =  -1333.99897861     a.u. after    1 cycles

      1  C    Isotropic =    80.0652   Anisotropy =   136.7231

      2  C    Isotropic =    60.7033   Anisotropy =   171.8809

      3  C    Isotropic =    61.6225   Anisotropy =   173.4974

      4  C    Isotropic =    59.0374   Anisotropy =   162.7664

      5  C    Isotropic =    79.9335   Anisotropy =   137.4467

      6  C    Isotropic =    32.6560   Anisotropy =    98.8246

      7  F    Isotropic =   295.7813   Anisotropy =   113.0194

      8  P    Isotropic =   366.2203   Anisotropy =    40.1662

      9  C    Isotropic =    61.6001   Anisotropy =   173.4901

     10  C    Isotropic =    60.7234   Anisotropy =   171.8392

     11  C    Isotropic =    80.0605   Anisotropy =   136.7129

     12  C    Isotropic =    32.6674   Anisotropy =    98.8145

     13  C    Isotropic =    79.9381   Anisotropy =   137.4569

     14  C    Isotropic =    59.0528   Anisotropy =   162.7888

     15  F    Isotropic =   295.8100   Anisotropy =   113.0169

     16  C    Isotropic =    61.6276   Anisotropy =   173.4785

     17  C    Isotropic =    60.7047   Anisotropy =   171.8655

     18  C    Isotropic =    80.0570   Anisotropy =   136.7087

     19  C    Isotropic =    32.6631   Anisotropy =    98.8198

     20  C    Isotropic =    79.9300   Anisotropy =   137.4441

     21  C    Isotropic =    59.0345   Anisotropy =   162.7893

     22  F    Isotropic =   295.8021   Anisotropy =   113.0551

     23  H    Isotropic =    25.4665   Anisotropy =     5.7359

     24  H    Isotropic =    25.3654   Anisotropy =    12.0130

     25  H    Isotropic =    24.6189   Anisotropy =     8.9162

     26  H    Isotropic =    25.3575   Anisotropy =     4.2599

     27  H    Isotropic =    25.3673   Anisotropy =    12.0218

     28  H    Isotropic =    25.4658   Anisotropy =     5.7389

     29  H    Isotropic =    25.3585   Anisotropy =     4.2589

     30  H    Isotropic =    24.6204   Anisotropy =     8.9233

     31  H    Isotropic =    25.3668   Anisotropy =    12.0188

     32  H    Isotropic =    25.4665   Anisotropy =     5.7368

     33  H    Isotropic =    25.3570   Anisotropy =     4.2608

     34  H    Isotropic =    24.6191   Anisotropy =     8.9183

  Exact polarizability: 226.177  -0.041 226.168  -0.012   0.038 167.712
 Approx polarizability: 337.802  -0.094 337.816  -0.029   0.084 314.843

                      1                      2                      3
                      A                      A                      A
 Frequencies --     23.9455                25.1205                37.5315
 Red. masses --      4.0859                 4.1293                 8.9966
 Frc consts  --      0.0014                 0.0015                 0.0075
 IR Inten    --      0.2511                 0.2413                 0.1002

                      4                      5                      6
                      A                      A                      A
 Frequencies --     37.7308                40.5046                50.6552
 Red. masses --      8.7168                 3.7389                 9.9429
 Frc consts  --      0.0073                 0.0036                 0.0150
 IR Inten    --      0.1055                 0.0061                 0.1137

                      7                      8                      9
                      A                      A                      A
 Frequencies --    132.9444               145.4377               145.6810
 Red. masses --      8.0525                 8.3664                 8.3762
 Frc consts  --      0.0839                 0.1043                 0.1047
 IR Inten    --      0.0233                 0.5194                 0.5166

                     10                     11                     12
                      A                      A                      A
 Frequencies --    208.9661               218.8519               219.2321
 Red. masses --      8.0474                 6.9835                 6.9898
 Frc consts  --      0.2070                 0.1971                 0.1979
 IR Inten    --      0.2912                 0.5261                 0.5276

                     13                     14                     15
                      A                      A                      A
 Frequencies --    307.9374               336.0564               336.0939
 Red. masses --      8.4351                 8.3113                 8.3075
 Frc consts  --      0.4713                 0.5530                 0.5529
 IR Inten    --      1.0289                 0.0441                 0.0434

                     16                     17                     18
                      A                      A                      A
 Frequencies --    397.1648               404.1159               404.1379
 Red. masses --      7.7427                 8.0146                 8.0294
 Frc consts  --      0.7196                 0.7712                 0.7727
 IR Inten    --      0.3029                10.0632                10.0869

                     19                     20                     21
                      A                      A                      A
 Frequencies --    420.6863               420.7663               424.7169
 Red. masses --      3.2772                 3.2823                 3.1335
 Frc consts  --      0.3417                 0.3424                 0.3330
 IR Inten    --      1.0919                 1.1417                 0.0216

                     22                     23                     24
                      A                      A                      A
 Frequencies --    435.0061               435.1602               463.4752
 Red. masses --      6.1459                 6.1549                 6.6387
 Frc consts  --      0.6852                 0.6867                 0.8402
 IR Inten    --     18.9947                19.0527                 7.3755

                     25                     26                     27
                      A                      A                      A
 Frequencies --    533.0312               533.1845               535.6119
 Red. masses --      2.8101                 2.8111                 2.9073
 Frc consts  --      0.4704                 0.4709                 0.4914
 IR Inten    --     21.8840                21.8170                13.4914

                     28                     29                     30
                      A                      A                      A
 Frequencies --    608.0471               630.0033               630.0158
 Red. masses --      7.9094                 7.8307                 7.8306
 Frc consts  --      1.7229                 1.8312                 1.8312
 IR Inten    --      0.0089                 0.0380                 0.0388

                     31                     32                     33
                      A                      A                      A
 Frequencies --    648.2257               648.3825               648.4262
 Red. masses --      7.2772                 7.3794                 7.3786
 Frc consts  --      1.8016                 1.8278                 1.8279
 IR Inten    --      0.0055                 0.1270                 0.1269

                     34                     35                     36
                      A                      A                      A
 Frequencies --    715.1991               715.6777               715.7520
 Red. masses --      4.8114                 4.8259                 4.8299
 Frc consts  --      1.4500                 1.4564                 1.4579
 IR Inten    --      1.0211                 3.9636                 3.9774

                     37                     38                     39
                      A                      A                      A
 Frequencies --    835.7348               835.8212               836.8772
 Red. masses --      1.2621                 1.2628                 1.3271
 Frc consts  --      0.5194                 0.5198                 0.5476
 IR Inten    --      0.5524                 0.5061                11.2410

                     40                     41                     42
                      A                      A                      A
 Frequencies --    839.5415               839.5517               839.7743
 Red. masses --      3.2306                 3.3296                 3.9944
 Frc consts  --      1.3416                 1.3827                 1.6597
 IR Inten    --     62.4817                59.7206                19.6366

                     43                     44                     45
                      A                      A                      A
 Frequencies --    843.6419               843.7221               844.0139
 Red. masses --      1.9828                 1.9932                 1.6748
 Frc consts  --      0.8315                 0.8360                 0.7029
 IR Inten    --     10.1737                10.0110                12.3340

                     46                     47                     48
                      A                      A                      A
 Frequencies --    958.5547               958.6997               959.8257
 Red. masses --      1.2560                 1.2559                 1.2583
 Frc consts  --      0.6800                 0.6801                 0.6830
 IR Inten    --      0.1691                 0.1654                 0.3414

                     49                     50                     51
                      A                      A                      A
 Frequencies --    969.7811               969.9622               973.2969
 Red. masses --      1.3359                 1.3352                 1.3202
 Frc consts  --      0.7402                 0.7401                 0.7369
 IR Inten    --      0.0311                 0.0324                 0.3101

                     52                     53                     54
                      A                      A                      A
 Frequencies --   1034.7062              1034.7928              1035.2067
 Red. masses --      3.0273                 3.0299                 3.0228
 Frc consts  --      1.9096                 1.9116                 1.9086
 IR Inten    --      7.9798                 7.9319                 0.1112

                     55                     56                     57
                      A                      A                      A
 Frequencies --   1102.8850              1102.9704              1108.5870
 Red. masses --      3.6660                 3.6672                 3.5542
 Frc consts  --      2.6272                 2.6286                 2.5735
 IR Inten    --     19.2610                19.2381                 1.9372

                     58                     59                     60
                      A                      A                      A
 Frequencies --   1127.5086              1127.6832              1127.9030
 Red. masses --      1.3306                 1.3305                 1.3293
 Frc consts  --      0.9966                 0.9968                 0.9964
 IR Inten    --      0.9860                 2.1509                 5.8550

                     61                     62                     63
                      A                      A                      A
 Frequencies --   1195.1771              1195.4617              1199.3816
 Red. masses --      1.1833                 1.1844                 1.1796
 Frc consts  --      0.9959                 0.9973                 0.9998
 IR Inten    --     60.5305                60.7687                 2.5270

                     64                     65                     66
                      A                      A                      A
 Frequencies --   1285.2954              1285.4121              1286.1616
 Red. masses --      3.7557                 3.7503                 3.7893
 Frc consts  --      3.6555                 3.6509                 3.6932
 IR Inten    --    167.4675               166.4428                38.9654

                     67                     68                     69
                      A                      A                      A
 Frequencies --   1324.1199              1327.3422              1327.5833
 Red. masses --      2.7205                 2.2107                 2.2756
 Frc consts  --      2.8103                 2.2949                 2.3630
 IR Inten    --      8.9008                 3.9175                 3.8391

                     70                     71                     72
                      A                      A                      A
 Frequencies --   1336.6924              1336.8451              1337.1439
 Red. masses --      2.3421                 2.2295                 1.9827
 Frc consts  --      2.4656                 2.3476                 2.0886
 IR Inten    --      0.3435                 0.4452                 0.8027

                     73                     74                     75
                      A                      A                      A
 Frequencies --   1437.9482              1438.0816              1438.2223
 Red. masses --      2.9851                 2.9943                 2.9903
 Frc consts  --      3.6367                 3.6485                 3.6443
 IR Inten    --      7.1848                 2.5470                 2.3838

                     76                     77                     78
                      A                      A                      A
 Frequencies --   1545.5631              1545.7184              1546.5508
 Red. masses --      2.4088                 2.4063                 2.4450
 Frc consts  --      3.3902                 3.3874                 3.4456
 IR Inten    --    116.4847               116.2267                24.4993

                     79                     80                     81
                      A                      A                      A
 Frequencies --   1633.9491              1634.0090              1634.0357
 Red. masses --      6.9699                 6.9658                 6.9582
 Frc consts  --     10.9637                10.9579                10.9464
 IR Inten    --     10.3173                12.8129                11.6357

                     82                     83                     84
                      A                      A                      A
 Frequencies --   1653.5398              1653.5808              1654.4181
 Red. masses --      5.8094                 5.8061                 5.8781
 Frc consts  --      9.3587                 9.3537                 9.4794
 IR Inten    --     82.8154                82.6545                22.5189

                     85                     86                     87
                      A                      A                      A
 Frequencies --   3188.8004              3188.8507              3188.8955
 Red. masses --      1.0892                 1.0892                 1.0892
 Frc consts  --      6.5257                 6.5256                 6.5257
 IR Inten    --      6.4371                 3.9020                 3.0617

                     88                     89                     90
                      A                      A                      A
 Frequencies --   3205.5752              3205.8595              3206.4625
 Red. masses --      1.0878                 1.0878                 1.0879
 Frc consts  --      6.5861                 6.5870                 6.5899
 IR Inten    --      1.9421                 1.9528                 0.4868

                     91                     92                     93
                      A                      A                      A
 Frequencies --   3221.8458              3221.9693              3222.1849
 Red. masses --      1.0942                 1.0942                 1.0941
 Frc consts  --      6.6920                 6.6924                 6.6925
 IR Inten    --      3.6619                 3.6794                10.9189

                     94                     95                     96
                      A                      A                      A
 Frequencies --   3222.6150              3222.6638              3222.8845
 Red. masses --      1.0936                 1.0936                 1.0939
 Frc consts  --      6.6918                 6.6920                 6.6946
 IR Inten    --     12.0716                12.0181                 0.4626

 - Thermochemistry -
 -------------------
 Temperature   298.150 Kelvin.  Pressure   1.00000 Atm.
 Atom     1 has atomic number  6 and mass  12.00000

 Molecular mass:   316.06287 amu.
 Principal axes and moments of inertia in atomic units:
                           1         2         3
     Eigenvalues --  8316.929068319.67459**********
           X            0.99954  -0.03022  -0.00000
           Y            0.03022   0.99954   0.00001
           Z            0.00000  -0.00001   1.00000
 This molecule is an asymmetric top.
 Rotational symmetry number  1.
 Warning -- assumption of classical behavior for rotation
           may cause significant error
 Rotational temperatures (Kelvin)      0.01041     0.01041     0.00597
 Rotational constants (GHZ):           0.21700     0.21692     0.12430
 Zero-point vibrational energy     655286.6 (Joules/Mol)
                                  156.61725 (Kcal/Mol)
 Warning -- explicit consideration of  28 degrees of freedom as
           vibrations may cause significant error
 Vibrational temperatures:     34.45    36.14    54.00    54.29    58.28
          (Kelvin)             72.88   191.28   209.25   209.60   300.66
                              314.88   315.43   443.05   483.51   483.56
                              571.43   581.43   581.46   605.27   605.39
                              611.07   625.88   626.10   666.84   766.91
                              767.13   770.63   874.84   906.43   906.45
                              932.65   932.88   932.94  1029.01  1029.70
                             1029.81  1202.44  1202.56  1204.08  1207.91
                             1207.93  1208.25  1213.81  1213.93  1214.35
                             1379.15  1379.36  1380.98  1395.30  1395.56
                             1400.36  1488.71  1488.84  1489.43  1586.81
                             1586.93  1595.01  1622.23  1622.48  1622.80
                             1719.59  1720.00  1725.64  1849.25  1849.42
                             1850.50  1905.11  1909.75  1910.10  1923.20
                             1923.42  1923.85  2068.89  2069.08  2069.28
                             2223.72  2223.94  2225.14  2350.89  2350.97
                             2351.01  2379.07  2379.13  2380.34  4587.97
                             4588.04  4588.11  4612.11  4612.52  4613.38
                             4635.52  4635.70  4636.01  4636.62  4636.69
                             4637.01

 Zero-point correction=                           0.249585 (Hartree/Particle)
 Thermal correction to Energy=                    0.268013
 Thermal correction to Enthalpy=                  0.268957
 Thermal correction to Gibbs Free Energy=         0.199557
 Sum of electronic and zero-point Energies=          -1333.749393
 Sum of electronic and thermal Energies=             -1333.730965
 Sum of electronic and thermal Enthalpies=           -1333.730021
 Sum of electronic and thermal Free Energies=        -1333.799421

                     E (Thermal)             CV                S
                      KCal/Mol        Cal/Mol-Kelvin    Cal/Mol-Kelvin
 Total                  168.181             71.396            146.065
 Electronic               0.000              0.000              0.000
 Translational            0.889              2.981             43.148
 Rotational               0.889              2.981             35.262
 Vibrational            166.403             65.434             67.655
 Vibration     1          0.593              1.985              6.277
 Vibration     2          0.593              1.985              6.182
 Vibration     3          0.594              1.982              5.385
 Vibration     4          0.594              1.982              5.375
 Vibration     5          0.594              1.981              5.234
 Vibration     6          0.595              1.977              4.792
 Vibration     7          0.613              1.920              2.903
 Vibration     8          0.617              1.908              2.731
 Vibration     9          0.617              1.907              2.728
 Vibration    10          0.642              1.827              2.053
 Vibration    11          0.647              1.812              1.969
 Vibration    12          0.647              1.812              1.965
 Vibration    13          0.698              1.659              1.373
 Vibration    14          0.717              1.603              1.231
 Vibration    15          0.717              1.603              1.231
 Vibration    16          0.764              1.476              0.973
 Vibration    17          0.769              1.461              0.948
 Vibration    18          0.769              1.461              0.948
 Vibration    19          0.783              1.425              0.890
 Vibration    20          0.783              1.425              0.889
 Vibration    21          0.787              1.416              0.876
 Vibration    22          0.796              1.394              0.842
 Vibration    23          0.796              1.394              0.842
 Vibration    24          0.821              1.331              0.756
 Vibration    25          0.888              1.177              0.580
 Vibration    26          0.888              1.177              0.580
 Vibration    27          0.891              1.171              0.575
 Vibration    28          0.967              1.015              0.436

                           ! Non-Optimized Parameters !
 Normal termination of Gaussian 16 at Sun Aug 23 17:21:05 2020.
 Gaussian 16:  ES64L-G16RevA.03 25-Dec-2016

 ----------------------------------------------------------------------
 # TD(NStates=10, Root=1) B3LYP/6-31G* scf=qc volume pop=NPA density=cu
 rrent Geom=AllCheck Guess=Read
 ----------------------------------------------------------------------

 Structure from the checkpoint file:  "phosphine_5_conf13.chk"
 -------------------
 Title Card Required
 -------------------
 Charge =  0 Multiplicity = 1

                         Standard orientation:
 ---------------------------------------------------------------------
 Center     Atomic      Atomic             Coordinates (Angstroms)
 Number     Number       Type             X           Y           Z
 ---------------------------------------------------------------------
      1          6           0       -1.628433    2.927417   -1.130494
      2          6           0       -1.267731    1.686181   -0.604296
      3          6           0       -0.506864    1.590548    0.571721
      4          6           0       -0.123921    2.779515    1.216883
      5          6           0       -0.465303    4.027676    0.699300
      6          6           0       -1.216374    4.078601   -0.469808
      7          9           0       -1.561577    5.281218   -0.973332
      8         15           0        0.000163   -0.000221    1.374749
      9          6           0       -1.124204   -1.234543    0.571717
     10          6           0       -0.825540   -1.943780   -0.602524
     11          6           0       -1.720496   -2.876546   -1.128529
     12          6           0       -2.924868   -3.092535   -0.469488
     13          6           0       -3.257380   -2.414093    0.697849
     14          6           0       -2.346783   -1.494656    1.215307
     15          9           0       -3.794086   -3.992572   -0.972871
     16          6           0        1.631416   -0.356401    0.571811
     17          6           0        2.095390    0.255957   -0.603281
     18          6           0        3.350742   -0.052202   -1.129373
     19          6           0        4.141012   -0.985791   -0.469515
     20          6           0        3.720675   -1.611988    0.698690
     21          6           0        2.468982   -1.283651    1.216190
     22          9           0        5.355164   -1.288072   -0.972955
     23          1           0       -2.219552    3.011738   -2.036819
     24          1           0       -1.589812    0.784269   -1.115572
     25          1           0        0.446394    2.729204    2.141205
     26          1           0       -0.171410    4.949821    1.190039
     27          1           0        0.117641   -1.773999   -1.112594
     28          1           0       -1.497175   -3.432534   -2.033491
     29          1           0       -4.204016   -2.618514    1.187381
     30          1           0       -2.589235   -0.973612    2.138286
     31          1           0        1.475905    0.986789   -1.113877
     32          1           0        3.719875    0.418498   -2.034988
     33          1           0        4.371846   -2.328431    1.188824
     34          1           0        2.139679   -1.753350    2.139822
 ---------------------------------------------------------------------

 SCF Done:  E(RB3LYP) =  -1333.99897861     a.u. after    1 cycles

 Excitation energies and oscillator strengths:

 Excited State   1:      Singlet-A      4.5738 eV  271.07 nm  f=0.1355  <S**2>=0.000
      81 -> 82         0.69369
 This state for optimization and/or second-order correction.
 Total Energy, E(TD-HF/TD-DFT) =  -1333.83089341
 Copying the excited state density for this state as the 1-particle RhoCI density.

 Excited State   2:      Singlet-A      4.5748 eV  271.02 nm  f=0.1360  <S**2>=0.000
      81 -> 83         0.69375

 Excited State   3:      Singlet-A      4.5859 eV  270.36 nm  f=0.0089  <S**2>=0.000
      81 -> 84         0.68926

 Excited State   4:      Singlet-A      4.9054 eV  252.75 nm  f=0.0017  <S**2>=0.000
      81 -> 85         0.67672

 Excited State   5:      Singlet-A      4.9058 eV  252.73 nm  f=0.0017  <S**2>=0.000
      81 -> 86         0.67661

 Excited State   6:      Singlet-A      5.2391 eV  236.65 nm  f=0.0075  <S**2>=0.000
      79 -> 82         0.10487
      80 -> 83         0.10519
      81 -> 87         0.67233

 Excited State   7:      Singlet-A      5.4171 eV  228.88 nm  f=0.0000  <S**2>=0.000
      75 -> 84         0.14232
      77 -> 82        -0.17395
      78 -> 83        -0.16803
      79 -> 82        -0.28099
      79 -> 83        -0.29491
      79 -> 85        -0.15347
      80 -> 82         0.29493
      80 -> 83        -0.27947
      80 -> 86        -0.14957

 Excited State   8:      Singlet-A      5.4453 eV  227.69 nm  f=0.0020  <S**2>=0.000
      76 -> 82         0.20761
      77 -> 83        -0.18004
      77 -> 87        -0.11495
      78 -> 82        -0.18057
      79 -> 84         0.27873
      79 -> 86        -0.12978
      80 -> 84         0.41724
      80 -> 85        -0.13022
      81 -> 85        -0.11237

 Excited State   9:      Singlet-A      5.4456 eV  227.68 nm  f=0.0021  <S**2>=0.000
      76 -> 83        -0.20681
      77 -> 82         0.17613
      78 -> 83        -0.18268
      78 -> 87         0.11493
      79 -> 84         0.41544
      79 -> 85         0.12794
      80 -> 84        -0.28098
      80 -> 86        -0.13275
      81 -> 86         0.11261

 Excited State  10:      Singlet-A      5.6625 eV  218.96 nm  f=0.0007  <S**2>=0.000
      75 -> 84        -0.16551
      76 -> 84        -0.10265
      77 -> 82         0.24236
      78 -> 83         0.23812
      79 -> 83        -0.26635
      79 -> 85         0.23617
      80 -> 82         0.30796
      80 -> 86         0.24133

 The electronic state is 1-A.
 Alpha  occ. eigenvalues --  -77.09285 -24.70933 -24.70933 -24.70931 -10.27930
 Alpha  occ. eigenvalues --  -10.27929 -10.27927 -10.20801 -10.20801 -10.20800
 Alpha  occ. eigenvalues --  -10.20701 -10.20700 -10.20699 -10.20478 -10.20478
 Alpha  occ. eigenvalues --  -10.20478 -10.20317 -10.20316 -10.20315 -10.20309
 Alpha  occ. eigenvalues --  -10.20309 -10.20308  -6.55986  -4.72248  -4.72248
 Alpha  occ. eigenvalues --   -4.71743  -1.22112  -1.22111  -1.22110  -0.87208
 Alpha  occ. eigenvalues --   -0.86555  -0.86554  -0.77803  -0.76322  -0.76285
 Alpha  occ. eigenvalues --   -0.76285  -0.74867  -0.74867  -0.65458  -0.63137
 Alpha  occ. eigenvalues --   -0.62959  -0.62958  -0.60998  -0.60997  -0.57074
 Alpha  occ. eigenvalues --   -0.54665  -0.54665  -0.54254  -0.49446  -0.49445
 Alpha  occ. eigenvalues --   -0.49381  -0.48019  -0.48018  -0.46310  -0.46309
 Alpha  occ. eigenvalues --   -0.46296  -0.45864  -0.44921  -0.44921  -0.43857
 Alpha  occ. eigenvalues --   -0.43706  -0.43705  -0.42082  -0.40157  -0.40108
 Alpha  occ. eigenvalues --   -0.40108  -0.37160  -0.37159  -0.36439  -0.34997
 Alpha  occ. eigenvalues --   -0.34997  -0.34951  -0.33923  -0.33922  -0.27233
 Alpha  occ. eigenvalues --   -0.26849  -0.26599  -0.26598  -0.25425  -0.25422
 Alpha  occ. eigenvalues --   -0.21917
 Alpha virt. eigenvalues --   -0.02511  -0.02509  -0.02414  -0.01173  -0.01171
 Alpha virt. eigenvalues --   -0.00311   0.05882   0.05888   0.08467   0.10088
 Alpha virt. eigenvalues --    0.10089   0.12848   0.13530   0.13530   0.14053

 Mulliken charges:
               1
     1  C   -0.178553
     2  C   -0.186786
     3  C   -0.110421
     4  C   -0.157643
     5  C   -0.197999
     6  C    0.350526
     7  F   -0.300682
     8  P    0.435545
     9  C   -0.077929
    10  C   -0.153491
    11  C   -0.185155
    12  C    0.391197
    13  C   -0.185214
    14  C   -0.160599
    15  F   -0.282135
    16  C   -0.121138
    17  C   -0.163837
    18  C   -0.188677
    19  C    0.351982
    20  C   -0.182521
    21  C   -0.179902
    22  F   -0.299109
    23  H    0.141558
    24  H    0.130623
    25  H    0.136042
    26  H    0.139149
    27  H    0.177596
    28  H    0.164294
    29  H    0.161223
    30  H    0.158340
    31  H    0.155924
    32  H    0.145275
    33  H    0.141293
    34  H    0.131223
 Sum of Mulliken charges =  -0.00000

 Dipole moment (field-independent basis, Debye):
    X=             -1.9216    Y=             -2.6558    Z=              1.4562  Tot=              3.5870
 Quadrupole moment (field-independent basis, Debye-Ang):
   XX=           -139.3005   YY=           -139.7285   ZZ=           -121.8311
   XY=              6.3725   XZ=             -0.2941   YZ=              0.8315

 Summary of Natural Population Analysis:

                                       Natural Population
                Natural  -----------------------------------------------
    Atom  No    Charge         Core      Valence    Rydberg      Total
 -----------------------------------------------------------------------
      C    1   -0.28453      1.99899     4.27073    0.01481     6.28453
      C    2   -0.27205      1.99900     4.25449    0.01856     6.27205
      C    3   -0.45757      1.99887     4.43399    0.02471     6.45757
      C    4   -0.19087      1.99902     4.17636    0.01549     6.19087
      C    5   -0.32764      1.99899     4.31251    0.01614     6.32764
      C    6    0.38986      1.99844     3.58384    0.02786     5.61014
      F    7   -0.33576      1.99994     7.33031    0.00550     9.33576
      P    8    1.21008      9.99756     3.74080    0.05156    13.78992
      C    9   -0.38732      1.99891     4.36344    0.02497     6.38732
      C   10   -0.19906      1.99901     4.18382    0.01622     6.19906
      C   11   -0.29895      1.99898     4.28518    0.01480     6.29895
      C   12    0.45582      1.99844     3.51866    0.02709     5.54418
      C   13   -0.30507      1.99899     4.29101    0.01508     6.30507
      C   14   -0.19317      1.99903     4.17882    0.01532     6.19317
      F   15   -0.31941      1.99994     7.31388    0.00559     9.31941
      C   16   -0.47315      1.99888     4.44752    0.02674     6.47315
      C   17   -0.21888      1.99900     4.20273    0.01715     6.21888
      C   18   -0.30303      1.99899     4.28884    0.01521     6.30303
      C   19    0.39077      1.99844     3.58291    0.02788     5.60923
      C   20   -0.29827      1.99900     4.28422    0.01506     6.29827
      C   21   -0.22880      1.99903     4.21343    0.01635     6.22880
      F   22   -0.33450      1.99994     7.32903    0.00553     9.33450
      H   23    0.24899      0.00000     0.74980    0.00121     0.75101
      H   24    0.23653      0.00000     0.76206    0.00140     0.76347
      H   25    0.23653      0.00000     0.76237    0.00110     0.76347
      H   26    0.24824      0.00000     0.75058    0.00118     0.75176
      H   27    0.26260      0.00000     0.73621    0.00119     0.73740
      H   28    0.26009      0.00000     0.73874    0.00117     0.73991
      H   29    0.25826      0.00000     0.74056    0.00118     0.74174
      H   30    0.24785      0.00000     0.75094    0.00120     0.75215
      H   31    0.24998      0.00000     0.74838    0.00165     0.75002
      H   32    0.25114      0.00000     0.74766    0.00120     0.74886
      H   33    0.24840      0.00000     0.75036    0.00124     0.75160
      H   34    0.23288      0.00000     0.76622    0.00090     0.76712
 =======================================================================
   * Total *   -0.00000     51.97740   109.59037    0.43223   162.00000

 Normal termination of Gaussian 16 at Sun Aug 23 17:37:54 2020.
