 Gaussian 16, Revision A.03,

 ---------------------------------
 # opt=CalcAll B3LYP/6-31G* scf=qc
 ---------------------------------

 -------------------
 Title Card Required
 -------------------
 Symbolic Z-matrix:
 Charge =  0 Multiplicity = 1

 SCF Done:  E(RB3LYP) =  -1036.28358583     a.u. after    8 cycles
 SCF Done:  E(RB3LYP) =  -1036.29558760     a.u. after   17 cycles
 SCF Done:  E(RB3LYP) =  -1036.29705206     a.u. after   17 cycles
 SCF Done:  E(RB3LYP) =  -1036.29772479     a.u. after   15 cycles
 SCF Done:  E(RB3LYP) =  -1036.29803048     a.u. after   15 cycles
 SCF Done:  E(RB3LYP) =  -1036.29811046     a.u. after   17 cycles
 SCF Done:  E(RB3LYP) =  -1036.29813918     a.u. after   15 cycles
 SCF Done:  E(RB3LYP) =  -1036.29822741     a.u. after   11 cycles
 SCF Done:  E(RB3LYP) =  -1036.29822570     a.u. after    5 cycles
 SCF Done:  E(RB3LYP) =  -1036.29823031     a.u. after    7 cycles
 SCF Done:  E(RB3LYP) =  -1036.29823354     a.u. after    2 cycles
 SCF Done:  E(RB3LYP) =  -1036.29823860     a.u. after    2 cycles
 SCF Done:  E(RB3LYP) =  -1036.29823332     a.u. after    2 cycles
 SCF Done:  E(RB3LYP) =  -1036.29823329     a.u. after    2 cycles
 SCF Done:  E(RB3LYP) =  -1036.29823988     a.u. after    2 cycles
 SCF Done:  E(RB3LYP) =  -1036.29823325     a.u. after    2 cycles
 SCF Done:  E(RB3LYP) =  -1036.29823242     a.u. after    2 cycles
 SCF Done:  E(RB3LYP) =  -1036.29822947     a.u. after    2 cycles
 Optimization completed.
    -- Stationary point found.
 Normal termination of Gaussian 16 at Sun Aug 23 07:59:18 2020.

 ----------------------------------------------------------------------
 # freq B3LYP/6-31G* scf=qc volume NMR pop=NPA density=current Geom=All
 Check Guess=Read
 ----------------------------------------------------------------------

 Structure from the checkpoint file:  "phosphine_1_conf282.chk"
 -------------------
 Title Card Required
 -------------------
 Charge =  0 Multiplicity = 1

 SCF Done:  E(RB3LYP) =  -1036.29822947     a.u. after    1 cycles

      1  C    Isotropic =    68.1676   Anisotropy =   167.3469

      2  C    Isotropic =    68.6751   Anisotropy =   163.8841

      3  C    Isotropic =    62.5818   Anisotropy =   174.0091

      4  C    Isotropic =    56.1113   Anisotropy =   179.4125

      5  C    Isotropic =    61.0114   Anisotropy =   164.1094

      6  C    Isotropic =    68.7304   Anisotropy =   164.1463

      7  P    Isotropic =   361.4396   Anisotropy =    39.7648

      8  C    Isotropic =    56.1263   Anisotropy =   179.4241

      9  C    Isotropic =    62.5930   Anisotropy =   174.0463

     10  C    Isotropic =    68.6774   Anisotropy =   163.8927

     11  C    Isotropic =    68.1683   Anisotropy =   167.3191

     12  C    Isotropic =    68.7344   Anisotropy =   164.1198

     13  C    Isotropic =    61.0189   Anisotropy =   164.1176

     14  C    Isotropic =    56.1138   Anisotropy =   179.4105

     15  C    Isotropic =    61.0019   Anisotropy =   164.0845

     16  C    Isotropic =    68.7393   Anisotropy =   164.1539

     17  C    Isotropic =    68.1779   Anisotropy =   167.3725

     18  C    Isotropic =    68.6732   Anisotropy =   163.8802

     19  C    Isotropic =    62.5637   Anisotropy =   174.0263

     20  H    Isotropic =    25.0188   Anisotropy =     3.6465

     21  H    Isotropic =    25.0484   Anisotropy =     6.0853

     22  H    Isotropic =    25.4036   Anisotropy =    12.2189

     23  H    Isotropic =    24.6136   Anisotropy =     9.2510

     24  H    Isotropic =    24.9255   Anisotropy =     4.5914

     25  H    Isotropic =    25.4024   Anisotropy =    12.2257

     26  H    Isotropic =    25.0478   Anisotropy =     6.0861

     27  H    Isotropic =    25.0214   Anisotropy =     3.6412

     28  H    Isotropic =    24.9286   Anisotropy =     4.5869

     29  H    Isotropic =    24.6134   Anisotropy =     9.2526

     30  H    Isotropic =    24.6150   Anisotropy =     9.2463

     31  H    Isotropic =    24.9256   Anisotropy =     4.5895

     32  H    Isotropic =    25.0173   Anisotropy =     3.6457

     33  H    Isotropic =    25.0479   Anisotropy =     6.0857

     34  H    Isotropic =    25.4007   Anisotropy =    12.2216

  Exact polarizability: 224.126   0.016 224.131   0.016  -0.006 165.065
 Approx polarizability: 330.869   0.039 330.881   0.038  -0.011 308.081

                      1                      2                      3
                      A                      A                      A
 Frequencies --     21.2359                22.2764                37.4403
 Red. masses --      3.7933                 3.7974                 3.6885
 Frc consts  --      0.0010                 0.0011                 0.0030
 IR Inten    --      0.2825                 0.2836                 0.0014

                      4                      5                      6
                      A                      A                      A
 Frequencies --     53.1886                53.2227                70.5193
 Red. masses --      5.2572                 5.2519                 5.1676
 Frc consts  --      0.0088                 0.0088                 0.0151
 IR Inten    --      0.0838                 0.0839                 0.3092

                      7                      8                      9
                      A                      A                      A
 Frequencies --    181.4744               202.3836               202.6378
 Red. masses --      4.5596                 4.6409                 4.6418
 Frc consts  --      0.0885                 0.1120                 0.1123
 IR Inten    --      0.3531                 1.1360                 1.1376

                     10                     11                     12
                      A                      A                      A
 Frequencies --    245.5357               259.7282               259.9337
 Red. masses --      5.7395                 4.7206                 4.7222
 Frc consts  --      0.2039                 0.1876                 0.1880
 IR Inten    --      0.4832                 0.2255                 0.2221

                     13                     14                     15
                      A                      A                      A
 Frequencies --    408.7548               408.8647               412.3527
 Red. masses --      3.0768                 3.0791                 3.5911
 Frc consts  --      0.3029                 0.3033                 0.3598
 IR Inten    --      1.9502                 1.9706                 0.1599

                     16                     17                     18
                      A                      A                      A
 Frequencies --    417.0149               429.4381               429.4688
 Red. masses --      4.6178                 7.3148                 7.3072
 Frc consts  --      0.4731                 0.7948                 0.7941
 IR Inten    --      0.5616                 7.7036                 7.6922

                     19                     20                     21
                      A                      A                      A
 Frequencies --    509.4500               509.4878               516.2547
 Red. masses --      4.2467                 4.2469                 4.5884
 Frc consts  --      0.6494                 0.6495                 0.7205
 IR Inten    --     26.1346                26.1128                11.9762

                     22                     23                     24
                      A                      A                      A
 Frequencies --    632.7183               632.7281               633.3542
 Red. masses --      6.4269                 6.4271                 6.4367
 Frc consts  --      1.5159                 1.5160                 1.5213
 IR Inten    --      0.1804                 0.1809                 0.0160

                     25                     26                     27
                      A                      A                      A
 Frequencies --    691.8591               705.1234               705.1939
 Red. masses --      6.5806                 5.6923                 5.7438
 Frc consts  --      1.8559                 1.6675                 1.6829
 IR Inten    --      0.7685                 1.2082                 1.1732

                     28                     29                     30
                      A                      A                      A
 Frequencies --    712.1771               712.2860               713.1864
 Red. masses --      2.1991                 2.1980                 2.1316
 Frc consts  --      0.6572                 0.6570                 0.6388
 IR Inten    --     26.4138                26.3772                16.5891

                     31                     32                     33
                      A                      A                      A
 Frequencies --    761.3747               762.8469               762.8893
 Red. masses --      1.6163                 1.6505                 1.6492
 Frc consts  --      0.5520                 0.5659                 0.5655
 IR Inten    --     19.1755                24.8810                24.8910

                     34                     35                     36
                      A                      A                      A
 Frequencies --    866.0452               866.2030               868.6484
 Red. masses --      1.2478                 1.2477                 1.2463
 Frc consts  --      0.5514                 0.5516                 0.5540
 IR Inten    --      0.2285                 0.2218                 0.1345

                     37                     38                     39
                      A                      A                      A
 Frequencies --    932.7453               932.9459               934.1274
 Red. masses --      1.3446                 1.3441                 1.3388
 Frc consts  --      0.6892                 0.6893                 0.6883
 IR Inten    --      1.2639                 1.2693                 0.0264

                     40                     41                     42
                      A                      A                      A
 Frequencies --    975.6850               975.8433               977.5421
 Red. masses --      1.3615                 1.3612                 1.3558
 Frc consts  --      0.7636                 0.7637                 0.7633
 IR Inten    --      0.0158                 0.0163                 0.1429

                     43                     44                     45
                      A                      A                      A
 Frequencies --   1000.2945              1000.3775              1001.0512
 Red. masses --      1.2545                 1.2543                 1.2527
 Frc consts  --      0.7396                 0.7395                 0.7396
 IR Inten    --      0.0780                 0.0809                 0.0001

                     46                     47                     48
                      A                      A                      A
 Frequencies --   1015.3588              1015.3645              1015.7504
 Red. masses --      6.3109                 6.3111                 6.3085
 Frc consts  --      3.8334                 3.8335                 3.8348
 IR Inten    --      4.3575                 4.3651                 0.0440

                     49                     50                     51
                      A                      A                      A
 Frequencies --   1052.6906              1052.7461              1052.9160
 Red. masses --      3.3071                 3.3143                 3.2522
 Frc consts  --      2.1592                 2.1642                 2.1243
 IR Inten    --      2.1090                 2.0822                 0.0483

                     52                     53                     54
                      A                      A                      A
 Frequencies --   1107.7950              1108.0107              1109.4652
 Red. masses --      1.8852                 1.8706                 1.6544
 Frc consts  --      1.3631                 1.3530                 1.1998
 IR Inten    --      4.2765                 3.9994                 2.8679

                     55                     56                     57
                      A                      A                      A
 Frequencies --   1110.7215              1110.8002              1116.1692
 Red. masses --      2.1884                 2.2083                 2.6143
 Frc consts  --      1.5907                 1.6054                 1.9190
 IR Inten    --      9.3905                 9.6128                 1.2547

                     58                     59                     60
                      A                      A                      A
 Frequencies --   1193.4634              1193.8603              1193.9169
 Red. masses --      1.1033                 1.1000                 1.1000
 Frc consts  --      0.9259                 0.9237                 0.9238
 IR Inten    --      0.0017                 0.1312                 0.1281

                     61                     62                     63
                      A                      A                      A
 Frequencies --   1219.0899              1219.4050              1220.8466
 Red. masses --      1.1475                 1.1477                 1.1473
 Frc consts  --      1.0048                 1.0055                 1.0075
 IR Inten    --      6.0405                 6.0242                 0.3824

                     64                     65                     66
                      A                      A                      A
 Frequencies --   1324.9811              1328.6500              1328.7665
 Red. masses --      3.4909                 3.4710                 3.5023
 Frc consts  --      3.6108                 3.6101                 3.6433
 IR Inten    --      2.6341                 2.4345                 2.4431

                     67                     68                     69
                      A                      A                      A
 Frequencies --   1364.9655              1365.2620              1365.6105
 Red. masses --      1.6613                 1.6541                 1.6424
 Frc consts  --      1.8236                 1.8166                 1.8046
 IR Inten    --      0.2836                 0.4237                 2.6781

                     70                     71                     72
                      A                      A                      A
 Frequencies --   1480.4772              1480.9388              1480.9613
 Red. masses --      2.1108                 2.1158                 2.1156
 Frc consts  --      2.7259                 2.7340                 2.7339
 IR Inten    --     16.6716                 6.5711                 6.5911

                     73                     74                     75
                      A                      A                      A
 Frequencies --   1531.0207              1531.4610              1531.6227
 Red. masses --      2.0152                 1.9995                 1.9979
 Frc consts  --      2.7831                 2.7630                 2.7614
 IR Inten    --      2.1250                10.0030                10.1516

                     76                     77                     78
                      A                      A                      A
 Frequencies --   1630.1404              1630.4150              1630.4345
 Red. masses --      5.1008                 5.1150                 5.1119
 Frc consts  --      7.9862                 8.0111                 8.0065
 IR Inten    --      0.3987                 0.0444                 0.0449

                     79                     80                     81
                      A                      A                      A
 Frequencies --   1646.1161              1646.1734              1647.9399
 Red. masses --      5.2732                 5.2704                 5.2835
 Frc consts  --      8.4188                 8.4148                 8.4538
 IR Inten    --      3.4988                 3.5188                 0.3207

                     82                     83                     84
                      A                      A                      A
 Frequencies --   3176.0183              3176.0453              3176.1173
 Red. masses --      1.0854                 1.0854                 1.0853
 Frc consts  --      6.4504                 6.4505                 6.4507
 IR Inten    --      2.1443                 1.9390                 1.9275

                     85                     86                     87
                      A                      A                      A
 Frequencies --   3182.5624              3182.6018              3182.7129
 Red. masses --      1.0875                 1.0875                 1.0876
 Frc consts  --      6.4897                 6.4901                 6.4908
 IR Inten    --      0.7801                 0.5596                 0.3453

                     88                     89                     90
                      A                      A                      A
 Frequencies --   3192.7568              3192.8044              3192.9275
 Red. masses --      1.0916                 1.0916                 1.0917
 Frc consts  --      6.5563                 6.5565                 6.5576
 IR Inten    --     10.8023                12.0704                45.0404

                     91                     92                     93
                      A                      A                      A
 Frequencies --   3203.7863              3203.8527              3204.2256
 Red. masses --      1.0941                 1.0941                 1.0942
 Frc consts  --      6.6164                 6.6168                 6.6190
 IR Inten    --     40.7048                41.1818                 4.8971

                     94                     95                     96
                      A                      A                      A
 Frequencies --   3209.9167              3210.0104              3210.8720
 Red. masses --      1.0958                 1.0957                 1.0957
 Frc consts  --      6.6520                 6.6520                 6.6554
 IR Inten    --     20.6242                20.2448                16.2588

 - Thermochemistry -
 -------------------
 Temperature   298.150 Kelvin.  Pressure   1.00000 Atm.
 Atom     1 has atomic number  6 and mass  12.00000

 Molecular mass:   262.09114 amu.
 Principal axes and moments of inertia in atomic units:
                           1         2         3
     Eigenvalues --  5163.205385163.395958681.18433
           X            0.99514   0.09847   0.00000
           Y           -0.09847   0.99514  -0.00000
           Z           -0.00000   0.00000   1.00000
 This molecule is an asymmetric top.
 Rotational symmetry number  1.
 Warning -- assumption of classical behavior for rotation
           may cause significant error
 Rotational temperatures (Kelvin)      0.01678     0.01677     0.00998
 Rotational constants (GHZ):           0.34954     0.34953     0.20789
 Zero-point vibrational energy     719909.2 (Joules/Mol)
                                  172.06244 (Kcal/Mol)
 Warning -- explicit consideration of  21 degrees of freedom as
           vibrations may cause significant error
 Vibrational temperatures:     30.55    32.05    53.87    76.53    76.58
          (Kelvin)            101.46   261.10   291.18   291.55   353.27
                              373.69   373.99   588.11   588.27   593.28
                              599.99   617.87   617.91   732.98   733.04
                              742.78   910.34   910.35   911.26   995.43
                             1014.52  1014.62  1024.66  1024.82  1026.12
                             1095.45  1097.57  1097.63  1246.05  1246.27
                             1249.79  1342.01  1342.30  1344.00  1403.79
                             1404.02  1406.47  1439.20  1439.32  1440.29
                             1460.87  1460.88  1461.44  1514.59  1514.67
                             1514.91  1593.87  1594.18  1596.27  1598.08
                             1598.19  1605.92  1717.13  1717.70  1717.78
                             1754.00  1754.45  1756.53  1906.35  1911.63
                             1911.80  1963.88  1964.31  1964.81  2130.08
                             2130.74  2130.77  2202.80  2203.43  2203.66
                             2345.41  2345.80  2345.83  2368.39  2368.48
                             2371.02  4569.58  4569.62  4569.72  4579.00
                             4579.05  4579.21  4593.66  4593.73  4593.91
                             4609.53  4609.63  4610.17  4618.35  4618.49
                             4619.73

 Zero-point correction=                           0.274199 (Hartree/Particle)
 Thermal correction to Energy=                    0.290131
 Thermal correction to Enthalpy=                  0.291075
 Thermal correction to Gibbs Free Energy=         0.227584
 Sum of electronic and zero-point Energies=          -1036.024031
 Sum of electronic and thermal Energies=             -1036.008099
 Sum of electronic and thermal Enthalpies=           -1036.007154
 Sum of electronic and thermal Free Energies=        -1036.070645

                     E (Thermal)             CV                S
                      KCal/Mol        Cal/Mol-Kelvin    Cal/Mol-Kelvin
 Total                  182.060             62.542            133.627
 Electronic               0.000              0.000              0.000
 Translational            0.889              2.981             42.590
 Rotational               0.889              2.981             33.803
 Vibrational            180.282             56.580             57.234
 Vibration     1          0.593              1.985              6.515
 Vibration     2          0.593              1.985              6.420
 Vibration     3          0.594              1.982              5.390
 Vibration     4          0.596              1.976              4.695
 Vibration     5          0.596              1.976              4.694
 Vibration     6          0.598              1.968              4.139
 Vibration     7          0.630              1.865              2.313
 Vibration     8          0.639              1.837              2.111
 Vibration     9          0.639              1.836              2.109
 Vibration    10          0.660              1.770              1.762
 Vibration    11          0.668              1.746              1.664
 Vibration    12          0.668              1.746              1.662
 Vibration    13          0.773              1.451              0.931
 Vibration    14          0.773              1.451              0.931
 Vibration    15          0.776              1.443              0.918
 Vibration    16          0.780              1.433              0.902
 Vibration    17          0.791              1.406              0.860
 Vibration    18          0.791              1.406              0.860
 Vibration    19          0.865              1.229              0.635
 Vibration    20          0.865              1.229              0.635
 Vibration    21          0.871              1.214              0.619

                           ! Non-Optimized Parameters !
 Normal termination of Gaussian 16 at Sun Aug 23 08:11:04 2020.
 Gaussian 16:  ES64L-G16RevA.03 25-Dec-2016

 ----------------------------------------------------------------------
 # TD(NStates=10, Root=1) B3LYP/6-31G* scf=qc volume pop=NPA density=cu
 rrent Geom=AllCheck Guess=Read
 ----------------------------------------------------------------------

 Structure from the checkpoint file:  "phosphine_1_conf283.chk"
 -------------------
 Title Card Required
 -------------------
 Charge =  0 Multiplicity = 1

                         Standard orientation:
 ---------------------------------------------------------------------
 Center     Atomic      Atomic             Coordinates (Angstroms)
 Number     Number       Type             X           Y           Z
 ---------------------------------------------------------------------
      1          6           0       -0.666547    4.228383    0.651558
      2          6           0        0.221575    3.353811    1.279587
      3          6           0        0.438519    2.076150    0.758865
      4          6           0       -0.227410    1.655237   -0.402391
      5          6           0       -1.107866    2.551001   -1.032553
      6          6           0       -1.333561    3.822722   -0.506350
      7         15           0        0.000012    0.000011   -1.206229
      8          6           0        1.547190   -0.630711   -0.402376
      9          6           0        1.578807   -1.418330    0.758556
     10          6           0        2.793812   -1.869375    1.279097
     11          6           0        3.995251   -1.537191    0.651201
     12          6           0        3.977386   -0.756254   -0.506395
     13          6           0        2.763152   -0.315739   -1.032401
     14          6           0       -1.319887   -1.024463   -0.402509
     15          6           0       -1.656140   -2.234374   -1.033162
     16          6           0       -2.644608   -3.065674   -0.506862
     17          6           0       -3.328614   -2.691281    0.651657
     18          6           0       -3.014548   -1.485292    1.280187
     19          6           0       -2.016579   -0.658617    0.759348
     20          1           0       -0.833149    5.222596    1.057855
     21          1           0        0.747836    3.664781    2.178645
     22          1           0        1.132463    1.405460    1.256564
     23          1           0       -1.616203    2.249463   -1.945673
     24          1           0       -2.021216    4.500226   -1.005993
     25          1           0        0.651044   -1.684261    1.256175
     26          1           0        2.800046   -2.480957    2.177921
     27          1           0        4.939590   -1.890112    1.057356
     28          1           0        4.907918   -0.499212   -1.005959
     29          1           0        2.756109    0.275567   -1.945326
     30          1           0       -1.141447   -2.523462   -1.946746
     31          1           0       -2.888109   -3.999601   -1.006873
     32          1           0       -4.106287   -3.332645    1.058069
     33          1           0       -3.546365   -1.185380    2.179733
     34          1           0       -1.782018    0.277366    1.257341
 ---------------------------------------------------------------------

 SCF Done:  E(RB3LYP) =  -1036.29822947     a.u. after    1 cycles

 Excitation energies and oscillator strengths:

 Excited State   1:      Singlet-A      4.5100 eV  274.91 nm  f=0.1278  <S**2>=0.000
      69 -> 70         0.69566
 This state for optimization and/or second-order correction.
 Total Energy, E(TD-HF/TD-DFT) =  -1036.13249056
 Copying the excited state density for this state as the 1-particle RhoCI density.

 Excited State   2:      Singlet-A      4.5105 eV  274.88 nm  f=0.1280  <S**2>=0.000
      69 -> 71         0.69565

 Excited State   3:      Singlet-A      4.7571 eV  260.63 nm  f=0.0022  <S**2>=0.000
      67 -> 70        -0.12450
      68 -> 71         0.12458
      69 -> 72         0.67466

 Excited State   4:      Singlet-A      5.0578 eV  245.14 nm  f=0.0002  <S**2>=0.000
      66 -> 70         0.15671
      67 -> 70        -0.13453
      68 -> 71        -0.13455
      69 -> 74         0.62813

 Excited State   5:      Singlet-A      5.0579 eV  245.13 nm  f=0.0002  <S**2>=0.000
      66 -> 71         0.15686
      67 -> 71         0.13471
      68 -> 70        -0.13469
      69 -> 75         0.62801

 Excited State   6:      Singlet-A      5.1509 eV  240.70 nm  f=0.0085  <S**2>=0.000
      69 -> 73         0.67916

 Excited State   7:      Singlet-A      5.4274 eV  228.44 nm  f=0.0147  <S**2>=0.000
      63 -> 72         0.16613
      64 -> 74         0.14208
      65 -> 75         0.14160
      67 -> 70         0.41567
      68 -> 71        -0.41422
      69 -> 72         0.16520

 Excited State   8:      Singlet-A      5.5142 eV  224.84 nm  f=0.0004  <S**2>=0.000
      63 -> 74         0.14345
      64 -> 71        -0.12290
      64 -> 72         0.21862
      65 -> 70        -0.12348
      65 -> 72        -0.17926
      66 -> 70        -0.22371
      67 -> 70         0.26039
      68 -> 71         0.26272
      68 -> 72         0.16218
      69 -> 74         0.28616

 Excited State   9:      Singlet-A      5.5145 eV  224.83 nm  f=0.0004  <S**2>=0.000
      63 -> 75         0.14355
      64 -> 70        -0.12276
      64 -> 72         0.17934
      65 -> 71         0.12261
      65 -> 72         0.21863
      66 -> 71        -0.22337
      67 -> 71        -0.26126
      67 -> 72         0.16224
      68 -> 70         0.26238
      69 -> 75         0.28637

 Excited State  10:      Singlet-A      5.6181 eV  220.69 nm  f=0.0009  <S**2>=0.000
      67 -> 71         0.47943
      68 -> 70         0.48140

 The electronic state is 1-A.
 Alpha  occ. eigenvalues --  -77.08112 -10.19447 -10.19447 -10.19447 -10.19147
 Alpha  occ. eigenvalues --  -10.19146 -10.19146 -10.19117 -10.19117 -10.19116
 Alpha  occ. eigenvalues --  -10.19031 -10.19030 -10.19030 -10.19007 -10.19007
 Alpha  occ. eigenvalues --  -10.19007 -10.18962 -10.18962 -10.18961  -6.54843
 Alpha  occ. eigenvalues --   -4.71102  -4.71102  -4.70601  -0.85560  -0.84846
 Alpha  occ. eigenvalues --   -0.84845  -0.76669  -0.74366  -0.74366  -0.74329
 Alpha  occ. eigenvalues --   -0.73821  -0.73821  -0.64436  -0.60336  -0.60307
 Alpha  occ. eigenvalues --   -0.60307  -0.59207  -0.59207  -0.55448  -0.51435
 Alpha  occ. eigenvalues --   -0.51435  -0.49295  -0.45440  -0.45439  -0.44774
 Alpha  occ. eigenvalues --   -0.44344  -0.44344  -0.44068  -0.41946  -0.41868
 Alpha  occ. eigenvalues --   -0.41868  -0.40378  -0.40377  -0.36844  -0.36351
 Alpha  occ. eigenvalues --   -0.36351  -0.35898  -0.34252  -0.34251  -0.34224
 Alpha  occ. eigenvalues --   -0.31884  -0.31884  -0.26776  -0.25448  -0.25447
 Alpha  occ. eigenvalues --   -0.25242  -0.24704  -0.24704  -0.21144
 Alpha virt. eigenvalues --   -0.01880  -0.01879  -0.00829   0.00173   0.00428
 Alpha virt. eigenvalues --    0.00429   0.06883   0.06886   0.09492   0.11039
 Alpha virt. eigenvalues --    0.11039   0.13903   0.14529   0.14529   0.15165

 Mulliken charges:
               1
     1  C   -0.128586
     2  C   -0.116721
     3  C   -0.156837
     4  C   -0.083973
     5  C   -0.152189
     6  C   -0.122608
     7  P    0.450723
     8  C   -0.106201
     9  C   -0.152606
    10  C   -0.123300
    11  C   -0.138017
    12  C   -0.116603
    13  C   -0.170466
    14  C   -0.130978
    15  C   -0.169630
    16  C   -0.123845
    17  C   -0.169563
    18  C   -0.118045
    19  C   -0.176173
    20  H    0.141199
    21  H    0.142635
    22  H    0.159681
    23  H    0.147038
    24  H    0.139824
    25  H    0.169094
    26  H    0.137259
    27  H    0.132963
    28  H    0.132079
    29  H    0.133474
    30  H    0.113583
    31  H    0.112638
    32  H    0.106389
    33  H    0.115779
    34  H    0.121981
 Sum of Mulliken charges =  -0.00000

 Dipole moment (field-independent basis, Debye):
    X=              2.3602    Y=              2.9150    Z=             -0.1962  Tot=              3.7559
 Quadrupole moment (field-independent basis, Debye-Ang):
   XX=           -116.5154   YY=           -110.5540   ZZ=           -110.6607
   XY=             -6.3451   XZ=              1.2964   YZ=              0.3503

 Summary of Natural Population Analysis:

                                       Natural Population
                Natural  -----------------------------------------------
    Atom  No    Charge         Core      Valence    Rydberg      Total
 -----------------------------------------------------------------------
      C    1   -0.21266      1.99909     4.19937    0.01420     6.21266
      C    2   -0.22455      1.99909     4.21145    0.01401     6.22455
      C    3   -0.22524      1.99899     4.20967    0.01657     6.22524
      C    4   -0.38604      1.99889     4.36301    0.02413     6.38604
      C    5   -0.19736      1.99902     4.18322    0.01512     6.19736
      C    6   -0.24197      1.99910     4.22831    0.01457     6.24197
      P    7    1.24226      9.99750     3.70999    0.05025    13.75774
      C    8   -0.42614      1.99890     4.40108    0.02616     6.42614
      C    9   -0.21195      1.99899     4.19624    0.01672     6.21195
      C   10   -0.23667      1.99909     4.22316    0.01442     6.23667
      C   11   -0.23249      1.99909     4.21851    0.01489     6.23249
      C   12   -0.23194      1.99910     4.21854    0.01430     6.23194
      C   13   -0.22595      1.99902     4.21113    0.01580     6.22595
      C   14   -0.48448      1.99886     4.46041    0.02521     6.48448
      C   15   -0.23103      1.99901     4.21571    0.01631     6.23103
      C   16   -0.24668      1.99910     4.23248    0.01510     6.24668
      C   17   -0.29941      1.99910     4.28357    0.01674     6.29941
      C   18   -0.22888      1.99909     4.21521    0.01458     6.22888
      C   19   -0.26564      1.99899     4.24856    0.01810     6.26564
      H   20    0.24000      0.00000     0.75916    0.00084     0.76000
      H   21    0.24364      0.00000     0.75550    0.00087     0.75636
      H   22    0.25256      0.00000     0.74621    0.00123     0.74744
      H   23    0.24179      0.00000     0.75696    0.00125     0.75821
      H   24    0.24206      0.00000     0.75707    0.00087     0.75794
      H   25    0.25733      0.00000     0.74124    0.00143     0.74267
      H   26    0.24129      0.00000     0.75783    0.00088     0.75871
      H   27    0.23635      0.00000     0.76277    0.00089     0.76365
      H   28    0.23777      0.00000     0.76127    0.00095     0.76223
      H   29    0.23333      0.00000     0.76561    0.00106     0.76667
      H   30    0.22404      0.00000     0.77494    0.00102     0.77596
      H   31    0.22924      0.00000     0.76986    0.00090     0.77076
      H   32    0.22492      0.00000     0.77419    0.00089     0.77508
      H   33    0.23124      0.00000     0.76789    0.00088     0.76876
      H   34    0.23127      0.00000     0.76725    0.00148     0.76873
 =======================================================================
   * Total *    0.00000     45.98001    91.64739    0.37260   138.00000

 Normal termination of Gaussian 16 at Sun Aug 23 08:24:22 2020.
