 Gaussian 16, Revision A.03,

 ---------------------------------
 # opt=CalcAll B3LYP/6-31G* scf=qc
 ---------------------------------

 -------------------
 Title Card Required
 -------------------
 Symbolic Z-matrix:
 Charge =  0 Multiplicity = 1

 SCF Done:  E(RB3LYP) =  -814.897176845     a.u. after    7 cycles
 SCF Done:  E(RB3LYP) =  -814.908328725     a.u. after   15 cycles
 SCF Done:  E(RB3LYP) =  -814.910996353     a.u. after   11 cycles
 SCF Done:  E(RB3LYP) =  -814.911772786     a.u. after   11 cycles
 SCF Done:  E(RB3LYP) =  -814.911936885     a.u. after   11 cycles
 SCF Done:  E(RB3LYP) =  -814.911954500     a.u. after    7 cycles
 SCF Done:  E(RB3LYP) =  -814.911955946     a.u. after    5 cycles
 SCF Done:  E(RB3LYP) =  -814.911956431     a.u. after    3 cycles
 Optimization completed on the basis of negligible forces.
    -- Stationary point found.
 Normal termination of Gaussian 16 at Sun Aug 23 09:46:23 2020.

 ----------------------------------------------------------------------
 # freq B3LYP/6-31G* scf=qc volume NMR pop=NPA density=current Geom=All
 Check Guess=Read
 ----------------------------------------------------------------------

 Structure from the checkpoint file:  "phosphine_2_conf42.chk"
 -------------------
 Title Card Required
 -------------------
 Charge =  0 Multiplicity = 1

 SCF Done:  E(RB3LYP) =  -814.911956431     a.u. after    1 cycles

      1  C    Isotropic =   173.6586   Anisotropy =    24.2419

      2  C    Isotropic =   161.6092   Anisotropy =    23.6676

      3  C    Isotropic =   159.7203   Anisotropy =    28.9574

      4  C    Isotropic =   160.6642   Anisotropy =    33.6455

      5  H    Isotropic =    30.4412   Anisotropy =     2.9431

      6  H    Isotropic =    31.0367   Anisotropy =     6.4371

      7  P    Isotropic =   394.1800   Anisotropy =    45.0895

      8  C    Isotropic =   167.7808   Anisotropy =    25.7795

      9  H    Isotropic =    31.0454   Anisotropy =     6.8358

     10  H    Isotropic =    30.4501   Anisotropy =     6.4077

     11  C    Isotropic =   167.5187   Anisotropy =    16.2240

     12  C    Isotropic =   164.3559   Anisotropy =    16.7913

     13  C    Isotropic =   175.7831   Anisotropy =    19.1637

     14  C    Isotropic =   163.6323   Anisotropy =    27.3640

     15  H    Isotropic =    30.1690   Anisotropy =     5.0577

     16  H    Isotropic =    31.3020   Anisotropy =     6.8433

     17  C    Isotropic =   161.4629   Anisotropy =    20.3179

     18  C    Isotropic =   163.5121   Anisotropy =    17.7664

     19  C    Isotropic =   175.7069   Anisotropy =    18.4884

     20  H    Isotropic =    31.0498   Anisotropy =    10.3884

     21  H    Isotropic =    31.1967   Anisotropy =     8.0790

     22  H    Isotropic =    31.2332   Anisotropy =     7.3810

     23  H    Isotropic =    30.6978   Anisotropy =     6.4258

     24  H    Isotropic =    30.6912   Anisotropy =     5.4116

     25  H    Isotropic =    30.7456   Anisotropy =     5.9338

     26  H    Isotropic =    30.6654   Anisotropy =     5.5241

     27  H    Isotropic =    30.5227   Anisotropy =     7.8946

     28  H    Isotropic =    30.8155   Anisotropy =     5.3184

     29  H    Isotropic =    30.8239   Anisotropy =     7.1914

     30  H    Isotropic =    30.4295   Anisotropy =     8.9725

     31  H    Isotropic =    30.9353   Anisotropy =     6.0348

     32  H    Isotropic =    31.1321   Anisotropy =    10.5982

     33  H    Isotropic =    31.4829   Anisotropy =     7.7672

     34  H    Isotropic =    30.8303   Anisotropy =     4.6037

     35  H    Isotropic =    30.4924   Anisotropy =     6.8042

     36  H    Isotropic =    30.4658   Anisotropy =     9.3901

     37  H    Isotropic =    30.7649   Anisotropy =     7.5731

     38  H    Isotropic =    31.4804   Anisotropy =     7.4502

     39  H    Isotropic =    31.1405   Anisotropy =    10.4761

     40  H    Isotropic =    30.9516   Anisotropy =     5.5974

  Exact polarizability: 180.008  -1.033 153.483  -0.725   0.361 128.033
 Approx polarizability: 214.694   0.169 211.962  -1.926  -2.682 196.356

                      1                      2                      3
                      A                      A                      A
 Frequencies --     27.3869                32.6808                34.0647
 Red. masses --      3.1000                 2.3338                 2.9654
 Frc consts  --      0.0014                 0.0015                 0.0020
 IR Inten    --      0.0087                 0.0472                 0.0217

                      4                      5                      6
                      A                      A                      A
 Frequencies --     39.0824                57.9550                65.3462
 Red. masses --      2.7574                 3.0278                 1.6250
 Frc consts  --      0.0025                 0.0060                 0.0041
 IR Inten    --      0.0162                 0.0353                 0.0155

                      7                      8                      9
                      A                      A                      A
 Frequencies --    101.6178               117.4314               125.6729
 Red. masses --      2.4758                 2.2412                 2.3437
 Frc consts  --      0.0151                 0.0182                 0.0218
 IR Inten    --      0.1194                 0.0325                 0.0370

                     10                     11                     12
                      A                      A                      A
 Frequencies --    151.5376               172.9197               174.1361
 Red. masses --      1.9859                 1.9567                 1.8757
 Frc consts  --      0.0269                 0.0345                 0.0335
 IR Inten    --      0.0107                 0.1206                 0.6539

                     13                     14                     15
                      A                      A                      A
 Frequencies --    211.2929               226.2403               236.2943
 Red. masses --      1.7927                 2.2354                 2.0342
 Frc consts  --      0.0472                 0.0674                 0.0669
 IR Inten    --      0.0486                 0.2390                 0.1091

                     16                     17                     18
                      A                      A                      A
 Frequencies --    245.3948               251.1493               285.4277
 Red. masses --      1.8185                 1.3255                 1.5373
 Frc consts  --      0.0645                 0.0493                 0.0738
 IR Inten    --      0.0246                 0.0460                 0.0550

                     19                     20                     21
                      A                      A                      A
 Frequencies --    301.8588               343.7568               362.3545
 Red. masses --      1.8206                 3.4463                 3.2070
 Frc consts  --      0.0977                 0.2399                 0.2481
 IR Inten    --      0.5636                 0.2072                 0.1007

                     22                     23                     24
                      A                      A                      A
 Frequencies --    415.7793               430.8904               441.7913
 Red. masses --      2.9641                 2.6413                 2.4881
 Frc consts  --      0.3019                 0.2889                 0.2861
 IR Inten    --      1.1334                 1.4719                 2.5008

                     25                     26                     27
                      A                      A                      A
 Frequencies --    674.5898               696.1790               711.5157
 Red. masses --      2.5411                 1.6478                 1.9849
 Frc consts  --      0.6813                 0.4706                 0.5921
 IR Inten    --      0.8066                 0.0666                11.7800

                     28                     29                     30
                      A                      A                      A
 Frequencies --    732.9254               739.7019               759.5468
 Red. masses --      1.4065                 1.3010                 1.9050
 Frc consts  --      0.4451                 0.4194                 0.6475
 IR Inten    --      6.1378                 7.3182                10.7943

                     31                     32                     33
                      A                      A                      A
 Frequencies --    779.5658               792.6055               796.6751
 Red. masses --      1.2941                 1.2451                 1.4162
 Frc consts  --      0.4634                 0.4609                 0.5296
 IR Inten    --      2.6068                 1.1992                 3.4513

                     34                     35                     36
                      A                      A                      A
 Frequencies --    870.8036               877.1602               897.9276
 Red. masses --      2.5293                 2.4088                 1.3102
 Frc consts  --      1.1300                 1.0920                 0.6224
 IR Inten    --      0.3796                 0.5142                 1.4642

                     37                     38                     39
                      A                      A                      A
 Frequencies --    906.9740               928.2905               939.6514
 Red. masses --      1.8046                 1.3516                 1.3926
 Frc consts  --      0.8746                 0.6862                 0.7244
 IR Inten    --      3.4773                 5.4375                 4.2749

                     40                     41                     42
                      A                      A                      A
 Frequencies --    984.7904               985.7120              1023.4764
 Red. masses --      2.0403                 2.0003                 3.5216
 Frc consts  --      1.1658                 1.1451                 2.1734
 IR Inten    --      6.2573                 6.7430                 1.4928

                     43                     44                     45
                      A                      A                      A
 Frequencies --   1053.7553              1066.7572              1070.3940
 Red. masses --      1.2189                 2.4122                 1.4354
 Frc consts  --      0.7974                 1.6173                 0.9689
 IR Inten    --      1.8449                 0.7143                 2.8576

                     46                     47                     48
                      A                      A                      A
 Frequencies --   1075.6131              1086.0435              1093.2911
 Red. masses --      2.1507                 1.7965                 1.4506
 Frc consts  --      1.4660                 1.2485                 1.0215
 IR Inten    --      3.6009                 1.2485                 4.0337

                     49                     50                     51
                      A                      A                      A
 Frequencies --   1112.8678              1120.9829              1128.1336
 Red. masses --      1.7008                 1.7166                 1.9384
 Frc consts  --      1.2410                 1.2709                 1.4535
 IR Inten    --     10.8238                 3.9812                 1.5151

                     52                     53                     54
                      A                      A                      A
 Frequencies --   1224.6717              1228.9128              1244.4387
 Red. masses --      1.4678                 1.4793                 1.3674
 Frc consts  --      1.2970                 1.3163                 1.2476
 IR Inten    --      1.6595                 4.2215                 0.7939

                     55                     56                     57
                      A                      A                      A
 Frequencies --   1245.1919              1252.4773              1272.5011
 Red. masses --      1.4994                 1.3567                 1.3209
 Frc consts  --      1.3698                 1.2539                 1.2602
 IR Inten    --      1.0496                 3.9286                 3.0298

                     58                     59                     60
                      A                      A                      A
 Frequencies --   1316.9895              1319.1467              1322.6541
 Red. masses --      1.1898                 1.1973                 1.1937
 Frc consts  --      1.2159                 1.2275                 1.2304
 IR Inten    --      0.3754                 0.4078                 1.9117

                     61                     62                     63
                      A                      A                      A
 Frequencies --   1336.7842              1339.5182              1349.2902
 Red. masses --      1.1532                 1.1408                 1.0834
 Frc consts  --      1.2142                 1.2060                 1.1621
 IR Inten    --      1.3732                 3.6938                 0.1252

                     64                     65                     66
                      A                      A                      A
 Frequencies --   1351.0368              1389.6281              1395.5998
 Red. masses --      1.3294                 1.3968                 1.4033
 Frc consts  --      1.4297                 1.5892                 1.6104
 IR Inten    --      3.9495                 0.5159                 4.2482

                     67                     68                     69
                      A                      A                      A
 Frequencies --   1396.7965              1399.5488              1412.5742
 Red. masses --      1.3440                 1.3470                 1.5177
 Frc consts  --      1.5450                 1.5545                 1.7843
 IR Inten    --      8.7482                 7.8822                 1.8935

                     70                     71                     72
                      A                      A                      A
 Frequencies --   1440.6699              1442.0721              1442.3972
 Red. masses --      1.2421                 1.2590                 1.2607
 Frc consts  --      1.5189                 1.5426                 1.5453
 IR Inten    --      1.3240                 3.2869                 8.2068

                     73                     74                     75
                      A                      A                      A
 Frequencies --   1493.8533              1495.3534              1502.7551
 Red. masses --      1.0851                 1.0847                 1.0866
 Frc consts  --      1.4268                 1.4291                 1.4457
 IR Inten    --      4.5095                 0.6795                 6.1088

                     76                     77                     78
                      A                      A                      A
 Frequencies --   1514.1631              1516.7201              1517.3683
 Red. masses --      1.0786                 1.0698                 1.0678
 Frc consts  --      1.4570                 1.4501                 1.4485
 IR Inten    --      2.7134                 1.2440                 0.5991

                     79                     80                     81
                      A                      A                      A
 Frequencies --   1518.7222              1521.8230              1526.7080
 Red. masses --      1.0752                 1.0784                 1.0695
 Frc consts  --      1.4612                 1.4716                 1.4687
 IR Inten    --      1.2462                 0.7371                 0.4392

                     82                     83                     84
                      A                      A                      A
 Frequencies --   1529.7771              1531.8959              1533.3851
 Red. masses --      1.0411                 1.0513                 1.0577
 Frc consts  --      1.4355                 1.4536                 1.4653
 IR Inten    --      5.5436                 8.3768                 1.8780

                     85                     86                     87
                      A                      A                      A
 Frequencies --   1538.2952              1538.4893              1540.6988
 Red. masses --      1.0609                 1.0602                 1.0830
 Frc consts  --      1.4791                 1.4785                 1.5146
 IR Inten    --      3.3216                 9.4962                 3.0066

                     88                     89                     90
                      A                      A                      A
 Frequencies --   3020.4791              3021.7994              3022.4537
 Red. masses --      1.0582                 1.0608                 1.0594
 Frc consts  --      5.6884                 5.7069                 5.7023
 IR Inten    --      0.7738                 2.6655                 4.7030

                     91                     92                     93
                      A                      A                      A
 Frequencies --   3024.9732              3026.0655              3030.2872
 Red. masses --      1.0610                 1.0633                 1.0625
 Frc consts  --      5.7200                 5.7366                 5.7482
 IR Inten    --     28.0855                27.6352                16.3474

                     94                     95                     96
                      A                      A                      A
 Frequencies --   3031.0257              3033.1379              3039.4007
 Red. masses --      1.0606                 1.0608                 1.0623
 Frc consts  --      5.7407                 5.7500                 5.7818
 IR Inten    --      1.9171                44.1235                41.5758

                     97                     98                     99
                      A                      A                      A
 Frequencies --   3041.5359              3042.6194              3043.3541
 Red. masses --      1.0379                 1.0381                 1.0394
 Frc consts  --      5.6572                 5.6624                 5.6721
 IR Inten    --     40.6066                22.5975                34.6109

                    100                    101                    102
                      A                      A                      A
 Frequencies --   3044.5718              3057.7509              3058.7827
 Red. masses --      1.0984                 1.0976                 1.1011
 Frc consts  --      5.9988                 6.0462                 6.0696
 IR Inten    --      1.6981                13.5039                26.7040

                    103                    104                    105
                      A                      A                      A
 Frequencies --   3059.3941              3061.1694              3066.4895
 Red. masses --      1.0976                 1.1013                 1.0996
 Frc consts  --      6.0530                 6.0806                 6.0921
 IR Inten    --      8.5278                28.8880                 6.1713

                    106                    107                    108
                      A                      A                      A
 Frequencies --   3077.2019              3082.1562              3087.7131
 Red. masses --      1.1050                 1.1027                 1.1022
 Frc consts  --      6.1648                 6.1720                 6.1915
 IR Inten    --     26.1003                83.5276                55.0793

                    109                    110                    111
                      A                      A                      A
 Frequencies --   3106.1325              3106.3523              3106.9565
 Red. masses --      1.1013                 1.1025                 1.1016
 Frc consts  --      6.2606                 6.2678                 6.2651
 IR Inten    --     31.0717                95.5476                36.8833

                    112                    113                    114
                      A                      A                      A
 Frequencies --   3110.9301              3114.8361              3115.6698
 Red. masses --      1.1019                 1.1018                 1.1017
 Frc consts  --      6.2833                 6.2982                 6.3012
 IR Inten    --     42.3795                53.6410                47.8231

 - Thermochemistry -
 -------------------
 Temperature   298.150 Kelvin.  Pressure   1.00000 Atm.
 Atom     1 has atomic number  6 and mass  12.00000

 Molecular mass:   202.18504 amu.
 Principal axes and moments of inertia in atomic units:
                           1         2         3
     Eigenvalues --  2714.446735651.806397525.15796
           X            0.99999  -0.00090   0.00325
           Y            0.00094   0.99993  -0.01217
           Z           -0.00324   0.01217   0.99992
 This molecule is an asymmetric top.
 Rotational symmetry number  1.
 Warning -- assumption of classical behavior for rotation
           may cause significant error
 Rotational temperatures (Kelvin)      0.03191     0.01532     0.01151
 Rotational constants (GHZ):           0.66487     0.31932     0.23983
 Zero-point vibrational energy     976955.1 (Joules/Mol)
                                  233.49787 (Kcal/Mol)
 Warning -- explicit consideration of  24 degrees of freedom as
           vibrations may cause significant error
 Vibrational temperatures:     39.40    47.02    49.01    56.23    83.38
          (Kelvin)             94.02   146.21   168.96   180.82   218.03
                              248.79   250.54   304.00   325.51   339.97
                              353.07   361.35   410.67   434.31   494.59
                              521.35   598.21   619.96   635.64   970.58
                             1001.65  1023.71  1054.52  1064.27  1092.82
                             1121.62  1140.38  1146.24  1252.89  1262.04
                             1291.92  1304.93  1335.60  1351.95  1416.89
                             1418.22  1472.55  1516.12  1534.83  1540.06
                             1547.57  1562.57  1573.00  1601.17  1612.84
                             1623.13  1762.03  1768.13  1790.47  1791.55
                             1802.04  1830.85  1894.85  1897.96  1903.00
                             1923.33  1927.27  1941.33  1943.84  1999.36
                             2007.96  2009.68  2013.64  2032.38  2072.80
                             2074.82  2075.29  2149.32  2151.48  2162.13
                             2178.54  2182.22  2183.15  2185.10  2189.56
                             2196.59  2201.01  2204.06  2206.20  2213.26
                             2213.54  2216.72  4345.80  4347.70  4348.64
                             4352.26  4353.83  4359.91  4360.97  4364.01
                             4373.02  4376.09  4377.65  4378.71  4380.46
                             4399.42  4400.91  4401.79  4404.34  4411.99
                             4427.41  4434.54  4442.53  4469.03  4469.35
                             4470.22  4475.93  4481.55  4482.75

 Zero-point correction=                           0.372103 (Hartree/Particle)
 Thermal correction to Energy=                    0.390794
 Thermal correction to Enthalpy=                  0.391738
 Thermal correction to Gibbs Free Energy=         0.322792
 Sum of electronic and zero-point Energies=           -814.539854
 Sum of electronic and thermal Energies=              -814.521162
 Sum of electronic and thermal Enthalpies=            -814.520218
 Sum of electronic and thermal Free Energies=         -814.589164

                     E (Thermal)             CV                S
                      KCal/Mol        Cal/Mol-Kelvin    Cal/Mol-Kelvin
 Total                  245.227             66.307            145.109
 Electronic               0.000              0.000              0.000
 Translational            0.889              2.981             41.817
 Rotational               0.889              2.981             33.112
 Vibrational            243.450             60.345             70.181
 Vibration     1          0.593              1.984              6.010
 Vibration     2          0.594              1.983              5.660
 Vibration     3          0.594              1.983              5.577
 Vibration     4          0.594              1.981              5.305
 Vibration     5          0.596              1.974              4.526
 Vibration     6          0.597              1.971              4.289
 Vibration     7          0.604              1.948              3.423
 Vibration     8          0.608              1.935              3.142
 Vibration     9          0.611              1.927              3.011
 Vibration    10          0.619              1.901              2.653
 Vibration    11          0.626              1.876              2.404
 Vibration    12          0.627              1.874              2.390
 Vibration    13          0.643              1.824              2.032
 Vibration    14          0.650              1.801              1.909
 Vibration    15          0.655              1.785              1.831
 Vibration    16          0.660              1.770              1.763
 Vibration    17          0.663              1.761              1.722
 Vibration    18          0.683              1.701              1.501
 Vibration    19          0.694              1.670              1.407
 Vibration    20          0.723              1.588              1.195
 Vibration    21          0.736              1.550              1.112
 Vibration    22          0.779              1.436              0.906
 Vibration    23          0.792              1.403              0.856
 Vibration    24          0.802              1.379              0.821

 Optimization completed on the basis of negligible forces.
    -- Stationary point found.
 Normal termination of Gaussian 16 at Sun Aug 23 09:53:54 2020.
 Gaussian 16:  ES64L-G16RevA.03 25-Dec-2016

 ----------------------------------------------------------------------
 # TD(NStates=10, Root=1) B3LYP/6-31G* scf=qc volume pop=NPA density=cu
 rrent Geom=AllCheck Guess=Read
 ----------------------------------------------------------------------

 Structure from the checkpoint file:  "phosphine_2_conf43.chk"
 -------------------
 Title Card Required
 -------------------
 Charge =  0 Multiplicity = 1

                         Standard orientation:
 ---------------------------------------------------------------------
 Center     Atomic      Atomic             Coordinates (Angstroms)
 Number     Number       Type             X           Y           Z
 ---------------------------------------------------------------------
      1          6           0       -5.094935   -1.295289    0.327850
      2          6           0       -3.655234   -1.583788    0.765566
      3          6           0       -2.605898   -1.029939   -0.209278
      4          6           0       -1.162526   -1.313790    0.232544
      5          1           0       -0.971865   -0.864446    1.216794
      6          1           0       -1.027012   -2.397643    0.354733
      7         15           0        0.127723   -0.775914   -1.022106
      8          6           0        0.041077    1.101908   -0.904051
      9          1           0        0.838249    1.478450   -1.560364
     10          1           0       -0.896631    1.379901   -1.401629
     11          6           0        0.140532    1.779694    0.470617
     12          6           0        0.113730    3.319136    0.411895
     13          6           0       -1.213167    3.915117   -0.072324
     14          6           0        1.675759   -1.172152   -0.034271
     15          1           0        1.614244   -0.748946    0.976089
     16          1           0        1.680965   -2.265116    0.084738
     17          6           0        2.971570   -0.734049   -0.735410
     18          6           0        4.259408   -1.217172   -0.044550
     19          6           0        4.496074   -0.623771    1.349136
     20          1           0       -5.819685   -1.703681    1.041440
     21          1           0       -5.307135   -1.738130   -0.653033
     22          1           0       -5.277015   -0.216302    0.249100
     23          1           0       -3.513234   -2.668899    0.869064
     24          1           0       -3.482780   -1.157962    1.764311
     25          1           0       -2.756501    0.054018   -0.315336
     26          1           0       -2.774532   -1.459474   -1.206819
     27          1           0        1.070423    1.469962    0.964581
     28          1           0       -0.678947    1.436668    1.117212
     29          1           0        0.930568    3.669450   -0.235329
     30          1           0        0.332945    3.708846    1.415492
     31          1           0       -1.441836    3.623322   -1.103454
     32          1           0       -1.186924    5.010338   -0.040486
     33          1           0       -2.047504    3.584660    0.559465
     34          1           0        2.999466    0.362705   -0.810401
     35          1           0        2.962124   -1.109838   -1.767413
     36          1           0        5.113744   -0.966148   -0.687922
     37          1           0        4.241112   -2.314403    0.022530
     38          1           0        4.521999    0.472800    1.311597
     39          1           0        5.451625   -0.963867    1.764598
     40          1           0        3.709955   -0.912998    2.055679
 ---------------------------------------------------------------------

 SCF Done:  E(RB3LYP) =  -814.911956431     a.u. after    1 cycles

 Excitation energies and oscillator strengths:

 Excited State   1:      Singlet-A      6.5902 eV  188.14 nm  f=0.1532  <S**2>=0.000
      57 -> 58         0.69804
 This state for optimization and/or second-order correction.
 Total Energy, E(TD-HF/TD-DFT) =  -814.669772825
 Copying the excited state density for this state as the 1-particle RhoCI density.

 Excited State   2:      Singlet-A      6.7321 eV  184.17 nm  f=0.1055  <S**2>=0.000
      57 -> 59         0.68629
      57 -> 60        -0.11938

 Excited State   3:      Singlet-A      6.7881 eV  182.65 nm  f=0.0022  <S**2>=0.000
      57 -> 59         0.12187
      57 -> 60         0.69118

 Excited State   4:      Singlet-A      7.7185 eV  160.63 nm  f=0.0017  <S**2>=0.000
      57 -> 61         0.66073
      57 -> 62         0.15133
      57 -> 63         0.11655
      57 -> 65         0.12070

 Excited State   5:      Singlet-A      7.8620 eV  157.70 nm  f=0.0045  <S**2>=0.000
      57 -> 62         0.56531
      57 -> 63        -0.30825
      57 -> 64         0.23719
      57 -> 66        -0.10245

 Excited State   6:      Singlet-A      8.0173 eV  154.65 nm  f=0.0745  <S**2>=0.000
      57 -> 63         0.38437
      57 -> 64         0.57146
      57 -> 66        -0.10052

 Excited State   7:      Singlet-A      8.0432 eV  154.15 nm  f=0.0035  <S**2>=0.000
      57 -> 61        -0.20550
      57 -> 62         0.34639
      57 -> 63         0.46183
      57 -> 64        -0.30663
      57 -> 65         0.12166

 Excited State   8:      Singlet-A      8.1925 eV  151.34 nm  f=0.0108  <S**2>=0.000
      57 -> 65         0.59174
      57 -> 66         0.32214

 Excited State   9:      Singlet-A      8.3285 eV  148.87 nm  f=0.0058  <S**2>=0.000
      57 -> 62         0.12651
      57 -> 63         0.10485
      57 -> 65        -0.28401
      57 -> 66         0.59213

 Excited State  10:      Singlet-A      8.3853 eV  147.86 nm  f=0.0158  <S**2>=0.000
      55 -> 58        -0.43920
      56 -> 58        -0.17403
      56 -> 59         0.49554
      56 -> 60        -0.10377

 The electronic state is 1-A.
 Alpha  occ. eigenvalues --  -77.06291 -10.18110 -10.18058 -10.18019 -10.17982
 Alpha  occ. eigenvalues --  -10.17972 -10.17926 -10.17908 -10.17886 -10.17874
 Alpha  occ. eigenvalues --  -10.17285 -10.17211 -10.17172  -6.53068  -4.69329
 Alpha  occ. eigenvalues --   -4.69313  -4.68812  -0.80035  -0.78943  -0.78841
 Alpha  occ. eigenvalues --   -0.74182  -0.71541  -0.71202  -0.65733  -0.63775
 Alpha  occ. eigenvalues --   -0.62333  -0.57790  -0.57254  -0.56499  -0.51745
 Alpha  occ. eigenvalues --   -0.47030  -0.46466  -0.45304  -0.44414  -0.43654
 Alpha  occ. eigenvalues --   -0.42203  -0.42176  -0.41676  -0.40324  -0.39300
 Alpha  occ. eigenvalues --   -0.38675  -0.38152  -0.36920  -0.36655  -0.35518
 Alpha  occ. eigenvalues --   -0.35199  -0.34506  -0.33690  -0.33300  -0.32761
 Alpha  occ. eigenvalues --   -0.32641  -0.32505  -0.32267  -0.31886  -0.29143
 Alpha  occ. eigenvalues --   -0.28376  -0.21154
 Alpha virt. eigenvalues --    0.05809   0.06440   0.06928   0.09961   0.10831
 Alpha virt. eigenvalues --    0.11127   0.11403   0.11790   0.12220   0.13289
 Alpha virt. eigenvalues --    0.14252   0.14515   0.15480   0.15907   0.16150

 Mulliken charges:
               1
     1  C   -0.441652
     2  C   -0.249264
     3  C   -0.223181
     4  C   -0.419290
     5  H    0.163794
     6  H    0.149342
     7  P    0.304792
     8  C   -0.426158
     9  H    0.180369
    10  H    0.184387
    11  C   -0.260597
    12  C   -0.254416
    13  C   -0.445146
    14  C   -0.395809
    15  H    0.143326
    16  H    0.128556
    17  C   -0.214100
    18  C   -0.235520
    19  C   -0.418677
    20  H    0.142408
    21  H    0.143164
    22  H    0.139669
    23  H    0.127595
    24  H    0.125003
    25  H    0.122422
    26  H    0.121294
    27  H    0.138099
    28  H    0.141398
    29  H    0.140966
    30  H    0.148337
    31  H    0.148293
    32  H    0.147902
    33  H    0.145368
    34  H    0.104710
    35  H    0.100606
    36  H    0.114962
    37  H    0.116797
    38  H    0.123818
    39  H    0.120316
    40  H    0.116113
 Sum of Mulliken charges =  -0.00000

 Dipole moment (field-independent basis, Debye):
    X=             -1.5765    Y=              1.4249    Z=              0.2935  Tot=              2.1452
 Quadrupole moment (field-independent basis, Debye-Ang):
   XX=           -104.3450   YY=            -91.7481   ZZ=            -97.3908
   XY=              1.5232   XZ=             -1.6462   YZ=             -0.4250

 Summary of Natural Population Analysis:

                                       Natural Population
                Natural  -----------------------------------------------
    Atom  No    Charge         Core      Valence    Rydberg      Total
 -----------------------------------------------------------------------
      C    1   -0.67381      1.99946     4.66664    0.00770     6.67381
      C    2   -0.45580      1.99934     4.44470    0.01175     6.45580
      C    3   -0.46394      1.99933     4.45096    0.01365     6.46394
      C    4   -0.81953      1.99931     4.79862    0.02160     6.81953
      H    5    0.25162      0.00000     0.74372    0.00466     0.74838
      H    6    0.24431      0.00000     0.75208    0.00361     0.75569
      P    7    1.03007      9.99769     3.85991    0.11234    13.96993
      C    8   -0.75899      1.99931     4.74484    0.01484     6.75899
      H    9    0.26282      0.00000     0.73544    0.00174     0.73718
      H   10    0.26122      0.00000     0.73746    0.00132     0.73878
      C   11   -0.45582      1.99928     4.44361    0.01293     6.45582
      C   12   -0.44976      1.99934     4.43927    0.01116     6.44976
      C   13   -0.68009      1.99946     4.67290    0.00773     6.68009
      C   14   -0.84883      1.99931     4.82566    0.02386     6.84883
      H   15    0.23398      0.00000     0.75556    0.01047     0.76602
      H   16    0.23446      0.00000     0.75882    0.00672     0.76554
      C   17   -0.46260      1.99933     4.45081    0.01246     6.46260
      C   18   -0.45170      1.99935     4.44107    0.01128     6.45170
      C   19   -0.67706      1.99946     4.66947    0.00813     6.67706
      H   20    0.23185      0.00000     0.76732    0.00083     0.76815
      H   21    0.22521      0.00000     0.77369    0.00111     0.77479
      H   22    0.22317      0.00000     0.77572    0.00111     0.77683
      H   23    0.22470      0.00000     0.77203    0.00327     0.77530
      H   24    0.22376      0.00000     0.77345    0.00279     0.77624
      H   25    0.21922      0.00000     0.77725    0.00353     0.78078
      H   26    0.22225      0.00000     0.76983    0.00792     0.77775
      H   27    0.22507      0.00000     0.76494    0.00999     0.77493
      H   28    0.22537      0.00000     0.77074    0.00390     0.77463
      H   29    0.23125      0.00000     0.76700    0.00174     0.76875
      H   30    0.24486      0.00000     0.75386    0.00129     0.75514
      H   31    0.22545      0.00000     0.77357    0.00098     0.77455
      H   32    0.23540      0.00000     0.76349    0.00111     0.76460
      H   33    0.22572      0.00000     0.77308    0.00120     0.77428
      H   34    0.20869      0.00000     0.78391    0.00740     0.79131
      H   35    0.21075      0.00000     0.77740    0.01185     0.78925
      H   36    0.22100      0.00000     0.77398    0.00503     0.77900
      H   37    0.21856      0.00000     0.77588    0.00555     0.78144
      H   38    0.21415      0.00000     0.78134    0.00451     0.78585
      H   39    0.21600      0.00000     0.77894    0.00506     0.78400
      H   40    0.20704      0.00000     0.78447    0.00849     0.79296
 =======================================================================
   * Total *   -0.00000     33.98995    79.62343    0.38662   114.00000

 Normal termination of Gaussian 16 at Sun Aug 23 10:01:52 2020.
