 Gaussian 16, Revision A.03,

 ---------------------------------
 # opt=CalcAll B3LYP/6-31G* scf=qc
 ---------------------------------

 -------------------
 Title Card Required
 -------------------
 Symbolic Z-matrix:
 Charge =  0 Multiplicity = 1

 SCF Done:  E(RB3LYP) =  -2415.01538216     a.u. after    8 cycles
 SCF Done:  E(RB3LYP) =  -2415.04492860     a.u. after   17 cycles
 SCF Done:  E(RB3LYP) =  -2415.05626232     a.u. after   15 cycles
 SCF Done:  E(RB3LYP) =  -2415.07479340     a.u. after   17 cycles
 SCF Done:  E(RB3LYP) =  -2415.08242225     a.u. after   17 cycles
 SCF Done:  E(RB3LYP) =  -2415.08466200     a.u. after   19 cycles
 SCF Done:  E(RB3LYP) =  -2415.08569816     a.u. after   17 cycles
 SCF Done:  E(RB3LYP) =  -2415.08611572     a.u. after   17 cycles
 SCF Done:  E(RB3LYP) =  -2415.08620974     a.u. after   15 cycles
 SCF Done:  E(RB3LYP) =  -2415.08624252     a.u. after    7 cycles
 SCF Done:  E(RB3LYP) =  -2415.08623993     a.u. after    2 cycles
 SCF Done:  E(RB3LYP) =  -2415.08624254     a.u. after    3 cycles
 SCF Done:  E(RB3LYP) =  -2415.08623884     a.u. after    2 cycles
 SCF Done:  E(RB3LYP) =  -2415.08624268     a.u. after    4 cycles
 SCF Done:  E(RB3LYP) =  -2415.08623959     a.u. after    2 cycles
 SCF Done:  E(RB3LYP) =  -2415.08624489     a.u. after    2 cycles
 SCF Done:  E(RB3LYP) =  -2415.08624233     a.u. after    2 cycles
 SCF Done:  E(RB3LYP) =  -2415.08624238     a.u. after    2 cycles
 Optimization completed.
    -- Stationary point found.
 Normal termination of Gaussian 16 at Sun Aug 23 04:03:58 2020.

 ----------------------------------------------------------------------
 # freq B3LYP/6-31G* scf=qc volume NMR pop=NPA density=current Geom=All
 Check Guess=Read
 ----------------------------------------------------------------------

 Structure from the checkpoint file:  "phosphine_11_conf22.chk"
 -------------------
 Title Card Required
 -------------------
 Charge =  0 Multiplicity = 1

 SCF Done:  E(RB3LYP) =  -2415.08624238     a.u. after    1 cycles

      1  C    Isotropic =    67.5370   Anisotropy =   140.1075

      2  C    Isotropic =    61.8919   Anisotropy =   168.6967

      3  C    Isotropic =    58.7850   Anisotropy =   177.4633

      4  C    Isotropic =    60.2160   Anisotropy =   160.2746

      5  C    Isotropic =    67.5647   Anisotropy =   140.5718

      6  C    Isotropic =    51.5936   Anisotropy =   109.1626

      7  Cl   Isotropic =   720.8792   Anisotropy =   453.0492

      8  P    Isotropic =   364.7874   Anisotropy =    37.3754

      9  C    Isotropic =    58.7248   Anisotropy =   177.4307

     10  C    Isotropic =    60.2383   Anisotropy =   160.3058

     11  C    Isotropic =    67.5458   Anisotropy =   140.5864

     12  C    Isotropic =    51.6112   Anisotropy =   109.1292

     13  C    Isotropic =    67.5423   Anisotropy =   140.1055

     14  C    Isotropic =    61.9153   Anisotropy =   168.5906

     15  Cl   Isotropic =   721.0345   Anisotropy =   452.8652

     16  C    Isotropic =    58.7152   Anisotropy =   177.4667

     17  C    Isotropic =    60.2160   Anisotropy =   160.2623

     18  C    Isotropic =    67.5468   Anisotropy =   140.5652

     19  C    Isotropic =    51.6002   Anisotropy =   109.1443

     20  C    Isotropic =    67.5433   Anisotropy =   140.1137

     21  C    Isotropic =    61.8795   Anisotropy =   168.6118

     22  Cl   Isotropic =   720.9548   Anisotropy =   452.9007

     23  H    Isotropic =    25.2089   Anisotropy =     8.1425

     24  H    Isotropic =    25.5772   Anisotropy =    12.1144

     25  H    Isotropic =    24.7768   Anisotropy =     8.9634

     26  H    Isotropic =    25.0941   Anisotropy =     6.6269

     27  H    Isotropic =    24.7796   Anisotropy =     8.9791

     28  H    Isotropic =    25.0909   Anisotropy =     6.6369

     29  H    Isotropic =    25.2102   Anisotropy =     8.1410

     30  H    Isotropic =    25.5837   Anisotropy =    12.1222

     31  H    Isotropic =    24.7784   Anisotropy =     8.9675

     32  H    Isotropic =    25.0944   Anisotropy =     6.6300

     33  H    Isotropic =    25.2073   Anisotropy =     8.1417

     34  H    Isotropic =    25.5800   Anisotropy =    12.1104

  Exact polarizability: 280.603   0.078 280.520   0.045  -0.059 185.179
 Approx polarizability: 393.391   0.183 393.309   0.105  -0.133 343.301

                      1                      2                      3
                      A                      A                      A
 Frequencies --     20.9994                22.6078                29.2988
 Red. masses --      4.4805                 4.6690                 9.4726
 Frc consts  --      0.0012                 0.0014                 0.0048
 IR Inten    --      0.2940                 0.2801                 0.1655

                      4                      5                      6
                      A                      A                      A
 Frequencies --     29.4442                37.9061                39.8277
 Red. masses --      9.0978                 5.8092                 5.8657
 Frc consts  --      0.0046                 0.0049                 0.0055
 IR Inten    --      0.1865                 0.1458                 0.0823

                      7                      8                      9
                      A                      A                      A
 Frequencies --    109.1218               117.5061               117.8310
 Red. masses --      8.8632                 8.8320                 8.8287
 Frc consts  --      0.0622                 0.0719                 0.0722
 IR Inten    --      0.0249                 0.3546                 0.3492

                     10                     11                     12
                      A                      A                      A
 Frequencies --    181.0859               187.4711               187.5690
 Red. masses --     10.0369                 8.7838                 8.7920
 Frc consts  --      0.1939                 0.1819                 0.1822
 IR Inten    --      0.3324                 0.5715                 0.5758

                     13                     14                     15
                      A                      A                      A
 Frequencies --    264.0058               293.5858               293.7417
 Red. masses --      8.9728                 8.3998                 8.4112
 Frc consts  --      0.3685                 0.4266                 0.4276
 IR Inten    --      0.2163                 0.8961                 0.9128

                     16                     17                     18
                      A                      A                      A
 Frequencies --    310.8262               328.6206               328.8576
 Red. masses --      6.0461                 5.9924                 5.9801
 Frc consts  --      0.3442                 0.3813                 0.3810
 IR Inten    --      0.0034                 1.9011                 1.8886

                     19                     20                     21
                      A                      A                      A
 Frequencies --    383.9841               384.0770               414.5707
 Red. masses --      8.0208                 8.0231                 3.0440
 Frc consts  --      0.6968                 0.6973                 0.3082
 IR Inten    --     20.9532                20.9517                 0.0570

                     22                     23                     24
                      A                      A                      A
 Frequencies --    414.6974               416.6515               426.9595
 Red. masses --      3.0448                 3.2053                 6.6282
 Frc consts  --      0.3085                 0.3278                 0.7119
 IR Inten    --      0.0584                 0.1607                 2.9463

                     25                     26                     27
                      A                      A                      A
 Frequencies --    499.5030               509.2897               509.4776
 Red. masses --      5.5056                 3.6418                 3.6456
 Frc consts  --      0.8093                 0.5565                 0.5575
 IR Inten    --      6.8718                19.9465                19.9485

                     28                     29                     30
                      A                      A                      A
 Frequencies --    531.5323               548.7750               548.8549
 Red. masses --      4.5781                 7.4344                 7.4492
 Frc consts  --      0.7621                 1.3191                 1.3221
 IR Inten    --      9.8390                 5.4496                 5.4433

                     31                     32                     33
                      A                      A                      A
 Frequencies --    644.3406               644.3676               645.3056
 Red. masses --      7.1598                 7.1598                 7.1686
 Frc consts  --      1.7514                 1.7515                 1.7588
 IR Inten    --      0.0373                 0.0377                 0.0966

                     34                     35                     36
                      A                      A                      A
 Frequencies --    718.1390               718.2566               718.6743
 Red. masses --      4.5831                 4.5873                 4.6030
 Frc consts  --      1.3926                 1.3943                 1.4007
 IR Inten    --      1.6977                 1.6343                 0.3413

                     37                     38                     39
                      A                      A                      A
 Frequencies --    746.1634               751.6273               751.6934
 Red. masses --      7.2630                 7.2735                 7.2753
 Frc consts  --      2.3825                 2.4210                 2.4220
 IR Inten    --     14.6179                54.3886                54.2975

                     40                     41                     42
                      A                      A                      A
 Frequencies --    833.6135               834.1430               834.2011
 Red. masses --      1.4176                 1.4324                 1.4314
 Frc consts  --      0.5804                 0.5872                 0.5869
 IR Inten    --     23.5679                32.7699                32.6855

                     43                     44                     45
                      A                      A                      A
 Frequencies --    845.7846               845.8787               848.8614
 Red. masses --      1.2468                 1.2466                 1.2500
 Frc consts  --      0.5255                 0.5255                 0.5307
 IR Inten    --      0.6598                 0.6255                 0.2830

                     46                     47                     48
                      A                      A                      A
 Frequencies --    969.4847               969.5750               969.9646
 Red. masses --      1.2760                 1.2764                 1.2869
 Frc consts  --      0.7066                 0.7070                 0.7134
 IR Inten    --      0.1594                 0.1550                 0.2184

                     49                     50                     51
                      A                      A                      A
 Frequencies --    973.2062               973.3731               976.4785
 Red. masses --      1.3464                 1.3455                 1.3233
 Frc consts  --      0.7514                 0.7511                 0.7434
 IR Inten    --      0.0117                 0.0131                 0.4191

                     52                     53                     54
                      A                      A                      A
 Frequencies --   1027.9335              1028.0104              1029.6255
 Red. masses --      4.7554                 4.7658                 4.7020
 Frc consts  --      2.9605                 2.9674                 2.9369
 IR Inten    --     62.7189                62.6657                 5.1271

                     55                     56                     57
                      A                      A                      A
 Frequencies --   1097.7424              1097.8572              1101.5718
 Red. masses --      7.9010                 7.9424                 8.0662
 Frc consts  --      5.6096                 5.6402                 5.7670
 IR Inten    --     80.9366                81.9533                13.8131

                     58                     59                     60
                      A                      A                      A
 Frequencies --   1118.1758              1118.4558              1121.3935
 Red. masses --      2.1236                 2.1199                 2.1027
 Frc consts  --      1.5644                 1.5625                 1.5579
 IR Inten    --     33.1768                32.1576                 6.4454

                     61                     62                     63
                      A                      A                      A
 Frequencies --   1139.2713              1139.4202              1139.6250
 Red. masses --      1.4011                 1.4018                 1.4024
 Frc consts  --      1.0715                 1.0723                 1.0731
 IR Inten    --      0.1323                 1.1139                 2.8403

                     64                     65                     66
                      A                      A                      A
 Frequencies --   1219.0350              1219.4680              1220.9989
 Red. masses --      1.1569                 1.1573                 1.1520
 Frc consts  --      1.0129                 1.0140                 1.0119
 IR Inten    --      4.8476                 4.7309                 0.9702

                     67                     68                     69
                      A                      A                      A
 Frequencies --   1318.2795              1322.1894              1322.3414
 Red. masses --      6.9325                 7.5397                 7.7451
 Frc consts  --      7.0984                 7.7659                 7.9793
 IR Inten    --      1.3192                 2.6836                 2.6456

                     70                     71                     72
                      A                      A                      A
 Frequencies --   1337.2010              1337.4636              1337.9206
 Red. masses --      1.3352                 1.3412                 1.3407
 Frc consts  --      1.4067                 1.4136                 1.4140
 IR Inten    --      0.3138                 0.7518                 1.2101

                     73                     74                     75
                      A                      A                      A
 Frequencies --   1429.5508              1429.9084              1430.1090
 Red. masses --      2.6348                 2.6444                 2.6385
 Frc consts  --      3.1725                 3.1856                 3.1794
 IR Inten    --     18.9654                 6.1215                 6.8101

                     76                     77                     78
                      A                      A                      A
 Frequencies --   1527.0737              1527.1487              1527.2275
 Red. masses --      2.0776                 2.0905                 2.0800
 Frc consts  --      2.8546                 2.8725                 2.8584
 IR Inten    --     63.6864                26.8050                51.5306

                     79                     80                     81
                      A                      A                      A
 Frequencies --   1611.0198              1611.2488              1611.3024
 Red. masses --      6.6390                 6.6623                 6.6585
 Frc consts  --     10.1521                10.1906                10.1854
 IR Inten    --      3.8398                 3.8511                 3.8114

                     82                     83                     84
                      A                      A                      A
 Frequencies --   1633.4131              1633.4396              1634.4814
 Red. masses --      5.4305                 5.4262                 5.4926
 Frc consts  --      8.5366                 8.5300                 8.6454
 IR Inten    --     29.7155                29.7695                13.1371

                     85                     86                     87
                      A                      A                      A
 Frequencies --   3188.0034              3188.1090              3188.1600
 Red. masses --      1.0892                 1.0892                 1.0892
 Frc consts  --      6.5225                 6.5228                 6.5228
 IR Inten    --      5.4760                 4.3330                 2.8716

                     88                     89                     90
                      A                      A                      A
 Frequencies --   3205.7211              3205.7489              3206.3592
 Red. masses --      1.0878                 1.0878                 1.0879
 Frc consts  --      6.5867                 6.5868                 6.5897
 IR Inten    --      0.8576                 0.8692                 0.6549

                     91                     92                     93
                      A                      A                      A
 Frequencies --   3222.5916              3222.6162              3222.7459
 Red. masses --      1.0937                 1.0937                 1.0937
 Frc consts  --      6.6923                 6.6923                 6.6925
 IR Inten    --      2.4126                 2.3265                 9.8804

                     94                     95                     96
                      A                      A                      A
 Frequencies --   3223.6283              3223.6850              3223.9191
 Red. masses --      1.0940                 1.0939                 1.0941
 Frc consts  --      6.6979                 6.6979                 6.7002
 IR Inten    --      5.6715                 5.5614                 0.1388

 - Thermochemistry -
 -------------------
 Temperature   298.150 Kelvin.  Pressure   1.00000 Atm.
 Atom     1 has atomic number  6 and mass  12.00000

 Molecular mass:   363.97422 amu.
 Principal axes and moments of inertia in atomic units:
                           1         2         3
     Eigenvalues --  ******************************
           X            0.99972   0.02346   0.00001
           Y           -0.02346   0.99972  -0.00001
           Z           -0.00001   0.00001   1.00000
 This molecule is an asymmetric top.
 Rotational symmetry number  1.
 Warning -- assumption of classical behavior for rotation
           may cause significant error
 Rotational temperatures (Kelvin)      0.00723     0.00723     0.00405
 Rotational constants (GHZ):           0.15067     0.15057     0.08441
 Zero-point vibrational energy     643728.5 (Joules/Mol)
                                  153.85481 (Kcal/Mol)
 Warning -- explicit consideration of  30 degrees of freedom as
           vibrations may cause significant error
 Vibrational temperatures:     30.21    32.53    42.15    42.36    54.54
          (Kelvin)             57.30   157.00   169.07   169.53   260.54
                              269.73   269.87   379.85   422.40   422.63
                              447.21   472.81   473.15   552.47   552.60
                              596.47   596.66   599.47   614.30   718.67
                              732.75   733.02   764.76   789.56   789.68
                              927.06   927.10   928.45  1033.24  1033.41
                             1034.01  1073.56  1081.42  1081.52  1199.38
                             1200.15  1200.23  1216.90  1217.03  1221.32
                             1394.87  1395.00  1395.56  1400.23  1400.47
                             1404.93  1478.97  1479.08  1481.40  1579.41
                             1579.57  1584.92  1608.81  1609.21  1613.44
                             1639.16  1639.37  1639.67  1753.92  1754.54
                             1756.75  1896.71  1902.34  1902.55  1923.93
                             1924.31  1924.97  2056.80  2057.32  2057.61
                             2197.12  2197.23  2197.34  2317.90  2318.23
                             2318.30  2350.12  2350.16  2351.65  4586.83
                             4586.98  4587.05  4612.32  4612.36  4613.24
                             4636.59  4636.63  4636.81  4638.08  4638.16
                             4638.50

 Zero-point correction=                           0.245183 (Hartree/Particle)
 Thermal correction to Energy=                    0.264840
 Thermal correction to Enthalpy=                  0.265784
 Thermal correction to Gibbs Free Energy=         0.192190
 Sum of electronic and zero-point Energies=          -2414.841059
 Sum of electronic and thermal Energies=             -2414.821402
 Sum of electronic and thermal Enthalpies=           -2414.820458
 Sum of electronic and thermal Free Energies=        -2414.894053

                     E (Thermal)             CV                S
                      KCal/Mol        Cal/Mol-Kelvin    Cal/Mol-Kelvin
 Total                  166.190             74.126            154.893
 Electronic               0.000              0.000              0.000
 Translational            0.889              2.981             43.569
 Rotational               0.889              2.981             36.372
 Vibrational            164.412             68.164             74.952
 Vibration     1          0.593              1.986              6.537
 Vibration     2          0.593              1.985              6.391
 Vibration     3          0.593              1.984              5.876
 Vibration     4          0.593              1.984              5.867
 Vibration     5          0.594              1.982              5.366
 Vibration     6          0.594              1.981              5.268
 Vibration     7          0.606              1.942              3.284
 Vibration     8          0.608              1.935              3.141
 Vibration     9          0.608              1.935              3.136
 Vibration    10          0.630              1.865              2.317
 Vibration    11          0.632              1.857              2.253
 Vibration    12          0.632              1.857              2.252
 Vibration    13          0.671              1.739              1.635
 Vibration    14          0.688              1.686              1.453
 Vibration    15          0.689              1.685              1.452
 Vibration    16          0.700              1.653              1.358
 Vibration    17          0.712              1.618              1.267
 Vibration    18          0.712              1.618              1.266
 Vibration    19          0.753              1.504              1.023
 Vibration    20          0.753              1.504              1.023
 Vibration    21          0.778              1.439              0.911
 Vibration    22          0.778              1.438              0.910
 Vibration    23          0.780              1.434              0.903
 Vibration    24          0.789              1.412              0.869
 Vibration    25          0.855              1.251              0.659
 Vibration    26          0.864              1.229              0.635
 Vibration    27          0.865              1.229              0.635
 Vibration    28          0.886              1.180              0.584
 Vibration    29          0.904              1.142              0.547
 Vibration    30          0.904              1.142              0.547

                           ! Non-Optimized Parameters !
 Normal termination of Gaussian 16 at Sun Aug 23 04:19:02 2020.
 Gaussian 16:  ES64L-G16RevA.03 25-Dec-2016

 ----------------------------------------------------------------------
 # TD(NStates=10, Root=1) B3LYP/6-31G* scf=qc volume pop=NPA density=cu
 rrent Geom=AllCheck Guess=Read
 ----------------------------------------------------------------------

 Structure from the checkpoint file:  "phosphine_11_conf23.chk"
 -------------------
 Title Card Required
 -------------------
 Charge =  0 Multiplicity = 1

                         Standard orientation:
 ---------------------------------------------------------------------
 Center     Atomic      Atomic             Coordinates (Angstroms)
 Number     Number       Type             X           Y           Z
 ---------------------------------------------------------------------
      1          6           0        3.270736    0.757325   -0.947442
      2          6           0        2.110915    0.187055   -0.420734
      3          6           0        1.516192    0.697966    0.742606
      4          6           0        2.124399    1.795894    1.373790
      5          6           0        3.275976    2.384396    0.854266
      6          6           0        3.841075    1.855533   -0.305942
      7         17           0        5.300906    2.579687   -0.964106
      8         15           0        0.000083    0.000611    1.547828
      9          6           0       -1.362367    0.964379    0.742705
     10          6           0       -2.618704    0.936884    1.370961
     11          6           0       -3.704670    1.639043    0.851428
     12          6           0       -3.528436    2.397480   -0.305676
     13          6           0       -2.290848    2.458090   -0.944029
     14          6           0       -1.216490    1.739480   -0.417468
     15         17           0       -4.886306    3.298515   -0.963714
     16          6           0       -0.153936   -1.661253    0.742946
     17          6           0        0.493931   -2.736578    1.373577
     18          6           0        0.428428   -4.028063    0.853854
     19          6           0       -0.312656   -4.253365   -0.305960
     20          6           0       -0.979803   -3.210739   -0.946827
     21          6           0       -0.894334   -1.921187   -0.419953
     22         17           0       -0.414431   -5.879665   -0.964378
     23          1           0        3.726520    0.354988   -1.846164
     24          1           0        1.672235   -0.668635   -0.924767
     25          1           0        1.695913    2.196690    2.289273
     26          1           0        3.736635    3.234194    1.346776
     27          1           0       -2.752356    0.361819    2.284084
     28          1           0       -4.672025    1.608905    1.341573
     29          1           0       -2.169661    3.057554   -1.840285
     30          1           0       -0.255078    1.791646   -0.919104
     31          1           0        1.055728   -2.565671    2.288739
     32          1           0        0.934960   -4.851639    1.345866
     33          1           0       -1.556543   -3.404549   -1.845229
     34          1           0       -1.416882   -1.113642   -0.923434
 ---------------------------------------------------------------------

 SCF Done:  E(RB3LYP) =  -2415.08624238     a.u. after    1 cycles

 Excitation energies and oscillator strengths:

 Excited State   1:      Singlet-A      4.4053 eV  281.44 nm  f=0.1828  <S**2>=0.000
      93 -> 94         0.69574
 This state for optimization and/or second-order correction.
 Total Energy, E(TD-HF/TD-DFT) =  -2414.92435021
 Copying the excited state density for this state as the 1-particle RhoCI density.

 Excited State   2:      Singlet-A      4.4075 eV  281.30 nm  f=0.1841  <S**2>=0.000
      93 -> 95         0.69571

 Excited State   3:      Singlet-A      4.6122 eV  268.82 nm  f=0.0036  <S**2>=0.000
      89 -> 94         0.10978
      90 -> 95         0.11020
      93 -> 96         0.67969

 Excited State   4:      Singlet-A      4.9175 eV  252.13 nm  f=0.0001  <S**2>=0.000
      88 -> 94        -0.11609
      89 -> 95        -0.10583
      89 -> 97        -0.10056
      90 -> 94        -0.10567
      93 -> 98         0.64542

 Excited State   5:      Singlet-A      4.9184 eV  252.08 nm  f=0.0001  <S**2>=0.000
      88 -> 95         0.11585
      89 -> 94         0.10608
      90 -> 95        -0.10649
      90 -> 97         0.10132
      93 -> 99         0.64499

 Excited State   6:      Singlet-A      5.0224 eV  246.86 nm  f=0.0089  <S**2>=0.000
      91 -> 94        -0.11517
      92 -> 95        -0.11554
      93 -> 97         0.66873

 Excited State   7:      Singlet-A      5.2595 eV  235.74 nm  f=0.0017  <S**2>=0.000
      89 -> 94         0.13266
      90 -> 95         0.12969
      91 -> 94         0.25097
      91 -> 95        -0.36480
      91 -> 98        -0.12547
      92 -> 94         0.36959
      92 -> 95         0.24984
      92 -> 99         0.12326
      93 -> 96        -0.10400

 Excited State   8:      Singlet-A      5.3611 eV  231.26 nm  f=0.0051  <S**2>=0.000
      87 -> 94        -0.10129
      88 -> 94         0.19091
      89 -> 94        -0.13354
      89 -> 95         0.13927
      89 -> 97         0.11221
      90 -> 94         0.13992
      90 -> 95         0.13252
      91 -> 95         0.14515
      91 -> 96         0.38463
      91 -> 99         0.15123
      92 -> 94         0.14832
      92 -> 96        -0.21723
      92 -> 98        -0.15366
      93 -> 98         0.22795

 Excited State   9:      Singlet-A      5.3620 eV  231.23 nm  f=0.0050  <S**2>=0.000
      87 -> 95        -0.10024
      88 -> 95         0.18891
      89 -> 94         0.13974
      89 -> 95         0.13276
      90 -> 94         0.13268
      90 -> 95        -0.13935
      90 -> 97         0.11222
      91 -> 94         0.14489
      91 -> 96         0.21567
      91 -> 98        -0.15179
      92 -> 95        -0.14787
      92 -> 96         0.38705
      92 -> 99        -0.15183
      93 -> 99        -0.22883

 Excited State  10:      Singlet-A      5.4210 eV  228.71 nm  f=0.1610  <S**2>=0.000
      91 -> 94         0.45599
      92 -> 95        -0.45456
      92 -> 96        -0.13694

 The electronic state is 1-A.
 Alpha  occ. eigenvalues -- -101.55494-101.55492-101.55490 -77.10094 -10.26330
 Alpha  occ. eigenvalues --  -10.26329 -10.26325 -10.21418 -10.21417 -10.21417
 Alpha  occ. eigenvalues --  -10.21368 -10.21367 -10.21365 -10.21347 -10.21346
 Alpha  occ. eigenvalues --  -10.21344 -10.21314 -10.21312 -10.21310 -10.21249
 Alpha  occ. eigenvalues --  -10.21248 -10.21246  -9.47126  -9.47124  -9.47122
 Alpha  occ. eigenvalues --   -7.23520  -7.23519  -7.23517  -7.22556  -7.22554
 Alpha  occ. eigenvalues --   -7.22553  -7.22518  -7.22517  -7.22515  -6.56809
 Alpha  occ. eigenvalues --   -4.73069  -4.73069  -4.72564  -0.89964  -0.89792
 Alpha  occ. eigenvalues --   -0.89790  -0.85153  -0.84237  -0.84235  -0.76898
 Alpha  occ. eigenvalues --   -0.76780  -0.76779  -0.76742  -0.73907  -0.73905
 Alpha  occ. eigenvalues --   -0.65058  -0.63151  -0.62987  -0.62986  -0.60497
 Alpha  occ. eigenvalues --   -0.60496  -0.57615  -0.52432  -0.52430  -0.49747
 Alpha  occ. eigenvalues --   -0.48088  -0.47999  -0.47998  -0.47167  -0.47166
 Alpha  occ. eigenvalues --   -0.46321  -0.44340  -0.44246  -0.44245  -0.42726
 Alpha  occ. eigenvalues --   -0.42723  -0.40319  -0.40239  -0.40236  -0.39580
 Alpha  occ. eigenvalues --   -0.37219  -0.37218  -0.37129  -0.35190  -0.35186
 Alpha  occ. eigenvalues --   -0.34134  -0.33461  -0.33457  -0.31867  -0.31863
 Alpha  occ. eigenvalues --   -0.31861  -0.27683  -0.27413  -0.27144  -0.27141
 Alpha  occ. eigenvalues --   -0.25831  -0.25826  -0.22679
 Alpha virt. eigenvalues --   -0.03960  -0.03954  -0.03032  -0.01964  -0.01789
 Alpha virt. eigenvalues --   -0.01783   0.02241   0.02244   0.02402   0.05588
 Alpha virt. eigenvalues --    0.05597   0.10344   0.12153   0.12344   0.12346

 Mulliken charges:
               1
     1  C   -0.120814
     2  C   -0.168812
     3  C   -0.131323
     4  C   -0.173857
     5  C   -0.120784
     6  C   -0.100901
     7  Cl  -0.044121
     8  P    0.446557
     9  C   -0.085114
    10  C   -0.160871
    11  C   -0.114203
    12  C   -0.065547
    13  C   -0.118483
    14  C   -0.147278
    15  Cl   0.013476
    16  C   -0.099290
    17  C   -0.154478
    18  C   -0.124681
    19  C   -0.084508
    20  C   -0.113014
    21  C   -0.168158
    22  Cl  -0.018597
    23  H    0.147627
    24  H    0.142791
    25  H    0.127023
    26  H    0.143818
    27  H    0.158846
    28  H    0.168947
    29  H    0.173220
    30  H    0.186026
    31  H    0.146906
    32  H    0.156377
    33  H    0.158209
    34  H    0.145011
 Sum of Mulliken charges =   0.00000

 Dipole moment (field-independent basis, Debye):
    X=             -4.1593    Y=              0.6062    Z=              1.9741  Tot=              4.6438
 Quadrupole moment (field-independent basis, Debye-Ang):
   XX=           -168.3313   YY=           -166.7776   ZZ=           -145.0322
   XY=             -8.9329   XZ=              0.6393   YZ=             -0.8282

 Summary of Natural Population Analysis:

                                       Natural Population
                Natural  -----------------------------------------------
    Atom  No    Charge         Core      Valence    Rydberg      Total
 -----------------------------------------------------------------------
      C    1   -0.24838      1.99893     4.23342    0.01602     6.24838
      C    2   -0.23803      1.99899     4.22148    0.01756     6.23803
      C    3   -0.48451      1.99887     4.45980    0.02585     6.48451
      C    4   -0.22538      1.99901     4.21017    0.01619     6.22538
      C    5   -0.25527      1.99894     4.24011    0.01622     6.25527
      C    6   -0.09186      1.99854     4.07109    0.02223     6.09186
     Cl    7   -0.01676      9.99967     6.99658    0.02050    17.01676
      P    8    1.21201      9.99758     3.74057    0.04985    13.78799
      C    9   -0.38660      1.99891     4.36235    0.02534     6.38660
      C   10   -0.19872      1.99902     4.18441    0.01528     6.19872
      C   11   -0.24289      1.99893     4.22869    0.01526     6.24289
      C   12   -0.01928      1.99855     3.99845    0.02229     6.01928
      C   13   -0.24418      1.99892     4.22985    0.01541     6.24418
      C   14   -0.19130      1.99900     4.17630    0.01600     6.19130
     Cl   15    0.02653      9.99967     6.95445    0.01936    16.97347
      C   16   -0.42382      1.99888     4.40091    0.02403     6.42382
      C   17   -0.19248      1.99901     4.17803    0.01544     6.19248
      C   18   -0.26223      1.99893     4.24690    0.01639     6.26223
      C   19   -0.05849      1.99854     4.03772    0.02223     6.05849
      C   20   -0.23449      1.99893     4.22023    0.01532     6.23449
      C   21   -0.23989      1.99899     4.22373    0.01717     6.23989
     Cl   22    0.00215      9.99967     6.97818    0.02000    16.99785
      H   23    0.25123      0.00000     0.74773    0.00105     0.74877
      H   24    0.24321      0.00000     0.75527    0.00152     0.75679
      H   25    0.23162      0.00000     0.76748    0.00090     0.76838
      H   26    0.24878      0.00000     0.75015    0.00107     0.75122
      H   27    0.24837      0.00000     0.75049    0.00113     0.75163
      H   28    0.26045      0.00000     0.73848    0.00107     0.73955
      H   29    0.26319      0.00000     0.73576    0.00105     0.73681
      H   30    0.26765      0.00000     0.73114    0.00122     0.73235
      H   31    0.24324      0.00000     0.75561    0.00115     0.75676
      H   32    0.25527      0.00000     0.74370    0.00103     0.74473
      H   33    0.25594      0.00000     0.74300    0.00106     0.74406
      H   34    0.24491      0.00000     0.75379    0.00130     0.75509
 =======================================================================
   * Total *   -0.00000     75.97648   109.56602    0.45749   186.00000

 Normal termination of Gaussian 16 at Sun Aug 23 04:36:17 2020.
