 Gaussian 16, Revision A.03,

 ---------------------------------
 # opt=CalcAll B3LYP/6-31G* scf=qc
 ---------------------------------

 -------------------
 Title Card Required
 -------------------
 Symbolic Z-matrix:
 Charge =  0 Multiplicity = 1

 SCF Done:  E(RB3LYP) =  -844.556746444     a.u. after    8 cycles
 SCF Done:  E(RB3LYP) =  -844.558255474     a.u. after   15 cycles
 SCF Done:  E(RB3LYP) =  -844.562542609     a.u. after   17 cycles
 SCF Done:  E(RB3LYP) =  -844.563578040     a.u. after   15 cycles
 SCF Done:  E(RB3LYP) =  -844.564130013     a.u. after   13 cycles
 SCF Done:  E(RB3LYP) =  -844.564290450     a.u. after   15 cycles
 SCF Done:  E(RB3LYP) =  -844.564327635     a.u. after    9 cycles
 SCF Done:  E(RB3LYP) =  -844.564329387     a.u. after    4 cycles
 SCF Done:  E(RB3LYP) =  -844.564329558     a.u. after    3 cycles
 Optimization completed on the basis of negligible forces.
    -- Stationary point found.
 Normal termination of Gaussian 16 at Sun Aug 23 11:15:59 2020.

 ----------------------------------------------------------------------
 # freq B3LYP/6-31G* scf=qc volume NMR pop=NPA density=current Geom=All
 Check Guess=Read
 ----------------------------------------------------------------------

 Structure from the checkpoint file:  "phosphine_3_conf172.chk"
 -------------------
 Title Card Required
 -------------------
 Charge =  0 Multiplicity = 1

 SCF Done:  E(RB3LYP) =  -844.564329558     a.u. after    1 cycles

      1  C    Isotropic =   173.0291   Anisotropy =    19.3323

      2  H    Isotropic =    30.7061   Anisotropy =     7.2636

      3  H    Isotropic =    31.0016   Anisotropy =     8.5259

      4  H    Isotropic =    30.7455   Anisotropy =    10.5231

      5  P    Isotropic =   385.0681   Anisotropy =    60.2756

      6  C    Isotropic =    51.8678   Anisotropy =   182.8454

      7  C    Isotropic =    62.8770   Anisotropy =   171.1452

      8  C    Isotropic =    68.2791   Anisotropy =   164.2382

      9  C    Isotropic =    67.5074   Anisotropy =   168.2979

     10  C    Isotropic =    69.1693   Anisotropy =   163.2071

     11  C    Isotropic =    60.5101   Anisotropy =   159.8457

     12  C    Isotropic =    52.7942   Anisotropy =   183.2121

     13  C    Isotropic =    67.9801   Anisotropy =   167.4428

     14  C    Isotropic =    68.8478   Anisotropy =   164.0571

     15  C    Isotropic =    69.4132   Anisotropy =   165.2720

     16  C    Isotropic =    68.8097   Anisotropy =   164.5518

     17  C    Isotropic =    62.6029   Anisotropy =   166.8330

     18  H    Isotropic =    25.1725   Anisotropy =    11.3387

     19  H    Isotropic =    25.0797   Anisotropy =     5.9098

     20  H    Isotropic =    25.0154   Anisotropy =     3.8947

     21  H    Isotropic =    24.9616   Anisotropy =     4.4624

     22  H    Isotropic =    24.4820   Anisotropy =     7.9906

     23  H    Isotropic =    24.8796   Anisotropy =     9.9826

     24  H    Isotropic =    24.9264   Anisotropy =     4.8984

     25  H    Isotropic =    25.0794   Anisotropy =     3.7303

     26  H    Isotropic =    25.0469   Anisotropy =     4.9711

     27  H    Isotropic =    24.9777   Anisotropy =    10.0489

  Exact polarizability: 201.375   1.889 138.264 -20.879  -1.687 117.910
 Approx polarizability: 285.417   3.957 225.382 -48.279  -5.114 209.241

                      1                      2                      3
                      A                      A                      A
 Frequencies --     19.6595                29.8973                55.9499
 Red. masses --      3.7900                 3.8326                 5.0667
 Frc consts  --      0.0009                 0.0020                 0.0093
 IR Inten    --      0.2509                 0.0664                 0.0708

                      4                      5                      6
                      A                      A                      A
 Frequencies --    117.5524               178.5502               186.9145
 Red. masses --      3.3696                 3.4609                 3.6202
 Frc consts  --      0.0274                 0.0650                 0.0745
 IR Inten    --      0.5142                 0.7291                 0.2038

                      7                      8                      9
                      A                      A                      A
 Frequencies --    233.2965               246.3845               267.1084
 Red. masses --      1.8292                 1.6587                 3.6704
 Frc consts  --      0.0587                 0.0593                 0.1543
 IR Inten    --      0.4888                 0.3057                 0.1579

                     10                     11                     12
                      A                      A                      A
 Frequencies --    323.1790               396.5582               408.1525
 Red. masses --      4.4968                 5.9080                 3.1699
 Frc consts  --      0.2767                 0.5474                 0.3111
 IR Inten    --      2.2772                 2.7520                 2.8952

                     13                     14                     15
                      A                      A                      A
 Frequencies --    412.6931               419.7887               488.2897
 Red. masses --      3.0647                 6.9729                 3.5146
 Frc consts  --      0.3075                 0.7240                 0.4937
 IR Inten    --      0.6176                 8.2447                10.4607

                     16                     17                     18
                      A                      A                      A
 Frequencies --    515.9226               632.6639               633.0544
 Red. masses --      3.9376                 6.4093                 6.4012
 Frc consts  --      0.6175                 1.5115                 1.5114
 IR Inten    --     12.4196                 0.1765                 0.0923

                     19                     20                     21
                      A                      A                      A
 Frequencies --    674.2400               702.6861               705.0884
 Red. masses --      5.3395                 6.1953                 4.9201
 Frc consts  --      1.4301                 1.8023                 1.4412
 IR Inten    --      8.3386                 0.9766                 3.2651

                     22                     23                     24
                      A                      A                      A
 Frequencies --    712.0471               713.7067               757.4371
 Red. masses --      2.2697                 2.0655                 1.5779
 Frc consts  --      0.6780                 0.6199                 0.5334
 IR Inten    --     20.8331                26.9293                35.5767

                     25                     26                     27
                      A                      A                      A
 Frequencies --    763.0293               861.1836               867.3723
 Red. masses --      1.7189                 1.2514                 1.2452
 Frc consts  --      0.5896                 0.5468                 0.5520
 IR Inten    --     13.6481                 0.1857                 0.0191

                     28                     29                     30
                      A                      A                      A
 Frequencies --    910.2523               919.8362               922.6496
 Red. masses --      1.3086                 1.2937                 1.3544
 Frc consts  --      0.6388                 0.6449                 0.6793
 IR Inten    --     24.9407                28.3877                 1.4376

                     31                     32                     33
                      A                      A                      A
 Frequencies --    936.6988               969.7311               977.1809
 Red. masses --      1.3620                 1.3597                 1.3601
 Frc consts  --      0.7041                 0.7534                 0.7652
 IR Inten    --      4.6368                 0.0627                 0.1017

                     34                     35                     36
                      A                      A                      A
 Frequencies --    996.8385              1001.2344              1015.2379
 Red. masses --      1.2506                 1.2591                 6.2350
 Frc consts  --      0.7322                 0.7437                 3.7863
 IR Inten    --      0.1419                 0.0536                 1.2335

                     37                     38                     39
                      A                      A                      A
 Frequencies --   1015.9820              1052.1468              1054.4468
 Red. masses --      6.2496                 3.2221                 3.1933
 Frc consts  --      3.8008                 2.1016                 2.0919
 IR Inten    --      2.5433                 1.0755                 1.1860

                     40                     41                     42
                      A                      A                      A
 Frequencies --   1106.2730              1112.2012              1113.0443
 Red. masses --      1.7290                 1.7336                 2.4333
 Frc consts  --      1.2467                 1.2635                 1.7761
 IR Inten    --      1.6953                 2.4304                13.2984

                     43                     44                     45
                      A                      A                      A
 Frequencies --   1117.9814              1193.4819              1194.2049
 Red. masses --      2.5287                 1.1026                 1.0987
 Frc consts  --      1.8621                 0.9254                 0.9232
 IR Inten    --      2.1447                 0.0065                 0.0647

                     46                     47                     48
                      A                      A                      A
 Frequencies --   1216.9079              1223.4336              1323.7521
 Red. masses --      1.1444                 1.1502                 3.2575
 Frc consts  --      0.9985                 1.0143                 3.3631
 IR Inten    --      3.9198                 0.6684                 2.3627

                     49                     50                     51
                      A                      A                      A
 Frequencies --   1331.6655              1351.3828              1363.1570
 Red. masses --      3.3530                 1.2958                 1.7088
 Frc consts  --      3.5033                 1.3943                 1.8709
 IR Inten    --      2.8857                 2.1920                 1.4884

                     52                     53                     54
                      A                      A                      A
 Frequencies --   1371.5814              1479.5005              1482.4648
 Red. masses --      1.5139                 2.0991                 2.0754
 Frc consts  --      1.6780                 2.7071                 2.6873
 IR Inten    --      2.1486                12.2402                 5.4943

                     55                     56                     57
                      A                      A                      A
 Frequencies --   1501.1125              1502.1974              1530.8740
 Red. masses --      1.0620                 1.0627                 2.0236
 Frc consts  --      1.4099                 1.4129                 2.7941
 IR Inten    --      4.2092                16.7029                 4.9371

                     58                     59                     60
                      A                      A                      A
 Frequencies --   1534.8440              1630.0416              1632.4686
 Red. masses --      1.9732                 5.0204                 5.1791
 Frc consts  --      2.7387                 7.8594                 8.1320
 IR Inten    --      6.4909                 1.1112                 0.2805

                     61                     62                     63
                      A                      A                      A
 Frequencies --   1646.7306              1649.4827              3049.4837
 Red. masses --      5.3166                 5.2603                 1.0329
 Frc consts  --      8.4944                 8.4325                 5.6592
 IR Inten    --      1.7954                 3.4160                12.5587

                     64                     65                     66
                      A                      A                      A
 Frequencies --   3131.3055              3138.0918              3174.8606
 Red. masses --      1.1045                 1.1020                 1.0855
 Frc consts  --      6.3805                 6.3940                 6.4465
 IR Inten    --     12.2623                 8.6828                 3.7904

                     67                     68                     69
                      A                      A                      A
 Frequencies --   3176.3178              3181.6154              3182.0139
 Red. masses --      1.0847                 1.0871                 1.0872
 Frc consts  --      6.4480                 6.4835                 6.4859
 IR Inten    --      1.4553                 0.5335                 0.2222

                     70                     71                     72
                      A                      A                      A
 Frequencies --   3190.9764              3192.1151              3198.2217
 Red. masses --      1.0907                 1.0916                 1.0939
 Frc consts  --      6.5432                 6.5537                 6.5927
 IR Inten    --      9.7108                21.0530                33.3272

                     73                     74                     75
                      A                      A                      A
 Frequencies --   3203.7183              3207.1121              3210.6184
 Red. masses --      1.0936                 1.0979                 1.0954
 Frc consts  --      6.6136                 6.6536                 6.6527
 IR Inten    --     34.2092                31.3184                18.4658

 - Thermochemistry -
 -------------------
 Temperature   298.150 Kelvin.  Pressure   1.00000 Atm.
 Atom     1 has atomic number  6 and mass  12.00000

 Molecular mass:   200.07549 amu.
 Principal axes and moments of inertia in atomic units:
                           1         2         3
     Eigenvalues --  1569.852374673.507035299.53472
           X            0.99999   0.00072  -0.00536
           Y           -0.00048   0.99899   0.04502
           Z            0.00538  -0.04502   0.99897
 This molecule is an asymmetric top.
 Rotational symmetry number  1.
 Warning -- assumption of classical behavior for rotation
           may cause significant error
 Rotational temperatures (Kelvin)      0.05517     0.01853     0.01634
 Rotational constants (GHZ):           1.14962     0.38616     0.34055
 Zero-point vibrational energy     579829.2 (Joules/Mol)
                                  138.58251 (Kcal/Mol)
 Warning -- explicit consideration of  16 degrees of freedom as
           vibrations may cause significant error
 Vibrational temperatures:     28.29    43.02    80.50   169.13   256.89
          (Kelvin)            268.93   335.66   354.49   384.31   464.98
                              570.56   587.24   593.77   603.98   702.54
                              742.30   910.26   910.82   970.08  1011.01
                             1014.46  1024.48  1026.86  1089.78  1097.83
                             1239.05  1247.96  1309.65  1323.44  1327.49
                             1347.70  1395.23  1405.95  1434.23  1440.55
                             1460.70  1461.77  1513.80  1517.11  1591.68
                             1600.21  1601.42  1608.53  1717.15  1718.19
                             1750.86  1760.25  1904.58  1915.97  1944.34
                             1961.28  1973.40  2128.67  2132.94  2159.77
                             2161.33  2202.59  2208.30  2345.27  2348.76
                             2369.28  2373.24  4387.53  4505.25  4515.01
                             4567.92  4570.01  4577.63  4578.21  4591.10
                             4592.74  4601.53  4609.44  4614.32  4619.36

 Zero-point correction=                           0.220845 (Hartree/Particle)
 Thermal correction to Energy=                    0.233542
 Thermal correction to Enthalpy=                  0.234486
 Thermal correction to Gibbs Free Energy=         0.179768
 Sum of electronic and zero-point Energies=           -844.343484
 Sum of electronic and thermal Energies=              -844.330788
 Sum of electronic and thermal Enthalpies=            -844.329844
 Sum of electronic and thermal Free Energies=         -844.384562

                     E (Thermal)             CV                S
                      KCal/Mol        Cal/Mol-Kelvin    Cal/Mol-Kelvin
 Total                  146.550             49.332            115.164
 Electronic               0.000              0.000              0.000
 Translational            0.889              2.981             41.785
 Rotational               0.889              2.981             32.031
 Vibrational            144.772             43.370             41.348
 Vibration     1          0.593              1.986              6.668
 Vibration     2          0.594              1.984              5.836
 Vibration     3          0.596              1.975              4.595
 Vibration     4          0.608              1.935              3.140
 Vibration     5          0.629              1.869              2.344
 Vibration     6          0.632              1.858              2.258
 Vibration     7          0.654              1.790              1.853
 Vibration     8          0.661              1.769              1.756
 Vibration     9          0.672              1.733              1.615
 Vibration    10          0.708              1.629              1.294
 Vibration    11          0.763              1.478              0.975
 Vibration    12          0.773              1.453              0.933
 Vibration    13          0.776              1.443              0.917
 Vibration    14          0.782              1.427              0.893
 Vibration    15          0.844              1.276              0.688
 Vibration    16          0.871              1.215              0.619

 Optimization completed on the basis of negligible forces.
    -- Stationary point found.
 Normal termination of Gaussian 16 at Sun Aug 23 11:22:13 2020.
 Gaussian 16:  ES64L-G16RevA.03 25-Dec-2016

 ----------------------------------------------------------------------
 # TD(NStates=10, Root=1) B3LYP/6-31G* scf=qc volume pop=NPA density=cu
 rrent Geom=AllCheck Guess=Read
 ----------------------------------------------------------------------

 Structure from the checkpoint file:  "phosphine_3_conf173.chk"
 -------------------
 Title Card Required
 -------------------
 Charge =  0 Multiplicity = 1

                         Standard orientation:
 ---------------------------------------------------------------------
 Center     Atomic      Atomic             Coordinates (Angstroms)
 Number     Number       Type             X           Y           Z
 ---------------------------------------------------------------------
      1          6           0        0.056840    2.585658    0.714611
      2          1           0       -0.004054    2.108904    1.698937
      3          1           0        0.994981    3.146446    0.657394
      4          1           0       -0.766069    3.300034    0.606690
      5         15           0        0.036749    1.369126   -0.701515
      6          6           0        1.438374    0.263133   -0.190200
      7          6           0        1.385934   -0.598910    0.917139
      8          6           0        2.488842   -1.378339    1.264629
      9          6           0        3.663997   -1.307440    0.511419
     10          6           0        3.728829   -0.457534   -0.592718
     11          6           0        2.620785    0.317973   -0.942701
     12          6           0       -1.434475    0.319226   -0.299570
     13          6           0       -2.399882    0.657881    0.660145
     14          6           0       -3.530064   -0.141952    0.853110
     15          6           0       -3.712826   -1.296614    0.093887
     16          6           0       -2.760687   -1.645267   -0.868088
     17          6           0       -1.640725   -0.841475   -1.067424
     18          1           0        0.473461   -0.667715    1.503622
     19          1           0        2.432233   -2.042864    2.123235
     20          1           0        4.522453   -1.916498    0.782602
     21          1           0        4.637613   -0.402151   -1.186548
     22          1           0        2.671153    0.970211   -1.811493
     23          1           0       -2.279738    1.549473    1.267956
     24          1           0       -4.265362    0.139894    1.602715
     25          1           0       -4.590727   -1.918894    0.245786
     26          1           0       -2.894550   -2.541984   -1.467789
     27          1           0       -0.912267   -1.119781   -1.825817
 ---------------------------------------------------------------------

 SCF Done:  E(RB3LYP) =  -844.564329558     a.u. after    1 cycles

 Excitation energies and oscillator strengths:

 Excited State   1:      Singlet-A      4.6040 eV  269.30 nm  f=0.0437  <S**2>=0.000
      53 -> 54         0.68719
      53 -> 55         0.11764
 This state for optimization and/or second-order correction.
 Total Energy, E(TD-HF/TD-DFT) =  -844.395136256
 Copying the excited state density for this state as the 1-particle RhoCI density.

 Excited State   2:      Singlet-A      4.8956 eV  253.26 nm  f=0.0129  <S**2>=0.000
      51 -> 55        -0.10667
      52 -> 54         0.13719
      52 -> 55        -0.11059
      53 -> 55         0.22312
      53 -> 56         0.62647

 Excited State   3:      Singlet-A      5.0080 eV  247.57 nm  f=0.1456  <S**2>=0.000
      53 -> 54        -0.10831
      53 -> 55         0.61747
      53 -> 56        -0.19933
      53 -> 57         0.18772

 Excited State   4:      Singlet-A      5.1445 eV  241.00 nm  f=0.0377  <S**2>=0.000
      50 -> 55        -0.12088
      51 -> 54        -0.20906
      52 -> 55         0.13466
      52 -> 56        -0.10042
      53 -> 55        -0.16837
      53 -> 56         0.12399
      53 -> 57         0.59555

 Excited State   5:      Singlet-A      5.4217 eV  228.68 nm  f=0.0047  <S**2>=0.000
      50 -> 55         0.19184
      50 -> 56         0.26467
      50 -> 57         0.20867
      51 -> 54         0.36754
      51 -> 55         0.15924
      52 -> 54        -0.31194
      52 -> 56         0.15539
      52 -> 57         0.12149
      53 -> 56         0.12029
      53 -> 57         0.16409

 Excited State   6:      Singlet-A      5.7388 eV  216.05 nm  f=0.0118  <S**2>=0.000
      49 -> 56        -0.20663
      49 -> 57         0.15969
      50 -> 54        -0.15961
      51 -> 54         0.32346
      52 -> 54         0.48417
      53 -> 57         0.18650

 Excited State   7:      Singlet-A      5.8271 eV  212.77 nm  f=0.0123  <S**2>=0.000
      49 -> 56         0.24768
      49 -> 57        -0.17944
      51 -> 54         0.14353
      51 -> 55         0.13246
      51 -> 56        -0.11213
      52 -> 54         0.18729
      52 -> 55         0.51480
      53 -> 57        -0.14754

 Excited State   8:      Singlet-A      5.8573 eV  211.68 nm  f=0.0219  <S**2>=0.000
      49 -> 54         0.18055
      49 -> 56         0.10121
      50 -> 54         0.46218
      50 -> 55        -0.34307
      50 -> 56         0.16420
      51 -> 56        -0.10964
      52 -> 54         0.14570
      52 -> 56         0.19492

 Excited State   9:      Singlet-A      5.9279 eV  209.15 nm  f=0.0005  <S**2>=0.000
      50 -> 54        -0.16543
      51 -> 54        -0.20748
      51 -> 55         0.57126
      51 -> 56        -0.12187
      52 -> 55        -0.21530
      52 -> 56         0.13306

 Excited State  10:      Singlet-A      5.9927 eV  206.89 nm  f=0.0264  <S**2>=0.000
      49 -> 54         0.31214
      50 -> 54         0.20339
      50 -> 55         0.45948
      50 -> 56        -0.17059
      51 -> 54        -0.13337
      51 -> 56        -0.16733
      52 -> 55         0.12382
      52 -> 56         0.15056

 The electronic state is 1-A.
 Alpha  occ. eigenvalues --  -77.07968 -10.19393 -10.19299 -10.19192 -10.19093
 Alpha  occ. eigenvalues --  -10.19068 -10.19059 -10.19011 -10.19001 -10.18964
 Alpha  occ. eigenvalues --  -10.18942 -10.18899 -10.18858 -10.18421  -6.54710
 Alpha  occ. eigenvalues --   -4.70976  -4.70963  -4.70460  -0.85270  -0.84774
 Alpha  occ. eigenvalues --   -0.76468  -0.74320  -0.74256  -0.73796  -0.70921
 Alpha  occ. eigenvalues --   -0.62338  -0.60252  -0.59978  -0.59281  -0.55060
 Alpha  occ. eigenvalues --   -0.51448  -0.49651  -0.45409  -0.44649  -0.44597
 Alpha  occ. eigenvalues --   -0.44243  -0.42401  -0.42079  -0.41685  -0.41109
 Alpha  occ. eigenvalues --   -0.38955  -0.37871  -0.36381  -0.36120  -0.34369
 Alpha  occ. eigenvalues --   -0.34239  -0.32560  -0.31576  -0.26446  -0.25181
 Alpha  occ. eigenvalues --   -0.25018  -0.24726  -0.21379
 Alpha virt. eigenvalues --   -0.01529  -0.00807  -0.00420   0.00542   0.06285
 Alpha virt. eigenvalues --    0.07173   0.09234   0.10908   0.12717   0.13596
 Alpha virt. eigenvalues --    0.14141   0.14681   0.15149   0.15528   0.16193

 Mulliken charges:
               1
     1  C   -0.640335
     2  H    0.215658
     3  H    0.203706
     4  H    0.161073
     5  P    0.507425
     6  C   -0.150269
     7  C   -0.192275
     8  C   -0.109925
     9  C   -0.192745
    10  C   -0.134731
    11  C   -0.175820
    12  C   -0.067179
    13  C   -0.159612
    14  C   -0.113007
    15  C   -0.121543
    16  C   -0.115319
    17  C   -0.143141
    18  H    0.087408
    19  H    0.100191
    20  H    0.085524
    21  H    0.093494
    22  H    0.089989
    23  H    0.148021
    24  H    0.149051
    25  H    0.153077
    26  H    0.152374
    27  H    0.168910
 Sum of Mulliken charges =   0.00000

 Dipole moment (field-independent basis, Debye):
    X=             -7.0007    Y=              2.3421    Z=             -0.4351  Tot=              7.3949
 Quadrupole moment (field-independent basis, Debye-Ang):
   XX=            -91.9174   YY=            -83.0704   ZZ=            -86.8639
   XY=              6.4515   XZ=             -4.1076   YZ=              1.5615

 Summary of Natural Population Analysis:

                                       Natural Population
                Natural  -----------------------------------------------
    Atom  No    Charge         Core      Valence    Rydberg      Total
 -----------------------------------------------------------------------
      C    1   -1.03465      1.99946     5.02409    0.01111     7.03465
      H    2    0.27674      0.00000     0.72216    0.00109     0.72326
      H    3    0.27448      0.00000     0.72483    0.00069     0.72552
      H    4    0.23978      0.00000     0.75839    0.00183     0.76022
      P    5    1.25999      9.99755     3.69256    0.04989    13.74001
      C    6   -0.53814      1.99883     4.51439    0.02492     6.53814
      C    7   -0.30973      1.99898     4.29097    0.01977     6.30973
      C    8   -0.21951      1.99908     4.20597    0.01445     6.21951
      C    9   -0.34744      1.99910     4.33055    0.01779     6.34744
      C   10   -0.26948      1.99910     4.25444    0.01594     6.26948
      C   11   -0.23974      1.99902     4.22466    0.01606     6.23974
      C   12   -0.37080      1.99892     4.34864    0.02324     6.37080
      C   13   -0.21167      1.99900     4.19731    0.01535     6.21167
      C   14   -0.22554      1.99910     4.21220    0.01424     6.22554
      C   15   -0.19013      1.99909     4.17698    0.01406     6.19013
      C   16   -0.23274      1.99910     4.21947    0.01417     6.23274
      C   17   -0.18262      1.99902     4.16720    0.01640     6.18262
      H   18    0.21301      0.00000     0.78592    0.00106     0.78699
      H   19    0.22425      0.00000     0.77489    0.00086     0.77575
      H   20    0.21569      0.00000     0.78353    0.00078     0.78431
      H   21    0.22043      0.00000     0.77871    0.00086     0.77957
      H   22    0.21175      0.00000     0.78752    0.00073     0.78825
      H   23    0.24185      0.00000     0.75692    0.00123     0.75815
      H   24    0.24607      0.00000     0.75310    0.00083     0.75393
      H   25    0.24447      0.00000     0.75474    0.00079     0.75553
      H   26    0.24840      0.00000     0.75082    0.00078     0.75160
      H   27    0.25528      0.00000     0.74313    0.00159     0.74472
 =======================================================================
   * Total *    0.00000     35.98536    69.73411    0.28054   106.00000

 Normal termination of Gaussian 16 at Sun Aug 23 11:29:35 2020.
