 Gaussian 16, Revision A.03,

 ---------------------------------
 # opt=CalcAll B3LYP/6-31G* scf=qc
 ---------------------------------

 -------------------
 Title Card Required
 -------------------
 Symbolic Z-matrix:
 Charge =  0 Multiplicity = 1

 SCF Done:  E(RB3LYP) =  -814.901567752     a.u. after    7 cycles
 SCF Done:  E(RB3LYP) =  -814.909811090     a.u. after   13 cycles
 SCF Done:  E(RB3LYP) =  -814.911525598     a.u. after   11 cycles
 SCF Done:  E(RB3LYP) =  -814.912036742     a.u. after   11 cycles
 SCF Done:  E(RB3LYP) =  -814.912070854     a.u. after    9 cycles
 SCF Done:  E(RB3LYP) =  -814.912071693     a.u. after    2 cycles
 SCF Done:  E(RB3LYP) =  -814.912071750     a.u. after    2 cycles
 Optimization completed.
    -- Stationary point found.
 Normal termination of Gaussian 16 at Sun Aug 23 08:44:30 2020.

 ----------------------------------------------------------------------
 # freq B3LYP/6-31G* scf=qc volume NMR pop=NPA density=current Geom=All
 Check Guess=Read
 ----------------------------------------------------------------------

 Structure from the checkpoint file:  "phosphine_2_conf262.chk"
 -------------------
 Title Card Required
 -------------------
 Charge =  0 Multiplicity = 1

 SCF Done:  E(RB3LYP) =  -814.912071750     a.u. after    1 cycles

      1  C    Isotropic =   175.7777   Anisotropy =    18.6769

      2  C    Isotropic =   163.5545   Anisotropy =    17.5707

      3  C    Isotropic =   160.8268   Anisotropy =    20.7173

      4  C    Isotropic =   159.4247   Anisotropy =    23.0385

      5  H    Isotropic =    30.7285   Anisotropy =     5.8290

      6  H    Isotropic =    30.8836   Anisotropy =     6.1401

      7  P    Isotropic =   402.0593   Anisotropy =    37.4226

      8  C    Isotropic =   160.7329   Anisotropy =    27.1192

      9  H    Isotropic =    30.3516   Anisotropy =     5.0682

     10  H    Isotropic =    31.0567   Anisotropy =     6.0428

     11  C    Isotropic =   162.3626   Anisotropy =    16.1535

     12  C    Isotropic =   167.8472   Anisotropy =    11.9333

     13  C    Isotropic =   176.4841   Anisotropy =    18.8075

     14  C    Isotropic =   156.8268   Anisotropy =    28.0494

     15  H    Isotropic =    30.6548   Anisotropy =     5.1009

     16  H    Isotropic =    31.0770   Anisotropy =     4.3507

     17  C    Isotropic =   159.0325   Anisotropy =    28.9212

     18  C    Isotropic =   161.6155   Anisotropy =    23.7402

     19  C    Isotropic =   173.6468   Anisotropy =    24.3476

     20  H    Isotropic =    31.1489   Anisotropy =    10.4376

     21  H    Isotropic =    31.4834   Anisotropy =     7.8177

     22  H    Isotropic =    30.9687   Anisotropy =     5.8576

     23  H    Isotropic =    30.4575   Anisotropy =     9.2130

     24  H    Isotropic =    30.7431   Anisotropy =     7.1294

     25  H    Isotropic =    30.8002   Anisotropy =     4.9931

     26  H    Isotropic =    30.4528   Anisotropy =     6.4074

     27  H    Isotropic =    30.5031   Anisotropy =     6.3789

     28  H    Isotropic =    30.6206   Anisotropy =     8.9064

     29  H    Isotropic =    30.1803   Anisotropy =     5.6016

     30  H    Isotropic =    30.8331   Anisotropy =     9.4745

     31  H    Isotropic =    30.9573   Anisotropy =     6.1586

     32  H    Isotropic =    31.1879   Anisotropy =    10.2047

     33  H    Isotropic =    31.5605   Anisotropy =     8.9727

     34  H    Isotropic =    30.6374   Anisotropy =     5.2727

     35  H    Isotropic =    30.7385   Anisotropy =     5.4857

     36  H    Isotropic =    30.7309   Anisotropy =     5.7848

     37  H    Isotropic =    30.6895   Anisotropy =     6.0110

     38  H    Isotropic =    31.2343   Anisotropy =     7.6764

     39  H    Isotropic =    31.0519   Anisotropy =    10.3624

     40  H    Isotropic =    31.1991   Anisotropy =     7.9107

  Exact polarizability: 171.052  -0.746 162.816  -0.066  -2.795 128.193
 Approx polarizability: 213.128  -0.040 212.612   1.216  -4.677 196.077

                      1                      2                      3
                      A                      A                      A
 Frequencies --     20.5401                27.7895                41.3577
 Red. masses --      3.0138                 2.8149                 3.0207
 Frc consts  --      0.0007                 0.0013                 0.0030
 IR Inten    --      0.0042                 0.0023                 0.0270

                      4                      5                      6
                      A                      A                      A
 Frequencies --     44.7939                54.0823                57.7136
 Red. masses --      2.5780                 2.6433                 1.6421
 Frc consts  --      0.0030                 0.0046                 0.0032
 IR Inten    --      0.0546                 0.0754                 0.0259

                      7                      8                      9
                      A                      A                      A
 Frequencies --     97.9041               114.1345               126.4855
 Red. masses --      2.8644                 2.5850                 2.1435
 Frc consts  --      0.0162                 0.0198                 0.0202
 IR Inten    --      0.1830                 0.0214                 0.0713

                     10                     11                     12
                      A                      A                      A
 Frequencies --    147.2757               157.9339               163.4485
 Red. masses --      1.8643                 1.7793                 2.3713
 Frc consts  --      0.0238                 0.0261                 0.0373
 IR Inten    --      0.5476                 0.5661                 0.1960

                     13                     14                     15
                      A                      A                      A
 Frequencies --    215.8270               231.1741               242.0331
 Red. masses --      1.9521                 1.9665                 1.3422
 Frc consts  --      0.0536                 0.0619                 0.0463
 IR Inten    --      0.0238                 0.1425                 0.1143

                     16                     17                     18
                      A                      A                      A
 Frequencies --    255.5636               269.7649               289.7006
 Red. masses --      1.5022                 1.7411                 2.2079
 Frc consts  --      0.0578                 0.0747                 0.1092
 IR Inten    --      0.1349                 0.2000                 0.0695

                     19                     20                     21
                      A                      A                      A
 Frequencies --    302.3352               350.4947               366.5975
 Red. masses --      2.0652                 4.0310                 2.0387
 Frc consts  --      0.1112                 0.2918                 0.1614
 IR Inten    --      0.2101                 0.8653                 0.1587

                     22                     23                     24
                      A                      A                      A
 Frequencies --    418.6640               432.7377               468.3081
 Red. masses --      2.6438                 2.2949                 2.4579
 Frc consts  --      0.2730                 0.2532                 0.3176
 IR Inten    --      0.8185                 1.8252                 1.6825

                     25                     26                     27
                      A                      A                      A
 Frequencies --    624.8882               697.3892               721.8630
 Red. masses --      2.9289                 2.1168                 2.7350
 Frc consts  --      0.6739                 0.6066                 0.8397
 IR Inten    --      7.2428                 2.1537                 5.0800

                     28                     29                     30
                      A                      A                      A
 Frequencies --    735.8798               741.3724               764.7061
 Red. masses --      1.1870                 1.3215                 1.4142
 Frc consts  --      0.3787                 0.4279                 0.4873
 IR Inten    --     11.5731                12.2167                 3.4049

                     31                     32                     33
                      A                      A                      A
 Frequencies --    782.5116               794.4607               800.7564
 Red. masses --      1.2364                 1.5441                 1.7796
 Frc consts  --      0.4461                 0.5742                 0.6723
 IR Inten    --      2.1322                 1.1045                 4.5239

                     34                     35                     36
                      A                      A                      A
 Frequencies --    872.7589               886.9296               898.5996
 Red. masses --      2.3661                 1.6535                 1.5558
 Frc consts  --      1.0619                 0.7663                 0.7402
 IR Inten    --      0.4529                 2.2322                 1.0005

                     37                     38                     39
                      A                      A                      A
 Frequencies --    913.6697               918.7841               927.4712
 Red. masses --      1.5197                 1.4912                 1.4249
 Frc consts  --      0.7475                 0.7417                 0.7222
 IR Inten    --      6.9579                 7.6972                 2.6863

                     40                     41                     42
                      A                      A                      A
 Frequencies --    984.9929               986.1839              1023.1091
 Red. masses --      1.8485                 1.9364                 3.5528
 Frc consts  --      1.0567                 1.1096                 2.1911
 IR Inten    --      3.8036                 1.7732                 1.0661

                     43                     44                     45
                      A                      A                      A
 Frequencies --   1060.8865              1063.2570              1067.6947
 Red. masses --      1.5832                 1.4826                 1.5133
 Frc consts  --      1.0498                 0.9875                 1.0164
 IR Inten    --      0.7972                 4.2010                 3.2453

                     46                     47                     48
                      A                      A                      A
 Frequencies --   1069.9395              1085.3497              1095.6237
 Red. masses --      1.6381                 2.0223                 1.3720
 Frc consts  --      1.1048                 1.4036                 0.9704
 IR Inten    --      2.3560                 0.1488                 1.0034

                     49                     50                     51
                      A                      A                      A
 Frequencies --   1118.0423              1123.1733              1123.8590
 Red. masses --      1.8346                 1.7417                 1.9351
 Frc consts  --      1.3512                 1.2945                 1.4401
 IR Inten    --      3.1652                 3.8121                 4.4152

                     52                     53                     54
                      A                      A                      A
 Frequencies --   1203.8017              1225.5321              1244.6338
 Red. masses --      1.3862                 1.4789                 1.4298
 Frc consts  --      1.1836                 1.3087                 1.3050
 IR Inten    --      2.2013                 0.6997                 4.4360

                     55                     56                     57
                      A                      A                      A
 Frequencies --   1247.8029              1253.0311              1259.1288
 Red. masses --      1.4151                 1.3737                 1.4043
 Frc consts  --      1.2982                 1.2708                 1.3118
 IR Inten    --      2.4814                 6.2051                 0.2182

                     58                     59                     60
                      A                      A                      A
 Frequencies --   1316.8766              1318.4867              1322.9613
 Red. masses --      1.2163                 1.2427                 1.1993
 Frc consts  --      1.2427                 1.2728                 1.2368
 IR Inten    --      0.9875                 5.3549                 0.7294

                     61                     62                     63
                      A                      A                      A
 Frequencies --   1335.9150              1341.7225              1348.5817
 Red. masses --      1.1491                 1.1716                 1.1394
 Frc consts  --      1.2083                 1.2427                 1.2209
 IR Inten    --      5.0821                 2.2658                 0.7186

                     64                     65                     66
                      A                      A                      A
 Frequencies --   1351.5441              1394.6285              1397.4142
 Red. masses --      1.2451                 1.3888                 1.3348
 Frc consts  --      1.3401                 1.5915                 1.5358
 IR Inten    --      2.6144                 9.7368                 7.6220

                     67                     68                     69
                      A                      A                      A
 Frequencies --   1398.1983              1404.0390              1412.4652
 Red. masses --      1.3431                 1.4501                 1.5179
 Frc consts  --      1.5470                 1.6843                 1.7842
 IR Inten    --      4.5957                 5.5188                 1.1887

                     70                     71                     72
                      A                      A                      A
 Frequencies --   1440.6496              1441.9094              1442.4927
 Red. masses --      1.2422                 1.2624                 1.2593
 Frc consts  --      1.5190                 1.5464                 1.5438
 IR Inten    --      1.2124                 6.4464                 6.2378

                     73                     74                     75
                      A                      A                      A
 Frequencies --   1488.8247              1494.4639              1495.5689
 Red. masses --      1.0840                 1.0866                 1.0878
 Frc consts  --      1.4157                 1.4298                 1.4335
 IR Inten    --      1.8023                 4.2275                 1.4311

                     76                     77                     78
                      A                      A                      A
 Frequencies --   1515.8320              1517.0179              1517.1410
 Red. masses --      1.0682                 1.0698                 1.0688
 Frc consts  --      1.4461                 1.4506                 1.4495
 IR Inten    --      0.8182                 1.7707                 3.4678

                     79                     80                     81
                      A                      A                      A
 Frequencies --   1520.1489              1520.8546              1526.3265
 Red. masses --      1.0809                 1.0781                 1.0701
 Frc consts  --      1.4716                 1.4692                 1.4689
 IR Inten    --      1.1523                 0.4593                 0.2189

                     82                     83                     84
                      A                      A                      A
 Frequencies --   1529.7982              1532.4175              1532.8205
 Red. masses --      1.0410                 1.0555                 1.0596
 Frc consts  --      1.4354                 1.4603                 1.4668
 IR Inten    --      6.0319                 3.6901                 8.6016

                     85                     86                     87
                      A                      A                      A
 Frequencies --   1538.4111              1539.0422              1540.4964
 Red. masses --      1.0610                 1.0545                 1.0825
 Frc consts  --      1.4796                 1.4716                 1.5135
 IR Inten    --      5.5910                 4.5093                 3.5391

                     88                     89                     90
                      A                      A                      A
 Frequencies --   3013.1336              3015.3389              3020.5277
 Red. masses --      1.0609                 1.0643                 1.0590
 Frc consts  --      5.6747                 5.7014                 5.6929
 IR Inten    --      4.6872                21.6276                 0.4583

                     91                     92                     93
                      A                      A                      A
 Frequencies --   3022.1691              3025.2591              3027.5688
 Red. masses --      1.0590                 1.0649                 1.0616
 Frc consts  --      5.6991                 5.7424                 5.7330
 IR Inten    --      3.3947                37.3497                44.9008

                     94                     95                     96
                      A                      A                      A
 Frequencies --   3028.4150              3030.2244              3036.8373
 Red. masses --      1.0617                 1.0620                 1.0674
 Frc consts  --      5.7369                 5.7453                 5.7999
 IR Inten    --     13.2057                62.6625                20.3404

                     97                     98                     99
                      A                      A                      A
 Frequencies --   3041.5265              3041.8643              3043.2842
 Red. masses --      1.0376                 1.0390                 1.0379
 Frc consts  --      5.6556                 5.6642                 5.6636
 IR Inten    --     46.9113                18.4386                23.8976

                    100                    101                    102
                      A                      A                      A
 Frequencies --   3045.5331              3052.8354              3058.7338
 Red. masses --      1.0964                 1.0967                 1.1002
 Frc consts  --      5.9916                 6.0218                 6.0644
 IR Inten    --      7.7417                29.8086                 0.5716

                    103                    104                    105
                      A                      A                      A
 Frequencies --   3060.0016              3060.1233              3074.2402
 Red. masses --      1.0994                 1.0986                 1.0992
 Frc consts  --      6.0655                 6.0612                 6.1206
 IR Inten    --     22.4782                13.4350                22.8555

                    106                    107                    108
                      A                      A                      A
 Frequencies --   3077.2405              3080.0742              3084.2018
 Red. masses --      1.1038                 1.1039                 1.0983
 Frc consts  --      6.1581                 6.1705                 6.1556
 IR Inten    --     66.6411                28.6213                55.7911

                    109                    110                    111
                      A                      A                      A
 Frequencies --   3106.5443              3106.6159              3106.7937
 Red. masses --      1.1026                 1.1011                 1.1016
 Frc consts  --      6.2694                 6.2609                 6.2647
 IR Inten    --     36.8176                52.6979                71.6071

                    112                    113                    114
                      A                      A                      A
 Frequencies --   3110.9903              3114.5308              3114.8825
 Red. masses --      1.1019                 1.1017                 1.1019
 Frc consts  --      6.2836                 6.2967                 6.2988
 IR Inten    --     44.6121                60.8208                48.3425

 - Thermochemistry -
 -------------------
 Temperature   298.150 Kelvin.  Pressure   1.00000 Atm.
 Atom     1 has atomic number  6 and mass  12.00000

 Molecular mass:   202.18504 amu.
 Principal axes and moments of inertia in atomic units:
                           1         2         3
     Eigenvalues --  3674.754204771.235807787.41435
           X            0.99999  -0.00342   0.00125
           Y            0.00342   0.99999   0.00283
           Z           -0.00126  -0.00283   1.00000
 This molecule is an asymmetric top.
 Rotational symmetry number  1.
 Warning -- assumption of classical behavior for rotation
           may cause significant error
 Rotational temperatures (Kelvin)      0.02357     0.01815     0.01112
 Rotational constants (GHZ):           0.49112     0.37825     0.23175
 Zero-point vibrational energy     976698.8 (Joules/Mol)
                                  233.43661 (Kcal/Mol)
 Warning -- explicit consideration of  24 degrees of freedom as
           vibrations may cause significant error
 Vibrational temperatures:     29.55    39.98    59.50    64.45    77.81
          (Kelvin)             83.04   140.86   164.21   181.98   211.90
                              227.23   235.17   310.53   332.61   348.23
                              367.70   388.13   416.81   434.99   504.28
                              527.45   602.36   622.61   673.79   899.07
                             1003.39  1038.60  1058.77  1066.67  1100.24
                             1125.86  1143.05  1152.11  1255.71  1276.09
                             1292.88  1314.57  1321.93  1334.42  1417.19
                             1418.90  1472.03  1526.38  1529.79  1536.17
                             1539.40  1561.58  1576.36  1608.61  1616.00
                             1616.98  1732.00  1763.27  1790.75  1795.31
                             1802.83  1811.61  1894.69  1897.01  1903.45
                             1922.08  1930.44  1940.31  1944.57  2006.56
                             2010.57  2011.70  2020.10  2032.22  2072.77
                             2074.59  2075.43  2142.09  2150.20  2151.79
                             2180.94  2182.65  2182.83  2187.16  2188.17
                             2196.04  2201.04  2204.81  2205.39  2213.43
                             2214.34  2216.43  4335.23  4338.40  4345.87
                             4348.23  4352.67  4356.00  4357.21  4359.82
                             4369.33  4376.08  4376.56  4378.61  4381.84
                             4392.35  4400.84  4402.66  4402.83  4423.15
                             4427.46  4431.54  4437.48  4469.62  4469.73
                             4469.98  4476.02  4481.12  4481.62

 Zero-point correction=                           0.372005 (Hartree/Particle)
 Thermal correction to Energy=                    0.390688
 Thermal correction to Enthalpy=                  0.391632
 Thermal correction to Gibbs Free Energy=         0.322304
 Sum of electronic and zero-point Energies=           -814.540067
 Sum of electronic and thermal Energies=              -814.521383
 Sum of electronic and thermal Enthalpies=            -814.520439
 Sum of electronic and thermal Free Energies=         -814.589767

                     E (Thermal)             CV                S
                      KCal/Mol        Cal/Mol-Kelvin    Cal/Mol-Kelvin
 Total                  245.161             66.245            145.913
 Electronic               0.000              0.000              0.000
 Translational            0.889              2.981             41.817
 Rotational               0.889              2.981             33.279
 Vibrational            243.383             60.283             70.818
 Vibration     1          0.593              1.986              6.581
 Vibration     2          0.593              1.984              5.981
 Vibration     3          0.594              1.981              5.193
 Vibration     4          0.595              1.979              5.035
 Vibration     5          0.596              1.976              4.662
 Vibration     6          0.596              1.974              4.534
 Vibration     7          0.603              1.951              3.496
 Vibration     8          0.607              1.938              3.197
 Vibration     9          0.611              1.927              2.999
 Vibration    10          0.617              1.906              2.707
 Vibration    11          0.621              1.894              2.574
 Vibration    12          0.623              1.887              2.510
 Vibration    13          0.645              1.817              1.994
 Vibration    14          0.653              1.793              1.870
 Vibration    15          0.658              1.776              1.788
 Vibration    16          0.666              1.753              1.692
 Vibration    17          0.674              1.729              1.598
 Vibration    18          0.686              1.693              1.476
 Vibration    19          0.694              1.669              1.404
 Vibration    20          0.727              1.574              1.164
 Vibration    21          0.740              1.541              1.094
 Vibration    22          0.782              1.430              0.897
 Vibration    23          0.794              1.399              0.850
 Vibration    24          0.825              1.320              0.742

 Optimization completed.
    -- Stationary point found.
 Normal termination of Gaussian 16 at Sun Aug 23 08:51:39 2020.
 Gaussian 16:  ES64L-G16RevA.03 25-Dec-2016

 ----------------------------------------------------------------------
 # TD(NStates=10, Root=1) B3LYP/6-31G* scf=qc volume pop=NPA density=cu
 rrent Geom=AllCheck Guess=Read
 ----------------------------------------------------------------------

 Structure from the checkpoint file:  "phosphine_2_conf263.chk"
 -------------------
 Title Card Required
 -------------------
 Charge =  0 Multiplicity = 1

                         Standard orientation:
 ---------------------------------------------------------------------
 Center     Atomic      Atomic             Coordinates (Angstroms)
 Number     Number       Type             X           Y           Z
 ---------------------------------------------------------------------
      1          6           0        1.976176    4.065032    0.893806
      2          6           0        1.774321    3.591126   -0.550258
      3          6           0        1.613457    2.068369   -0.707947
      4          6           0        0.335960    1.498892   -0.070157
      5          1           0        0.321182    1.680883    1.013368
      6          1           0       -0.535712    2.019359   -0.490332
      7         15           0        0.084795   -0.333147   -0.406903
      8          6           0        1.251722   -1.036656    0.892995
      9          1           0        2.243883   -0.612905    0.694731
     10          1           0        0.950620   -0.667001    1.883638
     11          6           0        1.338922   -2.574599    0.921859
     12          6           0        1.922498   -3.234707   -0.339845
     13          6           0        3.386641   -2.876749   -0.619826
     14          6           0       -1.547680   -0.593473    0.486633
     15          1           0       -1.630453   -1.669974    0.689461
     16          1           0       -1.525588   -0.091007    1.465277
     17          6           0       -2.773488   -0.137779   -0.319023
     18          6           0       -4.102564   -0.405987    0.401826
     19          6           0       -5.325357    0.048078   -0.402030
     20          1           0        2.135615    5.148697    0.933538
     21          1           0        2.851625    3.583641    1.347910
     22          1           0        1.109070    3.837839    1.524129
     23          1           0        2.633833    3.913497   -1.153645
     24          1           0        0.895421    4.091899   -0.981151
     25          1           0        2.496995    1.573235   -0.279722
     26          1           0        1.614705    1.821083   -1.777740
     27          1           0        0.340045   -2.991952    1.109908
     28          1           0        1.950686   -2.867807    1.787946
     29          1           0        1.309960   -2.967893   -1.210400
     30          1           0        1.837991   -4.323895   -0.225140
     31          1           0        3.512284   -1.810726   -0.840654
     32          1           0        3.767721   -3.433958   -1.483231
     33          1           0        4.025802   -3.116994    0.239647
     34          1           0       -2.778466   -0.646170   -1.293148
     35          1           0       -2.699168    0.937037   -0.538357
     36          1           0       -4.095030    0.101469    1.376985
     37          1           0       -4.184190   -1.480548    0.619074
     38          1           0       -5.288712    1.125561   -0.605067
     39          1           0       -6.257407   -0.157339    0.136802
     40          1           0       -5.378284   -0.468110   -1.368471
 ---------------------------------------------------------------------

 SCF Done:  E(RB3LYP) =  -814.912071750     a.u. after    1 cycles

 Excitation energies and oscillator strengths:

 Excited State   1:      Singlet-A      6.5304 eV  189.86 nm  f=0.1283  <S**2>=0.000
      57 -> 58         0.69574
 This state for optimization and/or second-order correction.
 Total Energy, E(TD-HF/TD-DFT) =  -814.672082775
 Copying the excited state density for this state as the 1-particle RhoCI density.

 Excited State   2:      Singlet-A      6.7083 eV  184.82 nm  f=0.1417  <S**2>=0.000
      57 -> 59         0.69390

 Excited State   3:      Singlet-A      7.2283 eV  171.52 nm  f=0.0115  <S**2>=0.000
      57 -> 60         0.69951

 Excited State   4:      Singlet-A      7.6094 eV  162.93 nm  f=0.0103  <S**2>=0.000
      57 -> 61         0.66394
      57 -> 62        -0.13062
      57 -> 63        -0.14127

 Excited State   5:      Singlet-A      7.7411 eV  160.16 nm  f=0.0070  <S**2>=0.000
      57 -> 62         0.66124
      57 -> 63        -0.16793

 Excited State   6:      Singlet-A      7.9536 eV  155.89 nm  f=0.0256  <S**2>=0.000
      57 -> 61         0.13723
      57 -> 62         0.15341
      57 -> 63         0.64426
      57 -> 64         0.11742

 Excited State   7:      Singlet-A      8.1171 eV  152.74 nm  f=0.0093  <S**2>=0.000
      57 -> 63        -0.13057
      57 -> 64         0.66353

 Excited State   8:      Singlet-A      8.2303 eV  150.64 nm  f=0.0431  <S**2>=0.000
      55 -> 58         0.27299
      56 -> 58        -0.26510
      56 -> 59         0.15980
      57 -> 65         0.54857

 Excited State   9:      Singlet-A      8.2426 eV  150.42 nm  f=0.0190  <S**2>=0.000
      55 -> 58        -0.30432
      55 -> 59        -0.18789
      56 -> 58         0.36118
      56 -> 59        -0.23522
      57 -> 65         0.40306

 Excited State  10:      Singlet-A      8.4570 eV  146.61 nm  f=0.0686  <S**2>=0.000
      55 -> 58         0.36598
      55 -> 59         0.26012
      56 -> 58         0.50472
      56 -> 59         0.11065

 The electronic state is 1-A.
 Alpha  occ. eigenvalues --  -77.06291 -10.18026 -10.18016 -10.18003 -10.17975
 Alpha  occ. eigenvalues --  -10.17963 -10.17960 -10.17918 -10.17876 -10.17368
 Alpha  occ. eigenvalues --  -10.17200 -10.17173 -10.16832  -6.53079  -4.69329
 Alpha  occ. eigenvalues --   -4.69325  -4.68835  -0.79921  -0.78910  -0.78685
 Alpha  occ. eigenvalues --   -0.74124  -0.71493  -0.71176  -0.65748  -0.63187
 Alpha  occ. eigenvalues --   -0.62499  -0.57801  -0.56942  -0.56404  -0.51387
 Alpha  occ. eigenvalues --   -0.46890  -0.45857  -0.45263  -0.45097  -0.43681
 Alpha  occ. eigenvalues --   -0.42500  -0.41680  -0.41413  -0.39891  -0.39390
 Alpha  occ. eigenvalues --   -0.38353  -0.37912  -0.37858  -0.36624  -0.35642
 Alpha  occ. eigenvalues --   -0.35258  -0.34527  -0.33176  -0.32939  -0.32738
 Alpha  occ. eigenvalues --   -0.32330  -0.32086  -0.32018  -0.31847  -0.28867
 Alpha  occ. eigenvalues --   -0.28532  -0.21406
 Alpha virt. eigenvalues --    0.05431   0.06049   0.08239   0.09533   0.10261
 Alpha virt. eigenvalues --    0.10751   0.11135   0.11788   0.12816   0.13849
 Alpha virt. eigenvalues --    0.14284   0.14667   0.15252   0.15599   0.15955

 Mulliken charges:
               1
     1  C   -0.429857
     2  C   -0.239258
     3  C   -0.220620
     4  C   -0.417259
     5  H    0.154529
     6  H    0.134295
     7  P    0.297145
     8  C   -0.427302
     9  H    0.184217
    10  H    0.184903
    11  C   -0.228920
    12  C   -0.235785
    13  C   -0.448906
    14  C   -0.384382
    15  H    0.153952
    16  H    0.146220
    17  C   -0.270821
    18  C   -0.241190
    19  C   -0.443412
    20  H    0.131895
    21  H    0.132596
    22  H    0.126135
    23  H    0.120229
    24  H    0.121821
    25  H    0.113491
    26  H    0.112346
    27  H    0.117123
    28  H    0.107767
    29  H    0.129518
    30  H    0.129632
    31  H    0.143814
    32  H    0.142729
    33  H    0.139974
    34  H    0.135902
    35  H    0.138985
    36  H    0.128123
    37  H    0.130701
    38  H    0.142199
    39  H    0.143650
    40  H    0.143821
 Sum of Mulliken charges =  -0.00000

 Dipole moment (field-independent basis, Debye):
    X=             -0.5431    Y=             -0.2381    Z=              1.0881  Tot=              1.2392
 Quadrupole moment (field-independent basis, Debye-Ang):
   XX=            -95.2999   YY=           -100.3233   ZZ=            -95.2083
   XY=             -1.6146   XZ=              0.5730   YZ=             -0.7669

 Summary of Natural Population Analysis:

                                       Natural Population
                Natural  -----------------------------------------------
    Atom  No    Charge         Core      Valence    Rydberg      Total
 -----------------------------------------------------------------------
      C    1   -0.67698      1.99946     4.66970    0.00782     6.67698
      C    2   -0.45238      1.99935     4.44176    0.01128     6.45238
      C    3   -0.46102      1.99933     4.44919    0.01250     6.46102
      C    4   -0.85892      1.99932     4.83141    0.02820     6.85892
      H    5    0.24690      0.00000     0.74969    0.00341     0.75310
      H    6    0.23344      0.00000     0.76087    0.00569     0.76656
      P    7    0.99403      9.99762     3.88957    0.11878    14.00597
      C    8   -0.74768      1.99929     4.73145    0.01694     6.74768
      H    9    0.25676      0.00000     0.74172    0.00153     0.74324
      H   10    0.27474      0.00000     0.72328    0.00198     0.72526
      C   11   -0.46333      1.99931     4.44889    0.01512     6.46333
      C   12   -0.45943      1.99934     4.44795    0.01214     6.45943
      C   13   -0.68076      1.99946     4.67297    0.00832     6.68076
      C   14   -0.80030      1.99930     4.78218    0.01882     6.80030
      H   15    0.25123      0.00000     0.74121    0.00756     0.74877
      H   16    0.24384      0.00000     0.75004    0.00613     0.75616
      C   17   -0.46433      1.99933     4.45188    0.01311     6.46433
      C   18   -0.45271      1.99935     4.44246    0.01089     6.45271
      C   19   -0.67462      1.99946     4.66748    0.00768     6.67462
      H   20    0.22440      0.00000     0.77263    0.00297     0.77560
      H   21    0.21912      0.00000     0.77864    0.00224     0.78088
      H   22    0.21318      0.00000     0.78165    0.00517     0.78682
      H   23    0.22460      0.00000     0.77124    0.00417     0.77540
      H   24    0.22165      0.00000     0.77398    0.00437     0.77835
      H   25    0.21454      0.00000     0.78075    0.00472     0.78546
      H   26    0.21854      0.00000     0.77291    0.00855     0.78146
      H   27    0.22164      0.00000     0.76922    0.00914     0.77836
      H   28    0.21829      0.00000     0.77329    0.00842     0.78171
      H   29    0.22049      0.00000     0.77174    0.00777     0.77951
      H   30    0.23331      0.00000     0.76443    0.00226     0.76669
      H   31    0.22112      0.00000     0.77741    0.00148     0.77888
      H   32    0.23232      0.00000     0.76649    0.00119     0.76768
      H   33    0.22362      0.00000     0.77505    0.00133     0.77638
      H   34    0.22449      0.00000     0.77067    0.00484     0.77551
      H   35    0.22651      0.00000     0.77166    0.00183     0.77349
      H   36    0.22522      0.00000     0.77217    0.00261     0.77478
      H   37    0.22596      0.00000     0.77143    0.00260     0.77404
      H   38    0.22438      0.00000     0.77450    0.00112     0.77562
      H   39    0.23272      0.00000     0.76644    0.00084     0.76728
      H   40    0.22543      0.00000     0.77342    0.00115     0.77457
 =======================================================================
   * Total *   -0.00000     33.98993    79.62342    0.38665   114.00000

 Normal termination of Gaussian 16 at Sun Aug 23 09:00:05 2020.
