 Gaussian 16, Revision A.03,

 ---------------------------------
 # opt=CalcAll B3LYP/6-31G* scf=qc
 ---------------------------------

 -------------------
 Title Card Required
 -------------------
 Symbolic Z-matrix:
 Charge =  0 Multiplicity = 1

 SCF Done:  E(RB3LYP) =  -1333.89307341     a.u. after    7 cycles
 SCF Done:  E(RB3LYP) =  -1333.93579402     a.u. after   17 cycles
 SCF Done:  E(RB3LYP) =  -1333.95706614     a.u. after   15 cycles
 SCF Done:  E(RB3LYP) =  -1333.98096184     a.u. after   19 cycles
 SCF Done:  E(RB3LYP) =  -1333.98590334     a.u. after   19 cycles
 SCF Done:  E(RB3LYP) =  -1333.99608466     a.u. after   19 cycles
 SCF Done:  E(RB3LYP) =  -1333.99798044     a.u. after   17 cycles
 SCF Done:  E(RB3LYP) =  -1333.99868670     a.u. after   17 cycles
 SCF Done:  E(RB3LYP) =  -1333.99874810     a.u. after   13 cycles
 SCF Done:  E(RB3LYP) =  -1333.99874010     a.u. after    5 cycles
 SCF Done:  E(RB3LYP) =  -1333.99896239     a.u. after   15 cycles
 SCF Done:  E(RB3LYP) =  -1333.99897295     a.u. after    9 cycles
 SCF Done:  E(RB3LYP) =  -1333.99897820     a.u. after    7 cycles
 SCF Done:  E(RB3LYP) =  -1333.99897447     a.u. after    3 cycles
 SCF Done:  E(RB3LYP) =  -1333.99897409     a.u. after    3 cycles
 SCF Done:  E(RB3LYP) =  -1333.99897444     a.u. after    3 cycles
 Optimization completed.
    -- Stationary point found.
 Normal termination of Gaussian 16 at Sun Aug 23 16:47:22 2020.

 ----------------------------------------------------------------------
 # freq B3LYP/6-31G* scf=qc volume NMR pop=NPA density=current Geom=All
 Check Guess=Read
 ----------------------------------------------------------------------

 Structure from the checkpoint file:  "phosphine_5_conf32.chk"
 -------------------
 Title Card Required
 -------------------
 Charge =  0 Multiplicity = 1

 SCF Done:  E(RB3LYP) =  -1333.99897444     a.u. after    1 cycles

      1  C    Isotropic =    80.0647   Anisotropy =   136.7200

      2  C    Isotropic =    60.7142   Anisotropy =   171.8494

      3  C    Isotropic =    61.5935   Anisotropy =   173.4841

      4  C    Isotropic =    59.0297   Anisotropy =   162.8002

      5  C    Isotropic =    79.9271   Anisotropy =   137.4264

      6  C    Isotropic =    32.6700   Anisotropy =    98.8245

      7  F    Isotropic =   295.8094   Anisotropy =   113.0522

      8  P    Isotropic =   366.1058   Anisotropy =    39.6499

      9  C    Isotropic =    61.6194   Anisotropy =   173.4822

     10  C    Isotropic =    60.7103   Anisotropy =   171.8876

     11  C    Isotropic =    80.0717   Anisotropy =   136.7198

     12  C    Isotropic =    32.6618   Anisotropy =    98.8229

     13  C    Isotropic =    79.9259   Anisotropy =   137.4307

     14  C    Isotropic =    59.0443   Anisotropy =   162.8120

     15  F    Isotropic =   295.8025   Anisotropy =   113.0555

     16  C    Isotropic =    61.6171   Anisotropy =   173.5410

     17  C    Isotropic =    60.7195   Anisotropy =   171.9221

     18  C    Isotropic =    80.0747   Anisotropy =   136.7635

     19  C    Isotropic =    32.6684   Anisotropy =    98.8075

     20  C    Isotropic =    79.9491   Anisotropy =   137.4448

     21  C    Isotropic =    59.0464   Anisotropy =   162.7841

     22  F    Isotropic =   295.7770   Anisotropy =   112.9766

     23  H    Isotropic =    25.4650   Anisotropy =     5.7375

     24  H    Isotropic =    25.3653   Anisotropy =    12.0226

     25  H    Isotropic =    24.6191   Anisotropy =     8.9251

     26  H    Isotropic =    25.3587   Anisotropy =     4.2583

     27  H    Isotropic =    25.3671   Anisotropy =    12.0314

     28  H    Isotropic =    25.4688   Anisotropy =     5.7368

     29  H    Isotropic =    25.3569   Anisotropy =     4.2608

     30  H    Isotropic =    24.6196   Anisotropy =     8.9227

     31  H    Isotropic =    25.3615   Anisotropy =    12.0245

     32  H    Isotropic =    25.4645   Anisotropy =     5.7382

     33  H    Isotropic =    25.3614   Anisotropy =     4.2507

     34  H    Isotropic =    24.6194   Anisotropy =     8.9186

  Exact polarizability: 226.218   0.015 226.154  -0.016   0.011 167.690
 Approx polarizability: 337.868   0.033 337.807  -0.041   0.020 314.794

                      1                      2                      3
                      A                      A                      A
 Frequencies --     23.1155                23.5198                37.3630
 Red. masses --      4.0545                 4.0660                 9.0859
 Frc consts  --      0.0013                 0.0013                 0.0075
 IR Inten    --      0.2545                 0.2527                 0.0937

                      4                      5                      6
                      A                      A                      A
 Frequencies --     37.4723                40.0306                50.6049
 Red. masses --      9.0643                 3.7410                 9.9531
 Frc consts  --      0.0075                 0.0035                 0.0150
 IR Inten    --      0.0967                 0.0056                 0.1140

                      7                      8                      9
                      A                      A                      A
 Frequencies --    133.0019               145.5070               145.6982
 Red. masses --      8.0515                 8.3690                 8.3754
 Frc consts  --      0.0839                 0.1044                 0.1048
 IR Inten    --      0.0231                 0.5205                 0.5171

                     10                     11                     12
                      A                      A                      A
 Frequencies --    208.9948               219.0545               219.3933
 Red. masses --      8.0480                 6.9880                 6.9929
 Frc consts  --      0.2071                 0.1976                 0.1983
 IR Inten    --      0.2902                 0.5289                 0.5300

                     13                     14                     15
                      A                      A                      A
 Frequencies --    307.9098               335.9914               336.0763
 Red. masses --      8.4342                 8.3108                 8.3088
 Frc consts  --      0.4711                 0.5528                 0.5529
 IR Inten    --      1.0320                 0.0431                 0.0439

                     16                     17                     18
                      A                      A                      A
 Frequencies --    397.1496               404.1012               404.1487
 Red. masses --      7.7412                 8.0309                 8.0155
 Frc consts  --      0.7194                 0.7727                 0.7714
 IR Inten    --      0.3004                10.0526                10.1212

                     19                     20                     21
                      A                      A                      A
 Frequencies --    420.6558               420.6730               424.7060
 Red. masses --      3.2792                 3.2805                 3.1347
 Frc consts  --      0.3419                 0.3420                 0.3331
 IR Inten    --      1.1434                 1.0840                 0.0231

                     22                     23                     24
                      A                      A                      A
 Frequencies --    435.0854               435.1670               463.5292
 Red. masses --      6.1481                 6.1501                 6.6433
 Frc consts  --      0.6857                 0.6862                 0.8410
 IR Inten    --     18.9860                18.9862                 7.3976

                     25                     26                     27
                      A                      A                      A
 Frequencies --    533.0024               533.0593               535.5073
 Red. masses --      2.8115                 2.8110                 2.9072
 Frc consts  --      0.4706                 0.4706                 0.4912
 IR Inten    --     21.8661                21.8585                13.4953

                     28                     29                     30
                      A                      A                      A
 Frequencies --    608.0487               630.0020               630.0308
 Red. masses --      7.9085                 7.8293                 7.8298
 Frc consts  --      1.7228                 1.8309                 1.8312
 IR Inten    --      0.0094                 0.0382                 0.0381

                     31                     32                     33
                      A                      A                      A
 Frequencies --    648.2356               648.4134               648.4217
 Red. masses --      7.2769                 7.3803                 7.3800
 Frc consts  --      1.8016                 1.8282                 1.8282
 IR Inten    --      0.0050                 0.1286                 0.1277

                     34                     35                     36
                      A                      A                      A
 Frequencies --    715.1287               715.6135               715.6744
 Red. masses --      4.8097                 4.8257                 4.8269
 Frc consts  --      1.4492                 1.4560                 1.4566
 IR Inten    --      1.0203                 3.9442                 3.9738

                     37                     38                     39
                      A                      A                      A
 Frequencies --    835.7150               835.7955               836.8393
 Red. masses --      1.2634                 1.2628                 1.3267
 Frc consts  --      0.5199                 0.5197                 0.5474
 IR Inten    --      0.5198                 0.5399                11.2869

                     40                     41                     42
                      A                      A                      A
 Frequencies --    839.5163               839.5524               839.8073
 Red. masses --      3.2501                 3.2553                 4.0432
 Frc consts  --      1.3496                 1.3519                 1.6801
 IR Inten    --     62.3777                62.0923                17.5627

                     43                     44                     45
                      A                      A                      A
 Frequencies --    843.6733               843.7419               844.0372
 Red. masses --      2.0053                 1.9925                 1.6636
 Frc consts  --      0.8410                 0.8357                 0.6983
 IR Inten    --      9.9266                 9.9950                12.3104

                     46                     47                     48
                      A                      A                      A
 Frequencies --    958.6149               958.6843               959.8307
 Red. masses --      1.2561                 1.2560                 1.2586
 Frc consts  --      0.6801                 0.6801                 0.6832
 IR Inten    --      0.1700                 0.1673                 0.3367

                     49                     50                     51
                      A                      A                      A
 Frequencies --    969.8647               969.9462               973.3877
 Red. masses --      1.3355                 1.3354                 1.3197
 Frc consts  --      0.7401                 0.7402                 0.7367
 IR Inten    --      0.0363                 0.0335                 0.3123

                     52                     53                     54
                      A                      A                      A
 Frequencies --   1034.7027              1034.7904              1035.1754
 Red. masses --      3.0263                 3.0311                 3.0237
 Frc consts  --      1.9089                 1.9123                 1.9091
 IR Inten    --      7.9673                 7.8861                 0.1465

                     55                     56                     57
                      A                      A                      A
 Frequencies --   1102.8849              1103.0628              1108.7845
 Red. masses --      3.6688                 3.6659                 3.5544
 Frc consts  --      2.6293                 2.6281                 2.5746
 IR Inten    --     19.2194                19.2106                 1.8810

                     58                     59                     60
                      A                      A                      A
 Frequencies --   1127.5450              1127.6867              1127.8961
 Red. masses --      1.3302                 1.3304                 1.3290
 Frc consts  --      0.9964                 0.9968                 0.9961
 IR Inten    --      0.9402                 0.8739                 7.2207

                     61                     62                     63
                      A                      A                      A
 Frequencies --   1195.2159              1195.5116              1199.4703
 Red. masses --      1.1837                 1.1850                 1.1803
 Frc consts  --      0.9963                 0.9979                 1.0005
 IR Inten    --     60.6253                61.0563                 2.5433

                     64                     65                     66
                      A                      A                      A
 Frequencies --   1285.3285              1285.4235              1286.2017
 Red. masses --      3.7544                 3.7454                 3.7841
 Frc consts  --      3.6544                 3.6462                 3.6883
 IR Inten    --    167.3175               166.8050                38.3804

                     67                     68                     69
                      A                      A                      A
 Frequencies --   1324.1211              1327.3129              1327.5944
 Red. masses --      2.7413                 2.2224                 2.2895
 Frc consts  --      2.8318                 2.3068                 2.3776
 IR Inten    --      8.8143                 3.9271                 3.8637

                     70                     71                     72
                      A                      A                      A
 Frequencies --   1336.7097              1336.8210              1337.0978
 Red. masses --      2.3306                 2.2615                 1.9359
 Frc consts  --      2.4535                 2.3812                 2.0392
 IR Inten    --      0.3519                 0.3198                 0.9195

                     73                     74                     75
                      A                      A                      A
 Frequencies --   1437.8984              1438.0749              1438.1722
 Red. masses --      2.9856                 2.9931                 2.9900
 Frc consts  --      3.6369                 3.6470                 3.6438
 IR Inten    --      7.0459                 2.6402                 2.4353

                     76                     77                     78
                      A                      A                      A
 Frequencies --   1545.5382              1545.6662              1546.4873
 Red. masses --      2.4082                 2.4059                 2.4448
 Frc consts  --      3.3892                 3.3866                 3.4450
 IR Inten    --    116.4923               116.4878                24.2287

                     79                     80                     81
                      A                      A                      A
 Frequencies --   1633.9332              1633.9582              1633.9692
 Red. masses --      6.9696                 6.9604                 6.9607
 Frc consts  --     10.9630                10.9489                10.9494
 IR Inten    --      9.4191                12.9053                12.4533

                     82                     83                     84
                      A                      A                      A
 Frequencies --   1653.5116              1653.5377              1654.3709
 Red. masses --      5.8093                 5.8070                 5.8796
 Frc consts  --      9.3582                 9.3547                 9.4812
 IR Inten    --     82.7647                82.7102                22.5545

                     85                     86                     87
                      A                      A                      A
 Frequencies --   3188.8309              3188.8608              3188.8711
 Red. masses --      1.0893                 1.0891                 1.0891
 Frc consts  --      6.5261                 6.5254                 6.5254
 IR Inten    --      9.4221                 2.0587                 1.9256

                     88                     89                     90
                      A                      A                      A
 Frequencies --   3205.9382              3205.9854              3206.6015
 Red. masses --      1.0878                 1.0878                 1.0878
 Frc consts  --      6.5872                 6.5873                 6.5904
 IR Inten    --      2.0317                 2.0485                 0.3448

                     91                     92                     93
                      A                      A                      A
 Frequencies --   3221.9334              3221.9737              3222.1748
 Red. masses --      1.0942                 1.0942                 1.0940
 Frc consts  --      6.6923                 6.6923                 6.6922
 IR Inten    --      2.8581                 3.2517                11.6654

                     94                     95                     96
                      A                      A                      A
 Frequencies --   3222.5578              3222.6928              3222.9000
 Red. masses --      1.0937                 1.0936                 1.0939
 Frc consts  --      6.6922                 6.6921                 6.6946
 IR Inten    --     12.0681                11.9941                 0.9371

 - Thermochemistry -
 -------------------
 Temperature   298.150 Kelvin.  Pressure   1.00000 Atm.
 Atom     1 has atomic number  6 and mass  12.00000

 Molecular mass:   316.06287 amu.
 Principal axes and moments of inertia in atomic units:
                           1         2         3
     Eigenvalues --  8314.846908321.22156**********
           X            0.99998   0.00561   0.00000
           Y           -0.00561   0.99998   0.00000
           Z           -0.00000  -0.00000   1.00000
 This molecule is an asymmetric top.
 Rotational symmetry number  1.
 Warning -- assumption of classical behavior for rotation
           may cause significant error
 Rotational temperatures (Kelvin)      0.01042     0.01041     0.00597
 Rotational constants (GHZ):           0.21705     0.21688     0.12430
 Zero-point vibrational energy     655271.7 (Joules/Mol)
                                  156.61369 (Kcal/Mol)
 Warning -- explicit consideration of  28 degrees of freedom as
           vibrations may cause significant error
 Vibrational temperatures:     33.26    33.84    53.76    53.91    57.60
          (Kelvin)             72.81   191.36   209.35   209.63   300.70
                              315.17   315.66   443.01   483.42   483.54
                              571.41   581.41   581.48   605.23   605.25
                              611.06   625.99   626.11   666.92   766.87
                              766.95   770.48   874.85   906.43   906.47
                              932.67   932.92   932.93  1028.91  1029.61
                             1029.70  1202.41  1202.52  1204.03  1207.88
                             1207.93  1208.30  1213.86  1213.96  1214.38
                             1379.23  1379.33  1380.98  1395.42  1395.54
                             1400.49  1488.71  1488.83  1489.39  1586.81
                             1587.06  1595.29  1622.29  1622.49  1622.79
                             1719.65  1720.07  1725.77  1849.30  1849.44
                             1850.56  1905.11  1909.71  1910.11  1923.23
                             1923.39  1923.79  2068.82  2069.07  2069.21
                             2223.68  2223.87  2225.05  2350.87  2350.90
                             2350.92  2379.03  2379.07  2380.27  4588.02
                             4588.06  4588.07  4612.63  4612.70  4613.58
                             4635.64  4635.70  4635.99  4636.54  4636.74
                             4637.03

 Zero-point correction=                           0.249580 (Hartree/Particle)
 Thermal correction to Energy=                    0.268014
 Thermal correction to Enthalpy=                  0.268959
 Thermal correction to Gibbs Free Energy=         0.199442
 Sum of electronic and zero-point Energies=          -1333.749395
 Sum of electronic and thermal Energies=             -1333.730960
 Sum of electronic and thermal Enthalpies=           -1333.730016
 Sum of electronic and thermal Free Energies=        -1333.799532

                     E (Thermal)             CV                S
                      KCal/Mol        Cal/Mol-Kelvin    Cal/Mol-Kelvin
 Total                  168.182             71.397            146.310
 Electronic               0.000              0.000              0.000
 Translational            0.889              2.981             43.148
 Rotational               0.889              2.981             35.262
 Vibrational            166.404             65.435             67.900
 Vibration     1          0.593              1.985              6.347
 Vibration     2          0.593              1.985              6.312
 Vibration     3          0.594              1.982              5.394
 Vibration     4          0.594              1.982              5.388
 Vibration     5          0.594              1.981              5.258
 Vibration     6          0.595              1.977              4.794
 Vibration     7          0.613              1.920              2.902
 Vibration     8          0.617              1.908              2.730
 Vibration     9          0.617              1.907              2.728
 Vibration    10          0.642              1.827              2.052
 Vibration    11          0.647              1.812              1.967
 Vibration    12          0.647              1.812              1.964
 Vibration    13          0.698              1.659              1.374
 Vibration    14          0.717              1.604              1.231
 Vibration    15          0.717              1.603              1.231
 Vibration    16          0.764              1.476              0.973
 Vibration    17          0.769              1.461              0.948
 Vibration    18          0.769              1.461              0.948
 Vibration    19          0.783              1.425              0.890
 Vibration    20          0.783              1.425              0.890
 Vibration    21          0.787              1.416              0.876
 Vibration    22          0.796              1.394              0.842
 Vibration    23          0.796              1.394              0.842
 Vibration    24          0.821              1.331              0.756
 Vibration    25          0.888              1.177              0.581
 Vibration    26          0.888              1.177              0.580
 Vibration    27          0.891              1.171              0.575
 Vibration    28          0.967              1.015              0.436

                           ! Non-Optimized Parameters !
 Normal termination of Gaussian 16 at Sun Aug 23 17:02:07 2020.
 Gaussian 16:  ES64L-G16RevA.03 25-Dec-2016

 ----------------------------------------------------------------------
 # TD(NStates=10, Root=1) B3LYP/6-31G* scf=qc volume pop=NPA density=cu
 rrent Geom=AllCheck Guess=Read
 ----------------------------------------------------------------------

 Structure from the checkpoint file:  "phosphine_5_conf33.chk"
 -------------------
 Title Card Required
 -------------------
 Charge =  0 Multiplicity = 1

                         Standard orientation:
 ---------------------------------------------------------------------
 Center     Atomic      Atomic             Coordinates (Angstroms)
 Number     Number       Type             X           Y           Z
 ---------------------------------------------------------------------
      1          6           0       -3.179073   -1.061891   -1.129335
      2          6           0       -1.892586   -0.936803   -0.603057
      3          6           0       -1.657718   -0.204771    0.571701
      4          6           0       -2.755178    0.393186    1.215588
      5          6           0       -4.044886    0.288349    0.697905
      6          6           0       -4.233981   -0.442264   -0.469987
      7          9           0       -5.479651   -0.559245   -0.973579
      8         15           0       -0.000753   -0.000257    1.375036
      9          6           0        1.005325   -1.332796    0.572029
     10          6           0        1.757200   -1.169357   -0.602303
     11          6           0        2.509649   -2.220298   -1.128569
     12          6           0        2.500953   -3.443906   -0.469594
     13          6           0        1.773206   -3.646260    0.697856
     14          6           0        1.036604   -2.582382    1.215511
     15          9           0        3.225960   -4.463583   -0.973199
     16          6           0        0.650860    1.537097    0.572183
     17          6           0        0.135604    2.105708   -0.603517
     18          6           0        0.670912    3.282150   -1.129893
     19          6           0        1.734119    3.886510   -0.469691
     20          6           0        2.271012    3.358250    0.699145
     21          6           0        1.716536    2.189133    1.216928
     22          9           0        2.256057    5.023534   -0.973423
     23          1           0       -3.371374   -1.628722   -2.034700
     24          1           0       -1.066032   -1.421706   -1.113210
     25          1           0       -2.600141    0.945866    2.138985
     26          1           0       -4.896628    0.749026    1.187667
     27          1           0        1.763409   -0.210921   -1.112165
     28          1           0        3.097025   -2.102790   -2.033626
     29          1           0        1.800375   -4.614391    1.187279
     30          1           0        0.479899   -2.725197    2.138457
     31          1           0       -0.696865    1.631821   -1.114397
     32          1           0        0.277175    3.731447   -2.036014
     33          1           0        3.095189    3.865968    1.189546
     34          1           0        2.116627    1.779166    2.141057
 ---------------------------------------------------------------------

 SCF Done:  E(RB3LYP) =  -1333.99897444     a.u. after    1 cycles

 Excitation energies and oscillator strengths:

 Excited State   1:      Singlet-A      4.5739 eV  271.07 nm  f=0.1356  <S**2>=0.000
      81 -> 82         0.69340
 This state for optimization and/or second-order correction.
 Total Energy, E(TD-HF/TD-DFT) =  -1333.83088508
 Copying the excited state density for this state as the 1-particle RhoCI density.

 Excited State   2:      Singlet-A      4.5747 eV  271.02 nm  f=0.1360  <S**2>=0.000
      81 -> 83         0.69340

 Excited State   3:      Singlet-A      4.5855 eV  270.38 nm  f=0.0088  <S**2>=0.000
      81 -> 84         0.68931

 Excited State   4:      Singlet-A      4.9053 eV  252.76 nm  f=0.0017  <S**2>=0.000
      81 -> 85         0.67732

 Excited State   5:      Singlet-A      4.9057 eV  252.73 nm  f=0.0017  <S**2>=0.000
      81 -> 86         0.67724

 Excited State   6:      Singlet-A      5.2389 eV  236.66 nm  f=0.0075  <S**2>=0.000
      79 -> 82        -0.11212
      80 -> 83         0.11227
      81 -> 87         0.67234

 Excited State   7:      Singlet-A      5.4173 eV  228.87 nm  f=0.0000  <S**2>=0.000
      75 -> 84         0.14248
      77 -> 82         0.13831
      77 -> 83        -0.10645
      78 -> 82        -0.10684
      78 -> 83        -0.13441
      79 -> 82         0.25014
      79 -> 83         0.32104
      79 -> 85         0.16170
      80 -> 82         0.32151
      80 -> 83        -0.24880
      80 -> 86        -0.15939

 Excited State   8:      Singlet-A      5.4453 eV  227.69 nm  f=0.0020  <S**2>=0.000
      76 -> 82        -0.21331
      77 -> 82         0.17522
      78 -> 83         0.17794
      79 -> 84         0.39252
      79 -> 85         0.15181
      80 -> 84        -0.31246
      80 -> 86         0.15453
      81 -> 85         0.10877

 Excited State   9:      Singlet-A      5.4454 eV  227.68 nm  f=0.0021  <S**2>=0.000
      76 -> 83         0.21247
      77 -> 83         0.17690
      78 -> 82        -0.17552
      79 -> 84         0.31119
      79 -> 86         0.15290
      80 -> 84         0.39402
      80 -> 85        -0.15341
      81 -> 86        -0.10901

 Excited State  10:      Singlet-A      5.6625 eV  218.96 nm  f=0.0006  <S**2>=0.000
      75 -> 84        -0.16577
      76 -> 84        -0.10237
      77 -> 82        -0.18680
      77 -> 83         0.16171
      78 -> 82         0.16129
      78 -> 83         0.18350
      79 -> 83         0.28125
      79 -> 85        -0.25470
      80 -> 82         0.30858
      80 -> 86         0.25796

 The electronic state is 1-A.
 Alpha  occ. eigenvalues --  -77.09286 -24.70934 -24.70932 -24.70932 -10.27930
 Alpha  occ. eigenvalues --  -10.27928 -10.27928 -10.20802 -10.20801 -10.20801
 Alpha  occ. eigenvalues --  -10.20701 -10.20700 -10.20698 -10.20479 -10.20479
 Alpha  occ. eigenvalues --  -10.20478 -10.20317 -10.20316 -10.20315 -10.20309
 Alpha  occ. eigenvalues --  -10.20308 -10.20308  -6.55987  -4.72248  -4.72248
 Alpha  occ. eigenvalues --   -4.71744  -1.22112  -1.22111  -1.22110  -0.87208
 Alpha  occ. eigenvalues --   -0.86556  -0.86554  -0.77803  -0.76322  -0.76286
 Alpha  occ. eigenvalues --   -0.76285  -0.74868  -0.74867  -0.65458  -0.63137
 Alpha  occ. eigenvalues --   -0.62959  -0.62958  -0.60998  -0.60997  -0.57074
 Alpha  occ. eigenvalues --   -0.54665  -0.54665  -0.54254  -0.49446  -0.49446
 Alpha  occ. eigenvalues --   -0.49381  -0.48018  -0.48018  -0.46310  -0.46309
 Alpha  occ. eigenvalues --   -0.46296  -0.45864  -0.44921  -0.44921  -0.43856
 Alpha  occ. eigenvalues --   -0.43706  -0.43705  -0.42083  -0.40157  -0.40108
 Alpha  occ. eigenvalues --   -0.40107  -0.37160  -0.37158  -0.36440  -0.34997
 Alpha  occ. eigenvalues --   -0.34996  -0.34951  -0.33924  -0.33923  -0.27234
 Alpha  occ. eigenvalues --   -0.26850  -0.26599  -0.26598  -0.25424  -0.25422
 Alpha  occ. eigenvalues --   -0.21917
 Alpha virt. eigenvalues --   -0.02510  -0.02508  -0.02415  -0.01173  -0.01171
 Alpha virt. eigenvalues --   -0.00311   0.05881   0.05887   0.08468   0.10087
 Alpha virt. eigenvalues --    0.10088   0.12849   0.13529   0.13530   0.14051

 Mulliken charges:
               1
     1  C   -0.182558
     2  C   -0.161531
     3  C   -0.078637
     4  C   -0.155732
     5  C   -0.189754
     6  C    0.386669
     7  F   -0.284424
     8  P    0.435534
     9  C   -0.108682
    10  C   -0.155616
    11  C   -0.189929
    12  C    0.366198
    13  C   -0.180439
    14  C   -0.178358
    15  F   -0.292828
    16  C   -0.122317
    17  C   -0.186912
    18  C   -0.179839
    19  C    0.340762
    20  C   -0.195490
    21  C   -0.164044
    22  F   -0.304676
    23  H    0.161045
    24  H    0.166944
    25  H    0.157040
    26  H    0.158502
    27  H    0.169304
    28  H    0.152579
    29  H    0.148475
    30  H    0.139397
    31  H    0.127957
    32  H    0.137507
    33  H    0.134694
    34  H    0.129160
 Sum of Mulliken charges =  -0.00000

 Dipole moment (field-independent basis, Debye):
    X=             -2.3126    Y=             -2.2430    Z=              1.4559  Tot=              3.5353
 Quadrupole moment (field-independent basis, Debye-Ang):
   XX=           -133.7735   YY=           -145.2442   ZZ=           -121.8381
   XY=             -2.5357   XZ=             -0.1237   YZ=              0.8528

 Summary of Natural Population Analysis:

                                       Natural Population
                Natural  -----------------------------------------------
    Atom  No    Charge         Core      Valence    Rydberg      Total
 -----------------------------------------------------------------------
      C    1   -0.29404      1.99898     4.28034    0.01473     6.29404
      C    2   -0.21752      1.99901     4.20173    0.01678     6.21752
      C    3   -0.39057      1.99890     4.36726    0.02441     6.39057
      C    4   -0.18543      1.99903     4.17123    0.01518     6.18543
      C    5   -0.31344      1.99899     4.29902    0.01543     6.31344
      C    6    0.44881      1.99844     3.52557    0.02717     5.55119
      F    7   -0.32140      1.99994     7.31588    0.00558     9.32140
      P    8    1.21001      9.99756     3.74088    0.05155    13.78999
      C    9   -0.44690      1.99889     4.42134    0.02667     6.44690
      C   10   -0.20084      1.99901     4.18527    0.01656     6.20084
      C   11   -0.30617      1.99899     4.29201    0.01518     6.30617
      C   12    0.41416      1.99844     3.55977    0.02763     5.58584
      C   13   -0.29494      1.99899     4.28110    0.01485     6.29494
      C   14   -0.22506      1.99903     4.20981    0.01622     6.22506
      F   15   -0.32893      1.99994     7.32343    0.00556     9.32893
      C   16   -0.48063      1.99887     4.45641    0.02536     6.48063
      C   17   -0.27151      1.99900     4.25392    0.01859     6.27151
      C   18   -0.28628      1.99899     4.27238    0.01491     6.28628
      C   19    0.37339      1.99844     3.60014    0.02803     5.62661
      C   20   -0.32253      1.99900     4.30755    0.01599     6.32253
      C   21   -0.20239      1.99902     4.18759    0.01578     6.20239
      F   22   -0.33934      1.99994     7.33391    0.00548     9.33934
      H   23    0.25844      0.00000     0.74038    0.00118     0.74156
      H   24    0.25680      0.00000     0.74200    0.00121     0.74320
      H   25    0.24753      0.00000     0.75123    0.00124     0.75247
      H   26    0.25721      0.00000     0.74162    0.00117     0.74279
      H   27    0.25748      0.00000     0.74099    0.00153     0.74252
      H   28    0.25467      0.00000     0.74414    0.00119     0.74533
      H   29    0.25175      0.00000     0.74701    0.00124     0.74825
      H   30    0.23714      0.00000     0.76189    0.00097     0.76286
      H   31    0.23485      0.00000     0.76364    0.00151     0.76515
      H   32    0.24711      0.00000     0.75168    0.00121     0.75289
      H   33    0.24594      0.00000     0.75287    0.00119     0.75406
      H   34    0.23260      0.00000     0.76640    0.00100     0.76740
 =======================================================================
   * Total *    0.00000     51.97740   109.59035    0.43225   162.00000

 Normal termination of Gaussian 16 at Sun Aug 23 17:17:01 2020.
