 Gaussian 16, Revision A.03,

 ---------------------------------
 # opt=CalcAll B3LYP/6-31G* scf=qc
 ---------------------------------

 -------------------
 Title Card Required
 -------------------
 Symbolic Z-matrix:
 Charge =  0 Multiplicity = 1

 SCF Done:  E(RB3LYP) =  -2415.06161942     a.u. after    8 cycles
 SCF Done:  E(RB3LYP) =  -2415.06851572     a.u. after   17 cycles
 SCF Done:  E(RB3LYP) =  -2415.08334373     a.u. after   17 cycles
 SCF Done:  E(RB3LYP) =  -2415.08374330     a.u. after   19 cycles
 SCF Done:  E(RB3LYP) =  -2415.08560013     a.u. after   17 cycles
 SCF Done:  E(RB3LYP) =  -2415.08606684     a.u. after   15 cycles
 SCF Done:  E(RB3LYP) =  -2415.08617180     a.u. after   15 cycles
 SCF Done:  E(RB3LYP) =  -2415.08623038     a.u. after    6 cycles
 SCF Done:  E(RB3LYP) =  -2415.08624540     a.u. after    7 cycles
 SCF Done:  E(RB3LYP) =  -2415.08624657     a.u. after    3 cycles
 SCF Done:  E(RB3LYP) =  -2415.08624749     a.u. after    2 cycles
 SCF Done:  E(RB3LYP) =  -2415.08624547     a.u. after    2 cycles
 SCF Done:  E(RB3LYP) =  -2415.08624791     a.u. after    2 cycles
 SCF Done:  E(RB3LYP) =  -2415.08624141     a.u. after    2 cycles
 SCF Done:  E(RB3LYP) =  -2415.08624422     a.u. after    2 cycles
 SCF Done:  E(RB3LYP) =  -2415.08624237     a.u. after    2 cycles
 Optimization completed.
    -- Stationary point found.
 Normal termination of Gaussian 16 at Sun Aug 23 03:36:52 2020.

 ----------------------------------------------------------------------
 # freq B3LYP/6-31G* scf=qc volume NMR pop=NPA density=current Geom=All
 Check Guess=Read
 ----------------------------------------------------------------------

 Structure from the checkpoint file:  "phosphine_11_conf272.chk"
 -------------------
 Title Card Required
 -------------------
 Charge =  0 Multiplicity = 1

 SCF Done:  E(RB3LYP) =  -2415.08624237     a.u. after    1 cycles

      1  C    Isotropic =    67.5433   Anisotropy =   140.5768

      2  C    Isotropic =    60.2057   Anisotropy =   160.2656

      3  C    Isotropic =    58.7563   Anisotropy =   177.4551

      4  C    Isotropic =    61.8787   Anisotropy =   168.6490

      5  C    Isotropic =    67.5392   Anisotropy =   140.1121

      6  C    Isotropic =    51.5836   Anisotropy =   109.1724

      7  Cl   Isotropic =   720.8745   Anisotropy =   453.0145

      8  P    Isotropic =   364.8613   Anisotropy =    37.7668

      9  C    Isotropic =    58.7174   Anisotropy =   177.4840

     10  C    Isotropic =    61.9216   Anisotropy =   168.6136

     11  C    Isotropic =    67.5449   Anisotropy =   140.1208

     12  C    Isotropic =    51.6160   Anisotropy =   109.1031

     13  C    Isotropic =    67.5537   Anisotropy =   140.5395

     14  C    Isotropic =    60.2482   Anisotropy =   160.3179

     15  Cl   Isotropic =   720.9248   Anisotropy =   453.0458

     16  C    Isotropic =    58.7654   Anisotropy =   177.4119

     17  C    Isotropic =    60.2151   Anisotropy =   160.2936

     18  C    Isotropic =    67.5474   Anisotropy =   140.5815

     19  C    Isotropic =    51.5976   Anisotropy =   109.1442

     20  C    Isotropic =    67.5368   Anisotropy =   140.1151

     21  C    Isotropic =    61.8862   Anisotropy =   168.6362

     22  Cl   Isotropic =   720.9745   Anisotropy =   452.8938

     23  H    Isotropic =    25.0923   Anisotropy =     6.6325

     24  H    Isotropic =    24.7752   Anisotropy =     8.9635

     25  H    Isotropic =    25.5787   Anisotropy =    12.1049

     26  H    Isotropic =    25.2084   Anisotropy =     8.1406

     27  H    Isotropic =    25.5809   Anisotropy =    12.1295

     28  H    Isotropic =    25.2080   Anisotropy =     8.1436

     29  H    Isotropic =    25.0971   Anisotropy =     6.6260

     30  H    Isotropic =    24.7794   Anisotropy =     8.9784

     31  H    Isotropic =    24.7780   Anisotropy =     8.9696

     32  H    Isotropic =    25.0905   Anisotropy =     6.6349

     33  H    Isotropic =    25.2084   Anisotropy =     8.1420

     34  H    Isotropic =    25.5797   Anisotropy =    12.1195

  Exact polarizability: 280.654  -0.088 280.498  -0.064   0.069 185.158
 Approx polarizability: 393.517  -0.207 393.240  -0.146   0.161 343.251

                      1                      2                      3
                      A                      A                      A
 Frequencies --     20.9724                22.4444                29.2780
 Red. masses --      4.4654                 4.6748                 9.7842
 Frc consts  --      0.0012                 0.0014                 0.0049
 IR Inten    --      0.2898                 0.2781                 0.1688

                      4                      5                      6
                      A                      A                      A
 Frequencies --     29.4780                38.1158                39.7380
 Red. masses --      8.8560                 6.0492                 5.6438
 Frc consts  --      0.0045                 0.0052                 0.0053
 IR Inten    --      0.1875                 0.1521                 0.0748

                      7                      8                      9
                      A                      A                      A
 Frequencies --    109.2677               117.5625               117.7450
 Red. masses --      8.8640                 8.8329                 8.8273
 Frc consts  --      0.0624                 0.0719                 0.0721
 IR Inten    --      0.0249                 0.3550                 0.3530

                     10                     11                     12
                      A                      A                      A
 Frequencies --    181.0369               187.4741               187.5622
 Red. masses --     10.0360                 8.7878                 8.7916
 Frc consts  --      0.1938                 0.1820                 0.1822
 IR Inten    --      0.3315                 0.5702                 0.5711

                     13                     14                     15
                      A                      A                      A
 Frequencies --    264.0077               293.6021               293.7362
 Red. masses --      8.9802                 8.4025                 8.4102
 Frc consts  --      0.3688                 0.4268                 0.4275
 IR Inten    --      0.2153                 0.9004                 0.9134

                     16                     17                     18
                      A                      A                      A
 Frequencies --    310.8599               328.6983               328.8351
 Red. masses --      6.0436                 5.9878                 5.9782
 Frc consts  --      0.3441                 0.3812                 0.3809
 IR Inten    --      0.0031                 1.8965                 1.8777

                     19                     20                     21
                      A                      A                      A
 Frequencies --    383.9511               384.0822               414.6148
 Red. masses --      8.0213                 8.0270                 3.0443
 Frc consts  --      0.6967                 0.6977                 0.3083
 IR Inten    --     20.9651                20.9788                 0.0546

                     22                     23                     24
                      A                      A                      A
 Frequencies --    414.6754               416.7148               426.8818
 Red. masses --      3.0461                 3.2072                 6.6245
 Frc consts  --      0.3086                 0.3281                 0.7112
 IR Inten    --      0.0559                 0.1599                 2.9474

                     25                     26                     27
                      A                      A                      A
 Frequencies --    499.4290               509.3423               509.5421
 Red. masses --      5.5117                 3.6451                 3.6487
 Frc consts  --      0.8100                 0.5572                 0.5582
 IR Inten    --      6.8632                19.8824                19.9210

                     28                     29                     30
                      A                      A                      A
 Frequencies --    531.5830               548.7448               548.8669
 Red. masses --      4.5769                 7.4284                 7.4373
 Frc consts  --      0.7620                 1.3179                 1.3201
 IR Inten    --      9.8343                 5.4536                 5.4493

                     31                     32                     33
                      A                      A                      A
 Frequencies --    644.3531               644.3852               645.3075
 Red. masses --      7.1597                 7.1603                 7.1685
 Frc consts  --      1.7514                 1.7517                 1.7588
 IR Inten    --      0.0368                 0.0367                 0.0957

                     34                     35                     36
                      A                      A                      A
 Frequencies --    718.1702               718.3180               718.6489
 Red. masses --      4.5867                 4.5913                 4.6049
 Frc consts  --      1.3938                 1.3958                 1.4012
 IR Inten    --      1.6625                 1.6672                 0.3003

                     37                     38                     39
                      A                      A                      A
 Frequencies --    746.1029               751.5871               751.6413
 Red. masses --      7.2604                 7.2718                 7.2740
 Frc consts  --      2.3813                 2.4202                 2.4213
 IR Inten    --     14.6265                54.3848                54.3391

                     40                     41                     42
                      A                      A                      A
 Frequencies --    833.7006               834.1715               834.1907
 Red. masses --      1.4166                 1.4324                 1.4317
 Frc consts  --      0.5801                 0.5873                 0.5870
 IR Inten    --     23.2774                32.8347                33.0187

                     43                     44                     45
                      A                      A                      A
 Frequencies --    845.8578               845.9140               848.9390
 Red. masses --      1.2467                 1.2466                 1.2500
 Frc consts  --      0.5256                 0.5255                 0.5308
 IR Inten    --      0.6476                 0.6016                 0.2888

                     46                     47                     48
                      A                      A                      A
 Frequencies --    969.5556               969.6125               970.0194
 Red. masses --      1.2757                 1.2765                 1.2875
 Frc consts  --      0.7065                 0.7071                 0.7137
 IR Inten    --      0.1587                 0.1484                 0.2207

                     49                     50                     51
                      A                      A                      A
 Frequencies --    973.3068               973.4373               976.5986
 Red. masses --      1.3466                 1.3448                 1.3225
 Frc consts  --      0.7516                 0.7508                 0.7431
 IR Inten    --      0.0105                 0.0129                 0.4240

                     52                     53                     54
                      A                      A                      A
 Frequencies --   1027.9473              1028.0016              1029.6148
 Red. masses --      4.7544                 4.7626                 4.6987
 Frc consts  --      2.9599                 2.9654                 2.9348
 IR Inten    --     62.6942                62.7177                 5.1217

                     55                     56                     57
                      A                      A                      A
 Frequencies --   1097.6862              1097.7971              1101.5096
 Red. masses --      7.8835                 7.9206                 8.0722
 Frc consts  --      5.5966                 5.6241                 5.7706
 IR Inten    --     80.5355                81.5213                13.7136

                     58                     59                     60
                      A                      A                      A
 Frequencies --   1118.0760              1118.2976              1121.1907
 Red. masses --      2.1239                 2.1213                 2.1020
 Frc consts  --      1.5643                 1.5630                 1.5568
 IR Inten    --     33.4844                32.7611                 6.3775

                     61                     62                     63
                      A                      A                      A
 Frequencies --   1139.2129              1139.3535              1139.5416
 Red. masses --      1.4007                 1.4014                 1.4019
 Frc consts  --      1.0710                 1.0719                 1.0726
 IR Inten    --      0.1253                 1.1243                 2.8693

                     64                     65                     66
                      A                      A                      A
 Frequencies --   1218.9245              1219.3145              1220.8106
 Red. masses --      1.1568                 1.1572                 1.1517
 Frc consts  --      1.0127                 1.0137                 1.0113
 IR Inten    --      4.8302                 4.8052                 0.9155

                     67                     68                     69
                      A                      A                      A
 Frequencies --   1318.2760              1322.2040              1322.2931
 Red. masses --      6.8768                 7.4955                 7.6345
 Frc consts  --      7.0413                 7.7206                 7.8647
 IR Inten    --      1.3265                 2.6836                 2.6512

                     70                     71                     72
                      A                      A                      A
 Frequencies --   1337.0494              1337.3807              1337.6670
 Red. masses --      1.3385                 1.3364                 1.3491
 Frc consts  --      1.4098                 1.4083                 1.4222
 IR Inten    --      0.3486                 0.5690                 1.3588

                     73                     74                     75
                      A                      A                      A
 Frequencies --   1429.4953              1429.8814              1430.0154
 Red. masses --      2.6368                 2.6456                 2.6415
 Frc consts  --      3.1746                 3.1869                 3.1826
 IR Inten    --     19.0775                 6.6211                 6.2032

                     76                     77                     78
                      A                      A                      A
 Frequencies --   1527.0057              1527.0766              1527.1392
 Red. masses --      2.0787                 2.0917                 2.0800
 Frc consts  --      2.8558                 2.8739                 2.8580
 IR Inten    --     63.0257                25.3024                53.6494

                     79                     80                     81
                      A                      A                      A
 Frequencies --   1611.0033              1611.2387              1611.2660
 Red. masses --      6.6444                 6.6675                 6.6624
 Frc consts  --     10.1602                10.1985                10.1909
 IR Inten    --      3.8617                 3.8549                 3.7811

                     82                     83                     84
                      A                      A                      A
 Frequencies --   1633.4010              1633.4230              1634.4679
 Red. masses --      5.4328                 5.4280                 5.4944
 Frc consts  --      8.5401                 8.5328                 8.6481
 IR Inten    --     29.7948                29.7210                13.1341

                     85                     86                     87
                      A                      A                      A
 Frequencies --   3188.0113              3188.0760              3188.2114
 Red. masses --      1.0892                 1.0892                 1.0892
 Frc consts  --      6.5225                 6.5225                 6.5231
 IR Inten    --      5.7778                 3.4180                 3.4927

                     88                     89                     90
                      A                      A                      A
 Frequencies --   3205.6804              3205.8807              3206.4173
 Red. masses --      1.0878                 1.0878                 1.0879
 Frc consts  --      6.5866                 6.5871                 6.5897
 IR Inten    --      0.8639                 0.8577                 0.6536

                     91                     92                     93
                      A                      A                      A
 Frequencies --   3222.6039              3222.6126              3222.7384
 Red. masses --      1.0937                 1.0937                 1.0937
 Frc consts  --      6.6923                 6.6923                 6.6924
 IR Inten    --      2.4013                 2.1778                10.0712

                     94                     95                     96
                      A                      A                      A
 Frequencies --   3223.6300              3223.6741              3223.9110
 Red. masses --      1.0940                 1.0939                 1.0941
 Frc consts  --      6.6979                 6.6979                 6.7002
 IR Inten    --      5.6470                 5.6060                 0.0890

 - Thermochemistry -
 -------------------
 Temperature   298.150 Kelvin.  Pressure   1.00000 Atm.
 Atom     1 has atomic number  6 and mass  12.00000

 Molecular mass:   363.97422 amu.
 Principal axes and moments of inertia in atomic units:
                           1         2         3
     Eigenvalues --  ******************************
           X            0.99956  -0.02954  -0.00001
           Y            0.02954   0.99956   0.00001
           Z            0.00001  -0.00001   1.00000
 This molecule is an asymmetric top.
 Rotational symmetry number  1.
 Warning -- assumption of classical behavior for rotation
           may cause significant error
 Rotational temperatures (Kelvin)      0.00723     0.00723     0.00405
 Rotational constants (GHZ):           0.15066     0.15058     0.08441
 Zero-point vibrational energy     643720.5 (Joules/Mol)
                                  153.85290 (Kcal/Mol)
 Warning -- explicit consideration of  30 degrees of freedom as
           vibrations may cause significant error
 Vibrational temperatures:     30.17    32.29    42.12    42.41    54.84
          (Kelvin)             57.17   157.21   169.15   169.41   260.47
                              269.73   269.86   379.85   422.43   422.62
                              447.26   472.92   473.12   552.42   552.61
                              596.54   596.63   599.56   614.19   718.57
                              732.83   733.12   764.83   789.52   789.70
                              927.08   927.13   928.45  1033.29  1033.50
                             1033.98  1073.48  1081.37  1081.44  1199.51
                             1200.19  1200.21  1217.00  1217.08  1221.43
                             1394.97  1395.06  1395.64  1400.37  1400.56
                             1405.11  1478.99  1479.06  1481.39  1579.33
                             1579.49  1584.83  1608.66  1608.98  1613.14
                             1639.07  1639.28  1639.55  1753.76  1754.32
                             1756.47  1896.71  1902.36  1902.48  1923.72
                             1924.19  1924.60  2056.72  2057.28  2057.47
                             2197.02  2197.12  2197.21  2317.87  2318.21
                             2318.25  2350.10  2350.13  2351.63  4586.84
                             4586.93  4587.13  4612.26  4612.55  4613.32
                             4636.61  4636.62  4636.80  4638.08  4638.15
                             4638.49

 Zero-point correction=                           0.245180 (Hartree/Particle)
 Thermal correction to Energy=                    0.264837
 Thermal correction to Enthalpy=                  0.265781
 Thermal correction to Gibbs Free Energy=         0.192183
 Sum of electronic and zero-point Energies=          -2414.841062
 Sum of electronic and thermal Energies=             -2414.821406
 Sum of electronic and thermal Enthalpies=           -2414.820461
 Sum of electronic and thermal Free Energies=        -2414.894059

                     E (Thermal)             CV                S
                      KCal/Mol        Cal/Mol-Kelvin    Cal/Mol-Kelvin
 Total                  166.188             74.126            154.900
 Electronic               0.000              0.000              0.000
 Translational            0.889              2.981             43.569
 Rotational               0.889              2.981             36.372
 Vibrational            164.410             68.164             74.960
 Vibration     1          0.593              1.986              6.540
 Vibration     2          0.593              1.985              6.405
 Vibration     3          0.593              1.984              5.878
 Vibration     4          0.593              1.984              5.864
 Vibration     5          0.594              1.982              5.355
 Vibration     6          0.594              1.981              5.272
 Vibration     7          0.606              1.942              3.282
 Vibration     8          0.608              1.935              3.140
 Vibration     9          0.608              1.935              3.137
 Vibration    10          0.630              1.865              2.318
 Vibration    11          0.632              1.857              2.253
 Vibration    12          0.632              1.857              2.252
 Vibration    13          0.671              1.739              1.635
 Vibration    14          0.688              1.686              1.453
 Vibration    15          0.689              1.685              1.452
 Vibration    16          0.700              1.653              1.358
 Vibration    17          0.712              1.618              1.266
 Vibration    18          0.712              1.618              1.266
 Vibration    19          0.753              1.504              1.024
 Vibration    20          0.753              1.504              1.023
 Vibration    21          0.778              1.438              0.910
 Vibration    22          0.778              1.438              0.910
 Vibration    23          0.780              1.434              0.903
 Vibration    24          0.789              1.412              0.869
 Vibration    25          0.855              1.251              0.660
 Vibration    26          0.864              1.229              0.635
 Vibration    27          0.865              1.229              0.635
 Vibration    28          0.887              1.180              0.584
 Vibration    29          0.904              1.142              0.547
 Vibration    30          0.904              1.142              0.547

                           ! Non-Optimized Parameters !
 Normal termination of Gaussian 16 at Sun Aug 23 03:53:27 2020.
 Gaussian 16:  ES64L-G16RevA.03 25-Dec-2016

 ----------------------------------------------------------------------
 # TD(NStates=10, Root=1) B3LYP/6-31G* scf=qc volume pop=NPA density=cu
 rrent Geom=AllCheck Guess=Read
 ----------------------------------------------------------------------

 Structure from the checkpoint file:  "phosphine_11_conf273.chk"
 -------------------
 Title Card Required
 -------------------
 Charge =  0 Multiplicity = 1

                         Standard orientation:
 ---------------------------------------------------------------------
 Center     Atomic      Atomic             Coordinates (Angstroms)
 Number     Number       Type             X           Y           Z
 ---------------------------------------------------------------------
      1          6           0       -2.014725    3.515087    0.854835
      2          6           0       -1.204760    2.506980    1.374505
      3          6           0       -1.097925    1.256719    0.742705
      4          6           0       -1.848605    1.034178   -0.421364
      5          6           0       -2.673500    2.029028   -0.948276
      6          6           0       -2.745578    3.264100   -0.306191
      7         17           0       -3.781138    4.522193   -0.964604
      8         15           0        0.000418    0.000217    1.547767
      9          6           0       -0.539087   -1.579135    0.742841
     10          6           0        0.033510   -2.122076   -0.417065
     11          6           0       -0.416256   -3.333796   -0.943706
     12          6           0       -1.455088   -4.009442   -0.305662
     13          6           0       -2.042485   -3.497846    0.851241
     14          6           0       -1.573695   -2.292629    1.370821
     15         17           0       -2.027853   -5.535065   -0.963820
     16          6           0        1.637820    0.322693    0.742655
     17          6           0        2.773425   -0.213434    1.372557
     18          6           0        4.051570   -0.016442    0.853079
     19          6           0        4.200425    0.745238   -0.305733
     20          6           0        3.095422    1.303906   -0.945797
     21          6           0        1.821214    1.087249   -0.419183
     22         17           0        5.807971    1.012547   -0.963811
     23          1           0       -2.088213    4.478680    1.347807
     24          1           0       -0.650712    2.697101    2.290600
     25          1           0       -1.797696    0.074125   -0.925737
     26          1           0       -3.253150    1.848644   -1.847599
     27          1           0        0.843573   -1.601375   -0.918400
     28          1           0        0.033347   -3.748752   -1.839801
     29          1           0       -2.844369   -4.039952    1.341170
     30          1           0       -2.019114   -1.904750    2.283789
     31          1           0        2.660511   -0.790888    2.286969
     32          1           0        4.922323   -0.437377    1.344540
     33          1           0        3.229631    1.898598   -1.843374
     34          1           0        0.964862    1.525953   -0.922054
 ---------------------------------------------------------------------

 SCF Done:  E(RB3LYP) =  -2415.08624237     a.u. after    1 cycles

 Excitation energies and oscillator strengths:

 Excited State   1:      Singlet-A      4.4050 eV  281.46 nm  f=0.1827  <S**2>=0.000
      93 -> 94         0.69579
 This state for optimization and/or second-order correction.
 Total Energy, E(TD-HF/TD-DFT) =  -2414.92436304
 Copying the excited state density for this state as the 1-particle RhoCI density.

 Excited State   2:      Singlet-A      4.4075 eV  281.30 nm  f=0.1842  <S**2>=0.000
      93 -> 95         0.69576

 Excited State   3:      Singlet-A      4.6119 eV  268.84 nm  f=0.0036  <S**2>=0.000
      89 -> 94        -0.10982
      90 -> 95        -0.11032
      93 -> 96         0.67971

 Excited State   4:      Singlet-A      4.9172 eV  252.14 nm  f=0.0001  <S**2>=0.000
      88 -> 94         0.11703
      89 -> 97        -0.10045
      93 -> 98         0.64537

 Excited State   5:      Singlet-A      4.9183 eV  252.09 nm  f=0.0001  <S**2>=0.000
      88 -> 95        -0.11682
      90 -> 97         0.10135
      93 -> 99         0.64475

 Excited State   6:      Singlet-A      5.0221 eV  246.88 nm  f=0.0090  <S**2>=0.000
      91 -> 94         0.11722
      92 -> 95         0.11768
      93 -> 97         0.66873

 Excited State   7:      Singlet-A      5.2596 eV  235.73 nm  f=0.0017  <S**2>=0.000
      89 -> 94        -0.13311
      90 -> 95        -0.12968
      91 -> 94        -0.24035
      91 -> 95        -0.37143
      91 -> 98        -0.12589
      92 -> 94         0.37696
      92 -> 95        -0.23920
      92 -> 99         0.12333
      93 -> 96        -0.10393

 Excited State   8:      Singlet-A      5.3611 eV  231.27 nm  f=0.0051  <S**2>=0.000
      88 -> 94        -0.19198
      89 -> 95         0.17800
      89 -> 97         0.11207
      90 -> 94         0.17807
      91 -> 94        -0.13006
      91 -> 96         0.38221
      91 -> 98        -0.13447
      92 -> 95         0.13268
      92 -> 96         0.22166
      92 -> 99        -0.13453
      93 -> 98         0.22738

 Excited State   9:      Singlet-A      5.3621 eV  231.22 nm  f=0.0049  <S**2>=0.000
      88 -> 95        -0.18969
      89 -> 94         0.17828
      90 -> 95        -0.17704
      90 -> 97         0.11208
      91 -> 95         0.12516
      91 -> 96        -0.21975
      91 -> 99        -0.13225
      92 -> 94         0.13237
      92 -> 96         0.38508
      92 -> 98         0.13487
      93 -> 99        -0.22844

 Excited State  10:      Singlet-A      5.4210 eV  228.71 nm  f=0.1609  <S**2>=0.000
      91 -> 94         0.10624
      91 -> 95         0.45111
      92 -> 94         0.45384
      92 -> 95        -0.10142
      92 -> 96        -0.13584

 The electronic state is 1-A.
 Alpha  occ. eigenvalues -- -101.55494-101.55492-101.55490 -77.10094 -10.26331
 Alpha  occ. eigenvalues --  -10.26329 -10.26325 -10.21418 -10.21418 -10.21416
 Alpha  occ. eigenvalues --  -10.21368 -10.21367 -10.21365 -10.21348 -10.21346
 Alpha  occ. eigenvalues --  -10.21343 -10.21314 -10.21313 -10.21310 -10.21250
 Alpha  occ. eigenvalues --  -10.21248 -10.21245  -9.47126  -9.47124  -9.47122
 Alpha  occ. eigenvalues --   -7.23521  -7.23519  -7.23517  -7.22556  -7.22555
 Alpha  occ. eigenvalues --   -7.22552  -7.22519  -7.22517  -7.22515  -6.56809
 Alpha  occ. eigenvalues --   -4.73070  -4.73069  -4.72564  -0.89964  -0.89792
 Alpha  occ. eigenvalues --   -0.89789  -0.85153  -0.84238  -0.84235  -0.76898
 Alpha  occ. eigenvalues --   -0.76780  -0.76779  -0.76742  -0.73907  -0.73905
 Alpha  occ. eigenvalues --   -0.65058  -0.63150  -0.62987  -0.62986  -0.60497
 Alpha  occ. eigenvalues --   -0.60496  -0.57615  -0.52432  -0.52430  -0.49746
 Alpha  occ. eigenvalues --   -0.48088  -0.47999  -0.47998  -0.47167  -0.47166
 Alpha  occ. eigenvalues --   -0.46321  -0.44340  -0.44246  -0.44245  -0.42726
 Alpha  occ. eigenvalues --   -0.42723  -0.40319  -0.40239  -0.40236  -0.39581
 Alpha  occ. eigenvalues --   -0.37219  -0.37218  -0.37129  -0.35190  -0.35186
 Alpha  occ. eigenvalues --   -0.34135  -0.33462  -0.33458  -0.31868  -0.31863
 Alpha  occ. eigenvalues --   -0.31860  -0.27683  -0.27414  -0.27144  -0.27140
 Alpha  occ. eigenvalues --   -0.25831  -0.25825  -0.22678
 Alpha virt. eigenvalues --   -0.03960  -0.03953  -0.03033  -0.01964  -0.01789
 Alpha virt. eigenvalues --   -0.01783   0.02241   0.02244   0.02402   0.05588
 Alpha virt. eigenvalues --    0.05597   0.10344   0.12154   0.12344   0.12346

 Mulliken charges:
               1
     1  C   -0.126142
     2  C   -0.162106
     3  C   -0.119960
     4  C   -0.175225
     5  C   -0.115128
     6  C   -0.098714
     7  Cl  -0.041513
     8  P    0.446520
     9  C   -0.077938
    10  C   -0.151019
    11  C   -0.115010
    12  C   -0.064198
    13  C   -0.117320
    14  C   -0.153673
    15  Cl   0.015166
    16  C   -0.117837
    17  C   -0.173416
    18  C   -0.116208
    19  C   -0.088064
    20  C   -0.122140
    21  C   -0.158018
    22  Cl  -0.022907
    23  H    0.146067
    24  H    0.133132
    25  H    0.131087
    26  H    0.148179
    27  H    0.178726
    28  H    0.173580
    29  H    0.170437
    30  H    0.162716
    31  H    0.136937
    32  H    0.152644
    33  H    0.157296
    34  H    0.164050
 Sum of Mulliken charges =  -0.00000

 Dipole moment (field-independent basis, Debye):
    X=             -0.0595    Y=             -4.2081    Z=              1.9744  Tot=              4.6487
 Quadrupole moment (field-independent basis, Debye-Ang):
   XX=           -172.2557   YY=           -162.8505   ZZ=           -145.0380
   XY=              7.6491   XZ=             -0.7187   YZ=              0.7645

 Summary of Natural Population Analysis:

                                       Natural Population
                Natural  -----------------------------------------------
    Atom  No    Charge         Core      Valence    Rydberg      Total
 -----------------------------------------------------------------------
      C    1   -0.26507      1.99894     4.24948    0.01665     6.26507
      C    2   -0.20689      1.99901     4.19200    0.01588     6.20689
      C    3   -0.46626      1.99886     4.44286    0.02454     6.46626
      C    4   -0.25453      1.99899     4.23786    0.01769     6.25453
      C    5   -0.23827      1.99893     4.22369    0.01565     6.23827
      C    6   -0.08757      1.99854     4.06683    0.02220     6.08757
     Cl    7   -0.01500      9.99967     6.99491    0.02042    17.01500
      P    8    1.21203      9.99758     3.74054    0.04985    13.78797
      C    9   -0.37504      1.99890     4.35168    0.02446     6.37504
      C   10   -0.20110      1.99900     4.18601    0.01609     6.20110
      C   11   -0.23806      1.99892     4.22397    0.01517     6.23806
      C   12   -0.01661      1.99855     3.99580    0.02226     6.01661
      C   13   -0.24857      1.99893     4.23412    0.01553     6.24857
      C   14   -0.18744      1.99902     4.17337    0.01505     6.18744
     Cl   15    0.02766      9.99967     6.95337    0.01930    16.97234
      C   16   -0.45370      1.99889     4.42860    0.02621     6.45370
      C   17   -0.22222      1.99902     4.20722    0.01599     6.22222
      C   18   -0.24674      1.99894     4.23211    0.01570     6.24674
      C   19   -0.06545      1.99854     4.04463    0.02228     6.06545
      C   20   -0.25072      1.99893     4.23584    0.01595     6.25072
      C   21   -0.21355      1.99899     4.19761    0.01695     6.21355
     Cl   22   -0.00076      9.99967     6.98095    0.02014    17.00076
      H   23    0.25035      0.00000     0.74861    0.00103     0.74965
      H   24    0.23575      0.00000     0.76321    0.00104     0.76425
      H   25    0.23697      0.00000     0.76165    0.00138     0.76303
      H   26    0.25130      0.00000     0.74765    0.00105     0.74870
      H   27    0.26373      0.00000     0.73509    0.00118     0.73627
      H   28    0.26324      0.00000     0.73571    0.00105     0.73676
      H   29    0.26147      0.00000     0.73748    0.00105     0.73853
      H   30    0.25100      0.00000     0.74780    0.00120     0.74900
      H   31    0.23648      0.00000     0.76256    0.00096     0.76352
      H   32    0.25268      0.00000     0.74623    0.00109     0.74732
      H   33    0.25582      0.00000     0.74312    0.00106     0.74418
      H   34    0.25508      0.00000     0.74344    0.00148     0.74492
 =======================================================================
   * Total *    0.00000     75.97648   109.56603    0.45749   186.00000

 Normal termination of Gaussian 16 at Sun Aug 23 04:12:53 2020.
