 Gaussian 16, Revision A.03,

 ---------------------------------
 # opt=CalcAll B3LYP/6-31G* scf=qc
 ---------------------------------

 -------------------
 Title Card Required
 -------------------
 Symbolic Z-matrix:
 Charge =  0 Multiplicity = 1

 SCF Done:  E(RB3LYP) =  -1333.98330169     a.u. after    7 cycles
 SCF Done:  E(RB3LYP) =  -1333.99560738     a.u. after   17 cycles
 SCF Done:  E(RB3LYP) =  -1333.99765513     a.u. after   17 cycles
 SCF Done:  E(RB3LYP) =  -1333.99836773     a.u. after   15 cycles
 SCF Done:  E(RB3LYP) =  -1333.99871910     a.u. after   15 cycles
 SCF Done:  E(RB3LYP) =  -1333.99873317     a.u. after   17 cycles
 SCF Done:  E(RB3LYP) =  -1333.99808809     a.u. after   15 cycles
 SCF Done:  E(RB3LYP) =  -1333.99828534     a.u. after   15 cycles
 SCF Done:  E(RB3LYP) =  -1333.99871463     a.u. after   12 cycles
 SCF Done:  E(RB3LYP) =  -1333.99896312     a.u. after   13 cycles
 SCF Done:  E(RB3LYP) =  -1333.99897893     a.u. after    2 cycles
 SCF Done:  E(RB3LYP) =  -1333.99898257     a.u. after    2 cycles
 SCF Done:  E(RB3LYP) =  -1333.99897515     a.u. after    2 cycles
 SCF Done:  E(RB3LYP) =  -1333.99898100     a.u. after    4 cycles
 SCF Done:  E(RB3LYP) =  -1333.99898014     a.u. after    2 cycles
 SCF Done:  E(RB3LYP) =  -1333.99897661     a.u. after    2 cycles
 SCF Done:  E(RB3LYP) =  -1333.99897280     a.u. after    2 cycles
 SCF Done:  E(RB3LYP) =  -1333.99897976     a.u. after    2 cycles
 Optimization completed.
    -- Stationary point found.
 Normal termination of Gaussian 16 at Sun Aug 23 15:46:03 2020.

 ----------------------------------------------------------------------
 # freq B3LYP/6-31G* scf=qc volume NMR pop=NPA density=current Geom=All
 Check Guess=Read
 ----------------------------------------------------------------------

 Structure from the checkpoint file:  "phosphine_5_conf152.chk"
 -------------------
 Title Card Required
 -------------------
 Charge =  0 Multiplicity = 1

 SCF Done:  E(RB3LYP) =  -1333.99897976     a.u. after    1 cycles

      1  C    Isotropic =    80.0633   Anisotropy =   136.7210

      2  C    Isotropic =    60.7060   Anisotropy =   171.8697

      3  C    Isotropic =    61.6149   Anisotropy =   173.4780

      4  C    Isotropic =    59.0353   Anisotropy =   162.7963

      5  C    Isotropic =    79.9262   Anisotropy =   137.4376

      6  C    Isotropic =    32.6606   Anisotropy =    98.8268

      7  F    Isotropic =   295.7963   Anisotropy =   113.0382

      8  P    Isotropic =   366.2572   Anisotropy =    40.0840

      9  C    Isotropic =    61.6197   Anisotropy =   173.5000

     10  C    Isotropic =    60.7196   Anisotropy =   171.8785

     11  C    Isotropic =    80.0676   Anisotropy =   136.7321

     12  C    Isotropic =    32.6585   Anisotropy =    98.8239

     13  C    Isotropic =    79.9360   Anisotropy =   137.4540

     14  C    Isotropic =    59.0441   Anisotropy =   162.8059

     15  F    Isotropic =   295.7868   Anisotropy =   113.0079

     16  C    Isotropic =    61.6143   Anisotropy =   173.5183

     17  C    Isotropic =    59.0369   Anisotropy =   162.8008

     18  C    Isotropic =    79.9398   Anisotropy =   137.4414

     19  C    Isotropic =    32.6723   Anisotropy =    98.8013

     20  C    Isotropic =    80.0617   Anisotropy =   136.7343

     21  C    Isotropic =    60.7149   Anisotropy =   171.8921

     22  F    Isotropic =   295.8005   Anisotropy =   113.0032

     23  H    Isotropic =    25.4668   Anisotropy =     5.7364

     24  H    Isotropic =    25.3655   Anisotropy =    12.0217

     25  H    Isotropic =    24.6192   Anisotropy =     8.9212

     26  H    Isotropic =    25.3569   Anisotropy =     4.2610

     27  H    Isotropic =    25.3661   Anisotropy =    12.0238

     28  H    Isotropic =    25.4668   Anisotropy =     5.7373

     29  H    Isotropic =    25.3587   Anisotropy =     4.2583

     30  H    Isotropic =    24.6182   Anisotropy =     8.9226

     31  H    Isotropic =    24.6185   Anisotropy =     8.9230

     32  H    Isotropic =    25.3607   Anisotropy =     4.2538

     33  H    Isotropic =    25.4649   Anisotropy =     5.7386

     34  H    Isotropic =    25.3631   Anisotropy =    12.0269

  Exact polarizability: 226.199   0.002 226.184  -0.004  -0.004 167.681
 Approx polarizability: 337.861   0.006 337.834  -0.010  -0.009 314.774

                      1                      2                      3
                      A                      A                      A
 Frequencies --     24.5468                25.4235                37.5385
 Red. masses --      4.0812                 4.1152                 8.9990
 Frc consts  --      0.0014                 0.0016                 0.0075
 IR Inten    --      0.2507                 0.2486                 0.0961

                      4                      5                      6
                      A                      A                      A
 Frequencies --     37.6435                39.9033                50.7008
 Red. masses --      8.8094                 3.7337                 9.9549
 Frc consts  --      0.0074                 0.0035                 0.0151
 IR Inten    --      0.1012                 0.0047                 0.1145

                      7                      8                      9
                      A                      A                      A
 Frequencies --    132.9551               145.4981               145.6077
 Red. masses --      8.0486                 8.3669                 8.3697
 Frc consts  --      0.0838                 0.1044                 0.1046
 IR Inten    --      0.0226                 0.5195                 0.5183

                     10                     11                     12
                      A                      A                      A
 Frequencies --    208.9464               218.9512               219.3086
 Red. masses --      8.0473                 6.9858                 6.9939
 Frc consts  --      0.2070                 0.1973                 0.1982
 IR Inten    --      0.2905                 0.5237                 0.5251

                     13                     14                     15
                      A                      A                      A
 Frequencies --    307.9704               336.0879               336.1613
 Red. masses --      8.4364                 8.3093                 8.3086
 Frc consts  --      0.4714                 0.5530                 0.5532
 IR Inten    --      1.0290                 0.0446                 0.0453

                     16                     17                     18
                      A                      A                      A
 Frequencies --    397.1672               404.1473               404.1823
 Red. masses --      7.7434                 8.0264                 8.0166
 Frc consts  --      0.7197                 0.7724                 0.7716
 IR Inten    --      0.3016                10.0685                10.0483

                     19                     20                     21
                      A                      A                      A
 Frequencies --    420.7204               420.7381               424.6485
 Red. masses --      3.2799                 3.2824                 3.1319
 Frc consts  --      0.3421                 0.3423                 0.3327
 IR Inten    --      1.1341                 1.1565                 0.0221

                     22                     23                     24
                      A                      A                      A
 Frequencies --    435.0763               435.1904               463.3661
 Red. masses --      6.1491                 6.1510                 6.6331
 Frc consts  --      0.6858                 0.6864                 0.8391
 IR Inten    --     19.0236                19.0213                 7.3674

                     25                     26                     27
                      A                      A                      A
 Frequencies --    533.1099               533.2597               535.5162
 Red. masses --      2.8107                 2.8117                 2.9070
 Frc consts  --      0.4706                 0.4711                 0.4912
 IR Inten    --     21.8246                21.7801                13.5051

                     28                     29                     30
                      A                      A                      A
 Frequencies --    608.0407               630.0103               630.0224
 Red. masses --      7.9081                 7.8290                 7.8309
 Frc consts  --      1.7226                 1.8308                 1.8314
 IR Inten    --      0.0087                 0.0388                 0.0381

                     31                     32                     33
                      A                      A                      A
 Frequencies --    648.2409               648.4194               648.4567
 Red. masses --      7.2790                 7.3786                 7.3787
 Frc consts  --      1.8022                 1.8278                 1.8281
 IR Inten    --      0.0076                 0.1268                 0.1267

                     34                     35                     36
                      A                      A                      A
 Frequencies --    715.1467               715.7026               715.7964
 Red. masses --      4.8096                 4.8291                 4.8335
 Frc consts  --      1.4493                 1.4574                 1.4591
 IR Inten    --      1.0021                 3.9786                 3.9642

                     37                     38                     39
                      A                      A                      A
 Frequencies --    835.7744               835.8705               836.8940
 Red. masses --      1.2645                 1.2623                 1.3254
 Frc consts  --      0.5204                 0.5196                 0.5469
 IR Inten    --      0.6759                 0.5174                10.9359

                     40                     41                     42
                      A                      A                      A
 Frequencies --    839.5298               839.5826               839.7494
 Red. masses --      3.2640                 3.2556                 3.9595
 Frc consts  --      1.3554                 1.3521                 1.6451
 IR Inten    --     61.6493                61.6494                18.6289

                     43                     44                     45
                      A                      A                      A
 Frequencies --    843.6375               843.7274               843.8893
 Red. masses --      1.9605                 1.9854                 1.7132
 Frc consts  --      0.8221                 0.8327                 0.7188
 IR Inten    --     10.2676                10.2800                12.0133

                     46                     47                     48
                      A                      A                      A
 Frequencies --    958.6431               958.7481               959.7992
 Red. masses --      1.2558                 1.2556                 1.2577
 Frc consts  --      0.6800                 0.6800                 0.6827
 IR Inten    --      0.1687                 0.1603                 0.3560

                     49                     50                     51
                      A                      A                      A
 Frequencies --    969.9084               970.0200               973.0329
 Red. masses --      1.3355                 1.3352                 1.3215
 Frc consts  --      0.7402                 0.7402                 0.7372
 IR Inten    --      0.0319                 0.0289                 0.3089

                     52                     53                     54
                      A                      A                      A
 Frequencies --   1034.6946              1034.7984              1035.1848
 Red. masses --      3.0240                 3.0317                 3.0219
 Frc consts  --      1.9074                 1.9127                 1.9079
 IR Inten    --      7.9953                 7.9352                 0.1074

                     55                     56                     57
                      A                      A                      A
 Frequencies --   1102.7555              1103.0786              1108.5807
 Red. masses --      3.6677                 3.6651                 3.5545
 Frc consts  --      2.6278                 2.6275                 2.5737
 IR Inten    --     19.2270                19.2272                 1.9783

                     58                     59                     60
                      A                      A                      A
 Frequencies --   1127.5247              1127.7139              1127.8496
 Red. masses --      1.3305                 1.3307                 1.3291
 Frc consts  --      0.9966                 0.9971                 0.9961
 IR Inten    --      1.2412                 0.8658                 6.8669

                     61                     62                     63
                      A                      A                      A
 Frequencies --   1195.1084              1195.5461              1199.3479
 Red. masses --      1.1829                 1.1850                 1.1796
 Frc consts  --      0.9955                 0.9979                 0.9997
 IR Inten    --     60.2471                61.1555                 2.5855

                     64                     65                     66
                      A                      A                      A
 Frequencies --   1285.3016              1285.4407              1286.1615
 Red. masses --      3.7588                 3.7449                 3.7885
 Frc consts  --      3.6585                 3.6459                 3.6924
 IR Inten    --    166.6089               166.9993                38.9913

                     67                     68                     69
                      A                      A                      A
 Frequencies --   1324.1317              1327.2853              1327.7635
 Red. masses --      2.6952                 2.2047                 2.2936
 Frc consts  --      2.7843                 2.2884                 2.3823
 IR Inten    --      8.9235                 3.9438                 3.8789

                     70                     71                     72
                      A                      A                      A
 Frequencies --   1336.6762              1336.8541              1337.0408
 Red. masses --      2.3608                 2.2532                 1.9560
 Frc consts  --      2.4852                 2.3726                 2.0602
 IR Inten    --      0.3791                 0.2986                 0.8999

                     73                     74                     75
                      A                      A                      A
 Frequencies --   1437.8924              1438.1133              1438.2453
 Red. masses --      2.9906                 2.9905                 2.9897
 Frc consts  --      3.6430                 3.6441                 3.6438
 IR Inten    --      6.2629                 3.5979                 2.2874

                     76                     77                     78
                      A                      A                      A
 Frequencies --   1545.5328              1545.6743              1546.4746
 Red. masses --      2.4093                 2.4057                 2.4459
 Frc consts  --      3.3908                 3.3863                 3.4465
 IR Inten    --    116.4721               116.6205                24.1749

                     79                     80                     81
                      A                      A                      A
 Frequencies --   1633.9666              1633.9887              1633.9969
 Red. masses --      6.9739                 6.9703                 6.9601
 Frc consts  --     10.9701                10.9648                10.9488
 IR Inten    --      9.4824                10.0210                15.2581

                     82                     83                     84
                      A                      A                      A
 Frequencies --   1653.5316              1653.5489              1654.3950
 Red. masses --      5.8096                 5.8066                 5.8790
 Frc consts  --      9.3588                 9.3542                 9.4805
 IR Inten    --     82.7931                82.6768                22.4975

                     85                     86                     87
                      A                      A                      A
 Frequencies --   3188.7869              3188.9200              3188.9608
 Red. masses --      1.0892                 1.0892                 1.0892
 Frc consts  --      6.5255                 6.5260                 6.5260
 IR Inten    --      5.2819                 5.1052                 3.0260

                     88                     89                     90
                      A                      A                      A
 Frequencies --   3205.6748              3205.9860              3206.5876
 Red. masses --      1.0878                 1.0878                 1.0878
 Frc consts  --      6.5864                 6.5873                 6.5902
 IR Inten    --      1.9230                 1.9989                 0.4778

                     91                     92                     93
                      A                      A                      A
 Frequencies --   3221.8789              3221.9515              3222.1796
 Red. masses --      1.0942                 1.0942                 1.0941
 Frc consts  --      6.6922                 6.6924                 6.6926
 IR Inten    --      3.5145                 3.4723                11.4965

                     94                     95                     96
                      A                      A                      A
 Frequencies --   3222.6692              3222.7190              3222.9269
 Red. masses --      1.0937                 1.0936                 1.0939
 Frc consts  --      6.6921                 6.6921                 6.6946
 IR Inten    --     12.1307                11.9889                 0.1963

 - Thermochemistry -
 -------------------
 Temperature   298.150 Kelvin.  Pressure   1.00000 Atm.
 Atom     1 has atomic number  6 and mass  12.00000

 Molecular mass:   316.06287 amu.
 Principal axes and moments of inertia in atomic units:
                           1         2         3
     Eigenvalues --  8317.866238318.40028**********
           X            0.99988   0.01566  -0.00000
           Y           -0.01566   0.99988  -0.00000
           Z            0.00000   0.00000   1.00000
 This molecule is an asymmetric top.
 Rotational symmetry number  1.
 Warning -- assumption of classical behavior for rotation
           may cause significant error
 Rotational temperatures (Kelvin)      0.01041     0.01041     0.00597
 Rotational constants (GHZ):           0.21697     0.21696     0.12430
 Zero-point vibrational energy     655293.1 (Joules/Mol)
                                  156.61881 (Kcal/Mol)
 Warning -- explicit consideration of  28 degrees of freedom as
           vibrations may cause significant error
 Vibrational temperatures:     35.32    36.58    54.01    54.16    57.41
          (Kelvin)             72.95   191.29   209.34   209.50   300.63
                              315.02   315.54   443.10   483.56   483.66
                              571.44   581.48   581.53   605.32   605.35
                              610.97   625.98   626.14   666.68   767.03
                              767.24   770.49   874.83   906.44   906.46
                              932.67   932.93   932.98  1028.94  1029.74
                             1029.87  1202.49  1202.63  1204.10  1207.90
                             1207.97  1208.21  1213.81  1213.94  1214.17
                             1379.27  1379.42  1380.94  1395.48  1395.64
                             1399.98  1488.69  1488.84  1489.40  1586.62
                             1587.08  1595.00  1622.26  1622.53  1622.72
                             1719.49  1720.12  1725.59  1849.26  1849.46
                             1850.50  1905.13  1909.67  1910.36  1923.18
                             1923.43  1923.70  2068.81  2069.12  2069.31
                             2223.68  2223.88  2225.03  2350.91  2350.95
                             2350.96  2379.06  2379.09  2380.31  4587.95
                             4588.14  4588.20  4612.25  4612.70  4613.56
                             4635.57  4635.67  4636.00  4636.70  4636.77
                             4637.07

 Zero-point correction=                           0.249588 (Hartree/Particle)
 Thermal correction to Energy=                    0.268015
 Thermal correction to Enthalpy=                  0.268959
 Thermal correction to Gibbs Free Energy=         0.199579
 Sum of electronic and zero-point Energies=          -1333.749392
 Sum of electronic and thermal Energies=             -1333.730965
 Sum of electronic and thermal Enthalpies=           -1333.730021
 Sum of electronic and thermal Free Energies=        -1333.799401

                     E (Thermal)             CV                S
                      KCal/Mol        Cal/Mol-Kelvin    Cal/Mol-Kelvin
 Total                  168.182             71.395            146.022
 Electronic               0.000              0.000              0.000
 Translational            0.889              2.981             43.148
 Rotational               0.889              2.981             35.262
 Vibrational            166.404             65.434             67.612
 Vibration     1          0.593              1.985              6.228
 Vibration     2          0.593              1.985              6.158
 Vibration     3          0.594              1.982              5.385
 Vibration     4          0.594              1.982              5.379
 Vibration     5          0.594              1.981              5.264
 Vibration     6          0.595              1.977              4.790
 Vibration     7          0.613              1.920              2.903
 Vibration     8          0.617              1.908              2.730
 Vibration     9          0.617              1.907              2.729
 Vibration    10          0.642              1.827              2.053
 Vibration    11          0.647              1.812              1.968
 Vibration    12          0.647              1.812              1.965
 Vibration    13          0.698              1.659              1.373
 Vibration    14          0.717              1.603              1.231
 Vibration    15          0.717              1.603              1.230
 Vibration    16          0.764              1.476              0.973
 Vibration    17          0.769              1.461              0.948
 Vibration    18          0.769              1.461              0.947
 Vibration    19          0.783              1.425              0.890
 Vibration    20          0.783              1.425              0.889
 Vibration    21          0.787              1.417              0.876
 Vibration    22          0.796              1.394              0.842
 Vibration    23          0.796              1.394              0.842
 Vibration    24          0.821              1.331              0.756
 Vibration    25          0.888              1.177              0.580
 Vibration    26          0.888              1.176              0.580
 Vibration    27          0.891              1.171              0.575
 Vibration    28          0.967              1.015              0.436

                           ! Non-Optimized Parameters !
 Normal termination of Gaussian 16 at Sun Aug 23 15:59:54 2020.
 Gaussian 16:  ES64L-G16RevA.03 25-Dec-2016

 ----------------------------------------------------------------------
 # TD(NStates=10, Root=1) B3LYP/6-31G* scf=qc volume pop=NPA density=cu
 rrent Geom=AllCheck Guess=Read
 ----------------------------------------------------------------------

 Structure from the checkpoint file:  "phosphine_5_conf153.chk"
 -------------------
 Title Card Required
 -------------------
 Charge =  0 Multiplicity = 1

                         Standard orientation:
 ---------------------------------------------------------------------
 Center     Atomic      Atomic             Coordinates (Angstroms)
 Number     Number       Type             X           Y           Z
 ---------------------------------------------------------------------
      1          6           0       -3.056049   -1.374738   -1.129377
      2          6           0       -1.788556   -1.121203   -0.603224
      3          6           0       -1.628271   -0.369691    0.571774
      4          6           0       -2.780144    0.114752    1.216017
      5          6           0       -4.052875   -0.118937    0.698438
      6          6           0       -4.167776   -0.864456   -0.469685
      7          9           0       -5.395453   -1.105834   -0.973209
      8         15           0       -0.000051   -0.000047    1.374819
      9          6           0        1.134238   -1.225264    0.571807
     10          6           0        1.865500   -0.988134   -0.602973
     11          6           0        2.718896   -1.958976   -1.129123
     12          6           0        2.832637   -3.177037   -0.469651
     13          6           0        2.129230   -3.450488    0.698234
     14          6           0        1.290399   -2.465187    1.215816
     15          9           0        3.655599   -4.119487   -0.973157
     16          6           0        0.493928    1.594888    0.571857
     17          6           0        1.489618    2.350077    1.215932
     18          6           0        1.923598    3.569137    0.698343
     19          6           0        1.335202    4.041565   -0.469610
     20          6           0        0.337238    3.334043   -1.129154
     21          6           0       -0.076921    2.109589   -0.602998
     22          9           0        1.740015    5.225456   -0.973118
     23          1           0       -3.190578   -1.957695   -2.034926
     24          1           0       -0.917504   -1.520297   -1.113684
     25          1           0       -2.681266    0.679914    2.139582
     26          1           0       -4.946511    0.253693    1.188455
     27          1           0        1.775769   -0.034142   -1.113293
     28          1           0        3.291228   -1.783842   -2.034504
     29          1           0        2.253161   -4.410823    1.188074
     30          1           0        0.751270   -2.662323    2.139199
     31          1           0        1.929805    1.981766    2.139371
     32          1           0        2.693282    4.156625    1.188231
     33          1           0       -0.100494    3.742105   -2.034600
     34          1           0       -0.858188    1.554869   -1.113368
 ---------------------------------------------------------------------

 SCF Done:  E(RB3LYP) =  -1333.99897976     a.u. after    1 cycles

 Excitation energies and oscillator strengths:

 Excited State   1:      Singlet-A      4.5742 eV  271.05 nm  f=0.1358  <S**2>=0.000
      81 -> 82         0.69437
 This state for optimization and/or second-order correction.
 Total Energy, E(TD-HF/TD-DFT) =  -1333.83088077
 Copying the excited state density for this state as the 1-particle RhoCI density.

 Excited State   2:      Singlet-A      4.5743 eV  271.05 nm  f=0.1359  <S**2>=0.000
      81 -> 83         0.69438

 Excited State   3:      Singlet-A      4.5854 eV  270.39 nm  f=0.0087  <S**2>=0.000
      81 -> 84         0.68937

 Excited State   4:      Singlet-A      4.9053 eV  252.75 nm  f=0.0017  <S**2>=0.000
      81 -> 85         0.67693

 Excited State   5:      Singlet-A      4.9054 eV  252.75 nm  f=0.0017  <S**2>=0.000
      81 -> 86         0.67691

 Excited State   6:      Singlet-A      5.2388 eV  236.67 nm  f=0.0075  <S**2>=0.000
      79 -> 82         0.11324
      80 -> 83         0.11328
      81 -> 87         0.67235

 Excited State   7:      Singlet-A      5.4173 eV  228.87 nm  f=0.0000  <S**2>=0.000
      75 -> 84         0.14251
      77 -> 82         0.17200
      78 -> 83         0.17131
      79 -> 82        -0.24430
      79 -> 83         0.32532
      79 -> 85        -0.14655
      80 -> 82        -0.32520
      80 -> 83        -0.24415
      80 -> 86        -0.14615

 Excited State   8:      Singlet-A      5.4453 eV  227.69 nm  f=0.0021  <S**2>=0.000
      76 -> 82        -0.20898
      77 -> 82         0.12927
      77 -> 83         0.13865
      77 -> 87        -0.11852
      78 -> 82         0.13879
      78 -> 83        -0.12965
      79 -> 84        -0.34024
      79 -> 85        -0.15131
      80 -> 84         0.36888
      80 -> 86         0.15159
      81 -> 85         0.13060

 Excited State   9:      Singlet-A      5.4454 eV  227.69 nm  f=0.0021  <S**2>=0.000
      76 -> 83         0.20888
      77 -> 82        -0.13827
      77 -> 83         0.12946
      78 -> 82         0.12938
      78 -> 83         0.13893
      78 -> 87         0.11851
      79 -> 84         0.36880
      79 -> 86        -0.15146
      80 -> 84         0.34059
      80 -> 85        -0.15137
      81 -> 86        -0.13065

 Excited State  10:      Singlet-A      5.6625 eV  218.96 nm  f=0.0005  <S**2>=0.000
      75 -> 84         0.16582
      76 -> 84         0.10239
      77 -> 82         0.24167
      78 -> 83         0.24141
      79 -> 83        -0.29422
      79 -> 85        -0.22942
      79 -> 86        -0.11406
      80 -> 82         0.29805
      80 -> 85         0.11429
      80 -> 86        -0.22989

 The electronic state is 1-A.
 Alpha  occ. eigenvalues --  -77.09286 -24.70933 -24.70933 -24.70932 -10.27929
 Alpha  occ. eigenvalues --  -10.27929 -10.27929 -10.20801 -10.20801 -10.20801
 Alpha  occ. eigenvalues --  -10.20700 -10.20700 -10.20700 -10.20478 -10.20478
 Alpha  occ. eigenvalues --  -10.20478 -10.20316 -10.20316 -10.20316 -10.20309
 Alpha  occ. eigenvalues --  -10.20309 -10.20309  -6.55987  -4.72248  -4.72248
 Alpha  occ. eigenvalues --   -4.71744  -1.22111  -1.22111  -1.22111  -0.87208
 Alpha  occ. eigenvalues --   -0.86555  -0.86555  -0.77803  -0.76322  -0.76285
 Alpha  occ. eigenvalues --   -0.76285  -0.74867  -0.74867  -0.65458  -0.63137
 Alpha  occ. eigenvalues --   -0.62959  -0.62959  -0.60998  -0.60998  -0.57074
 Alpha  occ. eigenvalues --   -0.54665  -0.54665  -0.54254  -0.49446  -0.49446
 Alpha  occ. eigenvalues --   -0.49381  -0.48018  -0.48018  -0.46309  -0.46309
 Alpha  occ. eigenvalues --   -0.46296  -0.45864  -0.44921  -0.44921  -0.43857
 Alpha  occ. eigenvalues --   -0.43706  -0.43705  -0.42082  -0.40156  -0.40108
 Alpha  occ. eigenvalues --   -0.40108  -0.37159  -0.37159  -0.36440  -0.34997
 Alpha  occ. eigenvalues --   -0.34997  -0.34951  -0.33923  -0.33923  -0.27234
 Alpha  occ. eigenvalues --   -0.26850  -0.26598  -0.26598  -0.25423  -0.25423
 Alpha  occ. eigenvalues --   -0.21916
 Alpha virt. eigenvalues --   -0.02509  -0.02509  -0.02415  -0.01172  -0.01171
 Alpha virt. eigenvalues --   -0.00311   0.05884   0.05885   0.08468   0.10088
 Alpha virt. eigenvalues --    0.10088   0.12849   0.13530   0.13530   0.14052

 Mulliken charges:
               1
     1  C   -0.180186
     2  C   -0.185891
     3  C   -0.122681
     4  C   -0.164832
     5  C   -0.194749
     6  C    0.340494
     7  F   -0.304735
     8  P    0.435455
     9  C   -0.078909
    10  C   -0.162385
    11  C   -0.182675
    12  C    0.386366
    13  C   -0.190356
    14  C   -0.155711
    15  F   -0.284664
    16  C   -0.108020
    17  C   -0.177569
    18  C   -0.180554
    19  C    0.366755
    20  C   -0.189471
    21  C   -0.155745
    22  F   -0.292543
    23  H    0.137553
    24  H    0.128456
    25  H    0.128937
    26  H    0.134767
    27  H    0.166115
    28  H    0.160587
    29  H    0.158052
    30  H    0.156683
    31  H    0.139996
    32  H    0.148859
    33  H    0.152992
    34  H    0.169607
 Sum of Mulliken charges =  -0.00000

 Dipole moment (field-independent basis, Debye):
    X=              3.1452    Y=             -0.4637    Z=              1.4555  Tot=              3.4965
 Quadrupole moment (field-independent basis, Debye-Ang):
   XX=           -143.8186   YY=           -135.2047   ZZ=           -121.8375
   XY=             -4.4567   XZ=             -0.5862   YZ=             -0.5973

 Summary of Natural Population Analysis:

                                       Natural Population
                Natural  -----------------------------------------------
    Atom  No    Charge         Core      Valence    Rydberg      Total
 -----------------------------------------------------------------------
      C    1   -0.28688      1.99899     4.27297    0.01492     6.28688
      C    2   -0.26938      1.99900     4.25188    0.01850     6.26938
      C    3   -0.48134      1.99887     4.45709    0.02539     6.48134
      C    4   -0.20389      1.99902     4.18904    0.01582     6.20389
      C    5   -0.32109      1.99900     4.30615    0.01594     6.32109
      C    6    0.37283      1.99844     3.60069    0.02804     5.62717
      F    7   -0.33940      1.99994     7.33397    0.00548     9.33940
      P    8    1.21002      9.99756     3.74085    0.05156    13.78998
      C    9   -0.39110      1.99890     4.36783    0.02438     6.39110
      C   10   -0.21932      1.99901     4.20346    0.01685     6.21932
      C   11   -0.29423      1.99898     4.28050    0.01474     6.29423
      C   12    0.44846      1.99844     3.52592    0.02718     5.55154
      C   13   -0.31455      1.99899     4.30008    0.01548     6.31455
      C   14   -0.18547      1.99903     4.17125    0.01519     6.18547
      F   15   -0.32160      1.99994     7.31609    0.00557     9.32160
      C   16   -0.44575      1.99890     4.42019    0.02667     6.44575
      C   17   -0.22350      1.99903     4.20831    0.01616     6.22350
      C   18   -0.29520      1.99899     4.28136    0.01485     6.29520
      C   19    0.41499      1.99844     3.55895    0.02762     5.58501
      C   20   -0.30533      1.99899     4.29120    0.01514     6.30533
      C   21   -0.20111      1.99901     4.18552    0.01658     6.20111
      F   22   -0.32868      1.99994     7.32317    0.00556     9.32868
      H   23    0.24715      0.00000     0.75165    0.00121     0.75285
      H   24    0.23509      0.00000     0.76339    0.00152     0.76491
      H   25    0.23248      0.00000     0.76652    0.00100     0.76752
      H   26    0.24595      0.00000     0.75286    0.00120     0.75405
      H   27    0.25635      0.00000     0.74245    0.00121     0.74365
      H   28    0.25822      0.00000     0.74059    0.00118     0.74178
      H   29    0.25702      0.00000     0.74181    0.00117     0.74298
      H   30    0.24736      0.00000     0.75140    0.00124     0.75264
      H   31    0.23743      0.00000     0.76160    0.00097     0.76257
      H   32    0.25194      0.00000     0.74682    0.00124     0.74806
      H   33    0.25485      0.00000     0.74395    0.00119     0.74515
      H   34    0.25768      0.00000     0.74081    0.00151     0.74232
 =======================================================================
   * Total *   -0.00000     51.97740   109.59032    0.43228   162.00000

 Normal termination of Gaussian 16 at Sun Aug 23 16:14:07 2020.
