 Gaussian 16, Revision A.03,

 ---------------------------------
 # opt=CalcAll B3LYP/6-31G* scf=qc
 ---------------------------------

 -------------------
 Title Card Required
 -------------------
 Symbolic Z-matrix:
 Charge =  0 Multiplicity = 1

 SCF Done:  E(RB3LYP) =  -1029.61898100     a.u. after    8 cycles
 SCF Done:  E(RB3LYP) =  -1029.62506359     a.u. after   13 cycles
 SCF Done:  E(RB3LYP) =  -1029.62621674     a.u. after   15 cycles
 SCF Done:  E(RB3LYP) =  -1029.62641336     a.u. after   15 cycles
 SCF Done:  E(RB3LYP) =  -1029.62641959     a.u. after    4 cycles
 SCF Done:  E(RB3LYP) =  -1029.62641940     a.u. after    2 cycles
 SCF Done:  E(RB3LYP) =  -1029.62642003     a.u. after    2 cycles
 Optimization completed.
    -- Stationary point found.
 Normal termination of Gaussian 16 at Sun Aug 23 14:09:22 2020.

 ----------------------------------------------------------------------
 # freq B3LYP/6-31G* scf=qc volume NMR pop=NPA density=current Geom=All
 Check Guess=Read
 ----------------------------------------------------------------------

 Structure from the checkpoint file:  "phosphine_9_conf302.chk"
 -------------------
 Title Card Required
 -------------------
 Charge =  0 Multiplicity = 1

 SCF Done:  E(RB3LYP) =  -1029.62642003     a.u. after    1 cycles

      1  C    Isotropic =    85.5970   Anisotropy =   118.5678

      2  C    Isotropic =    73.1615   Anisotropy =   124.1091

      3  C    Isotropic =    45.4513   Anisotropy =    89.4953

      4  O    Isotropic =    34.1682   Anisotropy =   306.5671

      5  C    Isotropic =    50.5057   Anisotropy =    99.4471

      6  P    Isotropic =   456.7543   Anisotropy =    26.4677

      7  C    Isotropic =    45.4424   Anisotropy =    89.4571

      8  C    Isotropic =    73.1461   Anisotropy =   124.0931

      9  C    Isotropic =    85.5693   Anisotropy =   118.5115

     10  C    Isotropic =    50.5034   Anisotropy =    99.4209

     11  O    Isotropic =    34.1352   Anisotropy =   306.4645

     12  C    Isotropic =    45.4552   Anisotropy =    89.4613

     13  C    Isotropic =    73.1476   Anisotropy =   124.1075

     14  C    Isotropic =    85.5762   Anisotropy =   118.5305

     15  C    Isotropic =    50.5047   Anisotropy =    99.4366

     16  O    Isotropic =    34.1456   Anisotropy =   306.5040

     17  H    Isotropic =    26.2074   Anisotropy =     2.5236

     18  H    Isotropic =    25.6982   Anisotropy =     5.0643

     19  H    Isotropic =    24.7370   Anisotropy =     4.1109

     20  H    Isotropic =    25.6988   Anisotropy =     5.0645

     21  H    Isotropic =    26.2074   Anisotropy =     2.5193

     22  H    Isotropic =    24.7380   Anisotropy =     4.1102

     23  H    Isotropic =    25.6988   Anisotropy =     5.0642

     24  H    Isotropic =    26.2065   Anisotropy =     2.5197

     25  H    Isotropic =    24.7376   Anisotropy =     4.1112

  Exact polarizability: 152.717  -0.005 152.706  -0.014   0.005 141.402
 Approx polarizability: 212.368  -0.015 212.358  -0.036   0.014 259.123

                      1                      2                      3
                      A                      A                      A
 Frequencies --     30.9568                49.1415                49.2365
 Red. masses --      4.7227                 4.7271                 4.7349
 Frc consts  --      0.0027                 0.0067                 0.0068
 IR Inten    --      0.0000                 0.6263                 0.6303

                      4                      5                      6
                      A                      A                      A
 Frequencies --     54.9730                55.5043                78.5843
 Red. masses --      5.7826                 5.7495                 6.1650
 Frc consts  --      0.0103                 0.0104                 0.0224
 IR Inten    --      0.0488                 0.0376                 0.8197

                      7                      8                      9
                      A                      A                      A
 Frequencies --    173.5615               219.1474               219.1854
 Red. masses --      5.7401                 6.0765                 6.0755
 Frc consts  --      0.1019                 0.1719                 0.1720
 IR Inten    --      0.0000                 0.3400                 0.3426

                     10                     11                     12
                      A                      A                      A
 Frequencies --    299.8822               299.9539               301.2482
 Red. masses --      5.8023                 5.8037                 5.8129
 Frc consts  --      0.3074                 0.3077                 0.3108
 IR Inten    --      8.7186                 8.7252                 1.8483

                     13                     14                     15
                      A                      A                      A
 Frequencies --    491.1531               491.2689               501.8644
 Red. masses --     14.6816                14.6801                15.1513
 Frc consts  --      2.0867                 2.0875                 2.2484
 IR Inten    --     65.0488                65.0640                17.5404

                     16                     17                     18
                      A                      A                      A
 Frequencies --    611.5030               611.5115               611.8230
 Red. masses --      3.1890                 3.1888                 3.2575
 Frc consts  --      0.7026                 0.7026                 0.7184
 IR Inten    --      7.8368                 7.8460                 0.0014

                     19                     20                     21
                      A                      A                      A
 Frequencies --    644.3022               673.8733               673.9142
 Red. masses --      5.8910                 6.2537                 6.2541
 Frc consts  --      1.4408                 1.6732                 1.6735
 IR Inten    --      0.0000                 5.5134                 5.5227

                     22                     23                     24
                      A                      A                      A
 Frequencies --    759.6134               760.5547               760.5594
 Red. masses --      1.2768                 1.2829                 1.2830
 Frc consts  --      0.4341                 0.4372                 0.4372
 IR Inten    --      0.0007                63.3345                63.3132

                     25                     26                     27
                      A                      A                      A
 Frequencies --    827.7107               829.4583               829.4930
 Red. masses --      1.2501                 1.2568                 1.2567
 Frc consts  --      0.5046                 0.5095                 0.5095
 IR Inten    --      0.0013                10.3532                10.3576

                     28                     29                     30
                      A                      A                      A
 Frequencies --    878.2683               879.1650               879.2049
 Red. masses --      1.3046                 1.3071                 1.3071
 Frc consts  --      0.5929                 0.5953                 0.5953
 IR Inten    --      0.0005                 0.8624                 0.8677

                     31                     32                     33
                      A                      A                      A
 Frequencies --    899.6954               899.7016               901.6762
 Red. masses --      6.3306                 6.3307                 6.2896
 Frc consts  --      3.0192                 3.0192                 3.0128
 IR Inten    --      5.1224                 5.1265                 0.2212

                     34                     35                     36
                      A                      A                      A
 Frequencies --    923.5815               924.0950               924.1104
 Red. masses --      4.7530                 4.7730                 4.7721
 Frc consts  --      2.3887                 2.4014                 2.4011
 IR Inten    --     16.9532                 7.5543                 7.5858

                     37                     38                     39
                      A                      A                      A
 Frequencies --   1037.7211              1037.7497              1038.9767
 Red. masses --      1.3910                 1.3911                 1.3988
 Frc consts  --      0.8825                 0.8827                 0.8896
 IR Inten    --     43.5129                43.4849                19.2629

                     40                     41                     42
                      A                      A                      A
 Frequencies --   1101.9855              1102.0088              1103.1018
 Red. masses --      2.3266                 2.3263                 2.2698
 Frc consts  --      1.6646                 1.6645                 1.6273
 IR Inten    --      0.0140                 0.0136                 2.0756

                     43                     44                     45
                      A                      A                      A
 Frequencies --   1154.0101              1154.0219              1157.1869
 Red. masses --      5.0423                 5.0437                 6.3791
 Frc consts  --      3.9564                 3.9575                 5.0329
 IR Inten    --     22.2941                22.2806                 6.3196

                     46                     47                     48
                      A                      A                      A
 Frequencies --   1194.0402              1194.0515              1195.0005
 Red. masses --      2.2788                 2.2793                 2.1499
 Frc consts  --      1.9143                 1.9147                 1.8089
 IR Inten    --      3.3715                 3.3732                 7.4889

                     49                     50                     51
                      A                      A                      A
 Frequencies --   1247.7722              1247.8020              1252.1151
 Red. masses --      1.6775                 1.6775                 1.6029
 Frc consts  --      1.5388                 1.5388                 1.4806
 IR Inten    --      7.6269                 7.6309                 0.4650

                     52                     53                     54
                      A                      A                      A
 Frequencies --   1420.7424              1420.7608              1423.1916
 Red. masses --      2.5289                 2.5288                 2.6528
 Frc consts  --      3.0075                 3.0075                 3.1658
 IR Inten    --      0.4453                 0.4466                12.9485

                     55                     56                     57
                      A                      A                      A
 Frequencies --   1488.0430              1488.0527              1504.0504
 Red. masses --      5.4707                 5.4708                 5.3987
 Frc consts  --      7.1372                 7.1374                 7.1955
 IR Inten    --      0.3100                 0.3095                29.7034

                     58                     59                     60
                      A                      A                      A
 Frequencies --   1605.9677              1605.9727              1610.6757
 Red. masses --      4.7434                 4.7434                 4.9251
 Frc consts  --      7.2080                 7.2080                 7.5280
 IR Inten    --      3.3106                 3.3072                 3.2408

                     61                     62                     63
                      A                      A                      A
 Frequencies --   3263.7048              3263.7326              3263.8047
 Red. masses --      1.0903                 1.0903                 1.0904
 Frc consts  --      6.8428                 6.8429                 6.8433
 IR Inten    --      3.8277                 3.8569                 1.3986

                     64                     65                     66
                      A                      A                      A
 Frequencies --   3275.1781              3275.2075              3275.3676
 Red. masses --      1.0967                 1.0967                 1.0968
 Frc consts  --      6.9312                 6.9313                 6.9328
 IR Inten    --      1.0672                 1.0449                 2.8118

                     67                     68                     69
                      A                      A                      A
 Frequencies --   3296.3184              3296.3279              3296.4439
 Red. masses --      1.1053                 1.1053                 1.1053
 Frc consts  --      7.0761                 7.0762                 7.0767
 IR Inten    --      2.6745                 2.6728                 3.1547

 - Thermochemistry -
 -------------------
 Temperature   298.150 Kelvin.  Pressure   1.00000 Atm.
 Atom     1 has atomic number  6 and mass  12.00000

 Molecular mass:   232.02893 amu.
 Principal axes and moments of inertia in atomic units:
                           1         2         3
     Eigenvalues --  3573.547313573.997255646.86428
           X            0.99946  -0.03294  -0.00000
           Y            0.03294   0.99946   0.00000
           Z            0.00000  -0.00000   1.00000
 This molecule is an asymmetric top.
 Rotational symmetry number  1.
 Warning -- assumption of classical behavior for rotation
           may cause significant error
 Rotational temperatures (Kelvin)      0.02424     0.02423     0.01534
 Rotational constants (GHZ):           0.50503     0.50496     0.31960
 Zero-point vibrational energy     480363.8 (Joules/Mol)
                                  114.80971 (Kcal/Mol)
 Warning -- explicit consideration of  18 degrees of freedom as
           vibrations may cause significant error
 Vibrational temperatures:     44.54    70.70    70.84    79.09    79.86
          (Kelvin)            113.07   249.72   315.30   315.36   431.46
                              431.57   433.43   706.66   706.83   722.07
                              879.82   879.83   880.28   927.01   969.55
                              969.61  1092.91  1094.27  1094.28  1190.89
                             1193.41  1193.46  1263.63  1264.92  1264.98
                             1294.46  1294.47  1297.31  1328.83  1329.57
                             1329.59  1493.05  1493.09  1494.86  1585.51
                             1585.54  1587.12  1660.36  1660.38  1664.93
                             1717.96  1717.97  1719.34  1795.27  1795.31
                             1801.51  2044.13  2044.16  2047.66  2140.96
                             2140.98  2163.99  2310.63  2310.64  2317.40
                             4695.74  4695.78  4695.89  4712.25  4712.29
                             4712.52  4742.67  4742.68  4742.85

 Zero-point correction=                           0.182961 (Hartree/Particle)
 Thermal correction to Energy=                    0.196557
 Thermal correction to Enthalpy=                  0.197501
 Thermal correction to Gibbs Free Energy=         0.139588
 Sum of electronic and zero-point Energies=          -1029.443459
 Sum of electronic and thermal Energies=             -1029.429863
 Sum of electronic and thermal Enthalpies=           -1029.428919
 Sum of electronic and thermal Free Energies=        -1029.486832

                     E (Thermal)             CV                S
                      KCal/Mol        Cal/Mol-Kelvin    Cal/Mol-Kelvin
 Total                  123.341             50.683            121.887
 Electronic               0.000              0.000              0.000
 Translational            0.889              2.981             42.227
 Rotational               0.889              2.981             32.645
 Vibrational            121.564             44.721             47.015
 Vibration     1          0.594              1.984              5.767
 Vibration     2          0.595              1.978              4.852
 Vibration     3          0.595              1.978              4.848
 Vibration     4          0.596              1.976              4.630
 Vibration     5          0.596              1.975              4.611
 Vibration     6          0.600              1.964              3.926
 Vibration     7          0.627              1.875              2.397
 Vibration     8          0.647              1.812              1.966
 Vibration     9          0.647              1.812              1.966
 Vibration    10          0.692              1.674              1.418
 Vibration    11          0.692              1.674              1.417
 Vibration    12          0.693              1.671              1.410
 Vibration    13          0.847              1.270              0.681
 Vibration    14          0.847              1.269              0.680
 Vibration    15          0.857              1.246              0.653
 Vibration    16          0.971              1.007              0.430
 Vibration    17          0.971              1.007              0.430
 Vibration    18          0.971              1.007              0.430

                           ! Non-Optimized Parameters !
 Normal termination of Gaussian 16 at Sun Aug 23 14:16:23 2020.
 Gaussian 16:  ES64L-G16RevA.03 25-Dec-2016

 ----------------------------------------------------------------------
 # TD(NStates=10, Root=1) B3LYP/6-31G* scf=qc volume pop=NPA density=cu
 rrent Geom=AllCheck Guess=Read
 ----------------------------------------------------------------------

 Structure from the checkpoint file:  "phosphine_9_conf303.chk"
 -------------------
 Title Card Required
 -------------------
 Charge =  0 Multiplicity = 1

                         Standard orientation:
 ---------------------------------------------------------------------
 Center     Atomic      Atomic             Coordinates (Angstroms)
 Number     Number       Type             X           Y           Z
 ---------------------------------------------------------------------
      1          6           0       -2.829325    2.615132    0.011991
      2          6           0       -2.110188    1.950348   -1.029462
      3          6           0       -1.206720    1.115583   -0.424012
      4          8           0       -1.331743    1.231422    0.941762
      5          6           0       -2.313015    2.138278    1.179747
      6         15           0        0.000161    0.000035   -1.199993
      7          6           0        1.569634    0.487316   -0.423789
      8          6           0        2.744460    0.852052   -1.029110
      9          6           0        3.679680    1.142313    0.012443
     10          6           0        3.008356    0.933843    1.180126
     11          8           0        1.732305    0.537731    0.941999
     12          6           0       -0.362748   -1.602845   -0.423943
     13          6           0       -0.633350   -2.802859   -1.029256
     14          6           0       -0.850030   -3.757803    0.012309
     15          6           0       -0.696112   -3.071903    1.179985
     16          8           0       -0.401454   -1.768684    0.941838
     17          1           0       -3.619511    3.345315   -0.093902
     18          1           0       -2.240434    2.070450   -2.096231
     19          1           0       -2.525390    2.334792    2.220346
     20          1           0        2.913750    0.904647   -2.095860
     21          1           0        4.707215    1.461306   -0.093334
     22          1           0        3.284601    1.019548    2.220756
     23          1           0       -0.671519   -2.975995   -2.096003
     24          1           0       -1.087066   -4.807280   -0.093451
     25          1           0       -0.760782   -3.353799    2.220620
 ---------------------------------------------------------------------

 SCF Done:  E(RB3LYP) =  -1029.62642003     a.u. after    1 cycles

 Excitation energies and oscillator strengths:

 Excited State   1:      Singlet-A      4.9631 eV  249.81 nm  f=0.0965  <S**2>=0.000
      58 -> 62         0.14978
      59 -> 61        -0.14982
      60 -> 61         0.66521
 This state for optimization and/or second-order correction.
 Total Energy, E(TD-HF/TD-DFT) =  -1029.44403041
 Copying the excited state density for this state as the 1-particle RhoCI density.

 Excited State   2:      Singlet-A      4.9632 eV  249.81 nm  f=0.0965  <S**2>=0.000
      58 -> 61         0.14977
      59 -> 62         0.14977
      60 -> 62         0.66522

 Excited State   3:      Singlet-A      5.2297 eV  237.08 nm  f=0.0000  <S**2>=0.000
      58 -> 62         0.49626
      59 -> 61         0.49684

 Excited State   4:      Singlet-A      5.4392 eV  227.95 nm  f=0.2553  <S**2>=0.000
      58 -> 61         0.32436
      58 -> 62         0.34532
      59 -> 61        -0.34485
      59 -> 62         0.32441
      60 -> 61        -0.16500
      60 -> 62        -0.12658

 Excited State   5:      Singlet-A      5.4392 eV  227.94 nm  f=0.2554  <S**2>=0.000
      58 -> 61         0.34506
      58 -> 62        -0.32458
      59 -> 61         0.32416
      59 -> 62         0.34512
      60 -> 61         0.12665
      60 -> 62        -0.16496

 Excited State   6:      Singlet-A      5.6446 eV  219.65 nm  f=0.0186  <S**2>=0.000
      57 -> 61         0.70151

 Excited State   7:      Singlet-A      5.6447 eV  219.65 nm  f=0.0183  <S**2>=0.000
      57 -> 62         0.70152

 Excited State   8:      Singlet-A      5.6720 eV  218.59 nm  f=0.0271  <S**2>=0.000
      58 -> 61        -0.42780
      59 -> 62         0.42784
      60 -> 63        -0.35107

 Excited State   9:      Singlet-A      6.4074 eV  193.50 nm  f=0.1277  <S**2>=0.000
      54 -> 61         0.10606
      58 -> 61        -0.24379
      59 -> 62         0.24028
      60 -> 63         0.58024

 Excited State  10:      Singlet-A      6.4083 eV  193.48 nm  f=0.0276  <S**2>=0.000
      56 -> 61         0.61532
      58 -> 63         0.10237
      60 -> 64         0.21983

 The electronic state is 1-A.
 Alpha  occ. eigenvalues --  -77.09899 -19.20973 -19.20973 -19.20973 -10.23630
 Alpha  occ. eigenvalues --  -10.23630 -10.23630 -10.23157 -10.23157 -10.23157
 Alpha  occ. eigenvalues --  -10.18878 -10.18878 -10.18878 -10.18538 -10.18538
 Alpha  occ. eigenvalues --  -10.18538  -6.56536  -4.72803  -4.72802  -4.72308
 Alpha  occ. eigenvalues --   -1.10362  -1.10057  -1.10056  -0.79703  -0.79450
 Alpha  occ. eigenvalues --   -0.79450  -0.77102  -0.73474  -0.73474  -0.64509
 Alpha  occ. eigenvalues --   -0.59767  -0.59217  -0.59217  -0.55729  -0.55728
 Alpha  occ. eigenvalues --   -0.54558  -0.52772  -0.52772  -0.48777  -0.44893
 Alpha  occ. eigenvalues --   -0.44892  -0.43420  -0.43190  -0.43190  -0.41807
 Alpha  occ. eigenvalues --   -0.40120  -0.40120  -0.39939  -0.38026  -0.38025
 Alpha  occ. eigenvalues --   -0.37386  -0.35017  -0.35016  -0.27632  -0.27632
 Alpha  occ. eigenvalues --   -0.27287  -0.25562  -0.23355  -0.23354  -0.21505
 Alpha virt. eigenvalues --   -0.01154  -0.01153   0.02998   0.06727   0.06728
 Alpha virt. eigenvalues --    0.07688   0.07691   0.08986   0.10312   0.12633
 Alpha virt. eigenvalues --    0.12633   0.13503   0.14896   0.15172   0.15173

 Mulliken charges:
               1
     1  C   -0.167583
     2  C   -0.174651
     3  C    0.167661
     4  O   -0.369932
     5  C    0.141357
     6  P    0.258001
     7  C    0.079951
     8  C   -0.196071
     9  C   -0.175424
    10  C    0.062082
    11  O   -0.421307
    12  C    0.102774
    13  C   -0.190478
    14  C   -0.173386
    15  C    0.082713
    16  O   -0.407940
    17  H    0.175851
    18  H    0.185492
    19  H    0.195702
    20  H    0.128532
    21  H    0.126426
    22  H    0.136022
    23  H    0.143361
    24  H    0.139293
    25  H    0.151553
 Sum of Mulliken charges =  -0.00000

 Dipole moment (field-independent basis, Debye):
    X=             -4.6754    Y=              2.5089    Z=              1.2072  Tot=              5.4416
 Quadrupole moment (field-independent basis, Debye-Ang):
   XX=            -87.0334   YY=            -84.1198   ZZ=            -90.9281
   XY=             -8.2414   XZ=             -0.9788   YZ=              0.5251

 Summary of Natural Population Analysis:

                                       Natural Population
                Natural  -----------------------------------------------
    Atom  No    Charge         Core      Valence    Rydberg      Total
 -----------------------------------------------------------------------
      C    1   -0.30137      1.99911     4.28919    0.01307     6.30137
      C    2   -0.27221      1.99896     4.25931    0.01394     6.27221
      C    3    0.07032      1.99891     3.89314    0.03763     5.92968
      O    4   -0.44529      1.99974     6.42508    0.02047     8.44529
      C    5    0.20867      1.99906     3.76974    0.02253     5.79133
      P    6    0.78949      9.99806     4.14560    0.06685    14.21051
      C    7   -0.10786      1.99885     4.07174    0.03727     6.10786
      C    8   -0.32538      1.99893     4.31104    0.01541     6.32538
      C    9   -0.32970      1.99909     4.31741    0.01320     6.32970
      C   10    0.07551      1.99905     3.89956    0.02589     5.92449
      O   11   -0.48105      1.99974     6.46645    0.01486     8.48105
      C   12   -0.06019      1.99887     4.02498    0.03634     6.06019
      C   13   -0.31132      1.99894     4.29729    0.01509     6.31132
      C   14   -0.32228      1.99909     4.30998    0.01321     6.32228
      C   15    0.11127      1.99905     3.86566    0.02401     5.88873
      O   16   -0.47399      1.99974     6.45367    0.02058     8.47399
      H   17    0.26098      0.00000     0.73868    0.00033     0.73902
      H   18    0.26847      0.00000     0.73107    0.00046     0.73153
      H   19    0.23888      0.00000     0.76060    0.00052     0.76112
      H   20    0.24094      0.00000     0.75854    0.00052     0.75906
      H   21    0.23909      0.00000     0.76046    0.00045     0.76091
      H   22    0.21379      0.00000     0.78560    0.00061     0.78621
      H   23    0.24811      0.00000     0.75134    0.00055     0.75189
      H   24    0.24478      0.00000     0.75477    0.00045     0.75522
      H   25    0.22035      0.00000     0.77900    0.00065     0.77965
 =======================================================================
   * Total *   -0.00000     39.98519    79.61991    0.39490   120.00000

 Normal termination of Gaussian 16 at Sun Aug 23 14:27:13 2020.
