 Gaussian 16, Revision A.03,

 ---------------------------------
 # opt=CalcAll B3LYP/6-31G* scf=qc
 ---------------------------------

 -------------------
 Title Card Required
 -------------------
 Symbolic Z-matrix:
 Charge =  0 Multiplicity = 1

 SCF Done:  E(RB3LYP) =  -1036.27376559     a.u. after    8 cycles
 SCF Done:  E(RB3LYP) =  -1036.28009011     a.u. after   15 cycles
 SCF Done:  E(RB3LYP) =  -1036.29517170     a.u. after   17 cycles
 SCF Done:  E(RB3LYP) =  -1036.29771160     a.u. after   15 cycles
 SCF Done:  E(RB3LYP) =  -1036.29815608     a.u. after   13 cycles
 SCF Done:  E(RB3LYP) =  -1036.29822848     a.u. after   11 cycles
 SCF Done:  E(RB3LYP) =  -1036.29822972     a.u. after    4 cycles
 SCF Done:  E(RB3LYP) =  -1036.29823208     a.u. after    3 cycles
 SCF Done:  E(RB3LYP) =  -1036.29823787     a.u. after    2 cycles
 SCF Done:  E(RB3LYP) =  -1036.29823792     a.u. after    2 cycles
 SCF Done:  E(RB3LYP) =  -1036.29823942     a.u. after    3 cycles
 SCF Done:  E(RB3LYP) =  -1036.29823766     a.u. after    2 cycles
 SCF Done:  E(RB3LYP) =  -1036.29823392     a.u. after    4 cycles
 SCF Done:  E(RB3LYP) =  -1036.29822856     a.u. after    2 cycles
 SCF Done:  E(RB3LYP) =  -1036.29823217     a.u. after    2 cycles
 SCF Done:  E(RB3LYP) =  -1036.29822975     a.u. after    4 cycles
 SCF Done:  E(RB3LYP) =  -1036.29822966     a.u. after    2 cycles
 SCF Done:  E(RB3LYP) =  -1036.29822975     a.u. after    2 cycles
 Optimization completed.
    -- Stationary point found.
 Normal termination of Gaussian 16 at Sun Aug 23 06:09:18 2020.

 ----------------------------------------------------------------------
 # freq B3LYP/6-31G* scf=qc volume NMR pop=NPA density=current Geom=All
 Check Guess=Read
 ----------------------------------------------------------------------

 Structure from the checkpoint file:  "phosphine_1_conf172.chk"
 -------------------
 Title Card Required
 -------------------
 Charge =  0 Multiplicity = 1

 SCF Done:  E(RB3LYP) =  -1036.29822975     a.u. after    1 cycles

      1  C    Isotropic =    68.1431   Anisotropy =   167.3439

      2  C    Isotropic =    68.7157   Anisotropy =   164.1306

      3  C    Isotropic =    60.9874   Anisotropy =   164.0730

      4  C    Isotropic =    56.1070   Anisotropy =   179.4881

      5  C    Isotropic =    62.5458   Anisotropy =   174.0799

      6  C    Isotropic =    68.6861   Anisotropy =   163.8817

      7  P    Isotropic =   361.5604   Anisotropy =    39.7451

      8  C    Isotropic =    56.0814   Anisotropy =   179.4840

      9  C    Isotropic =    62.6542   Anisotropy =   174.0409

     10  C    Isotropic =    68.6781   Anisotropy =   163.8908

     11  C    Isotropic =    68.1897   Anisotropy =   167.2490

     12  C    Isotropic =    68.7347   Anisotropy =   164.0924

     13  C    Isotropic =    61.0698   Anisotropy =   164.1938

     14  C    Isotropic =    56.1810   Anisotropy =   179.4124

     15  C    Isotropic =    60.9812   Anisotropy =   164.1110

     16  C    Isotropic =    68.7267   Anisotropy =   164.1339

     17  C    Isotropic =    68.1527   Anisotropy =   167.3585

     18  C    Isotropic =    68.6731   Anisotropy =   163.9002

     19  C    Isotropic =    62.5539   Anisotropy =   174.1290

     20  H    Isotropic =    25.0206   Anisotropy =     3.6417

     21  H    Isotropic =    24.9260   Anisotropy =     4.5880

     22  H    Isotropic =    24.6093   Anisotropy =     9.2442

     23  H    Isotropic =    25.3963   Anisotropy =    12.2143

     24  H    Isotropic =    25.0479   Anisotropy =     6.0860

     25  H    Isotropic =    25.4030   Anisotropy =    12.2509

     26  H    Isotropic =    25.0493   Anisotropy =     6.0878

     27  H    Isotropic =    25.0263   Anisotropy =     3.6304

     28  H    Isotropic =    24.9328   Anisotropy =     4.5849

     29  H    Isotropic =    24.6166   Anisotropy =     9.2709

     30  H    Isotropic =    24.6098   Anisotropy =     9.2454

     31  H    Isotropic =    24.9249   Anisotropy =     4.5870

     32  H    Isotropic =    25.0185   Anisotropy =     3.6427

     33  H    Isotropic =    25.0458   Anisotropy =     6.0875

     34  H    Isotropic =    25.3922   Anisotropy =    12.2282

  Exact polarizability: 224.304   0.146 223.881   0.058   0.184 165.114
 Approx polarizability: 331.213   0.338 330.416   0.128   0.437 308.186

                      1                      2                      3
                      A                      A                      A
 Frequencies --     21.6987                22.0949                37.8250
 Red. masses --      3.7941                 3.7960                 3.6892
 Frc consts  --      0.0011                 0.0011                 0.0031
 IR Inten    --      0.2815                 0.2817                 0.0020

                      4                      5                      6
                      A                      A                      A
 Frequencies --     53.1235                53.2621                70.6121
 Red. masses --      5.2581                 5.2505                 5.1669
 Frc consts  --      0.0087                 0.0088                 0.0152
 IR Inten    --      0.0823                 0.0864                 0.3095

                      7                      8                      9
                      A                      A                      A
 Frequencies --    181.5084               202.2313               202.7413
 Red. masses --      4.5612                 4.6427                 4.6403
 Frc consts  --      0.0885                 0.1119                 0.1124
 IR Inten    --      0.3519                 1.1347                 1.1384

                     10                     11                     12
                      A                      A                      A
 Frequencies --    245.5949               259.6789               260.0981
 Red. masses --      5.7401                 4.7183                 4.7237
 Frc consts  --      0.2040                 0.1875                 0.1883
 IR Inten    --      0.4836                 0.2224                 0.2254

                     13                     14                     15
                      A                      A                      A
 Frequencies --    408.7402               408.7553               412.3613
 Red. masses --      3.0788                 3.0783                 3.5828
 Frc consts  --      0.3031                 0.3030                 0.3589
 IR Inten    --      1.9486                 1.9794                 0.1564

                     16                     17                     18
                      A                      A                      A
 Frequencies --    417.0982               429.3009               429.5949
 Red. masses --      4.6327                 7.3108                 7.3104
 Frc consts  --      0.4749                 0.7939                 0.7949
 IR Inten    --      0.5669                 7.6631                 7.7288

                     19                     20                     21
                      A                      A                      A
 Frequencies --    509.3611               509.6219               516.2972
 Red. masses --      4.2485                 4.2452                 4.5907
 Frc consts  --      0.6494                 0.6496                 0.7210
 IR Inten    --     26.0799                26.1712                11.9658

                     22                     23                     24
                      A                      A                      A
 Frequencies --    632.7184               632.7424               633.3593
 Red. masses --      6.4271                 6.4273                 6.4368
 Frc consts  --      1.5159                 1.5161                 1.5213
 IR Inten    --      0.1816                 0.1808                 0.0159

                     25                     26                     27
                      A                      A                      A
 Frequencies --    691.8867               705.0939               705.2224
 Red. masses --      6.5802                 5.7183                 5.7062
 Frc consts  --      1.8559                 1.6750                 1.6721
 IR Inten    --      0.7796                 1.1690                 1.2107

                     28                     29                     30
                      A                      A                      A
 Frequencies --    712.2174               712.2737               713.2498
 Red. masses --      2.1988                 2.2038                 2.1348
 Frc consts  --      0.6572                 0.6587                 0.6399
 IR Inten    --     26.4423                26.3158                16.5293

                     31                     32                     33
                      A                      A                      A
 Frequencies --    761.3735               762.8269               762.9399
 Red. masses --      1.6143                 1.6478                 1.6501
 Frc consts  --      0.5514                 0.5649                 0.5659
 IR Inten    --     19.1925                24.9765                24.8347

                     34                     35                     36
                      A                      A                      A
 Frequencies --    866.1637               866.1978               868.7616
 Red. masses --      1.2478                 1.2478                 1.2462
 Frc consts  --      0.5516                 0.5516                 0.5542
 IR Inten    --      0.2256                 0.2255                 0.1328

                     37                     38                     39
                      A                      A                      A
 Frequencies --    932.8681               932.8979               934.2310
 Red. masses --      1.3444                 1.3443                 1.3386
 Frc consts  --      0.6893                 0.6893                 0.6883
 IR Inten    --      1.2663                 1.2653                 0.0278

                     40                     41                     42
                      A                      A                      A
 Frequencies --    975.7788               975.8336               977.6474
 Red. masses --      1.3614                 1.3612                 1.3556
 Frc consts  --      0.7637                 0.7637                 0.7634
 IR Inten    --      0.0154                 0.0174                 0.1407

                     43                     44                     45
                      A                      A                      A
 Frequencies --   1000.3605              1000.3680              1001.1147
 Red. masses --      1.2542                 1.2545                 1.2527
 Frc consts  --      0.7395                 0.7397                 0.7397
 IR Inten    --      0.0786                 0.0772                 0.0001

                     46                     47                     48
                      A                      A                      A
 Frequencies --   1015.3562              1015.3818              1015.7469
 Red. masses --      6.3140                 6.3104                 6.3074
 Frc consts  --      3.8353                 3.8332                 3.8342
 IR Inten    --      4.3259                 4.3710                 0.0667

                     49                     50                     51
                      A                      A                      A
 Frequencies --   1052.6753              1052.7336              1052.9061
 Red. masses --      3.3072                 3.3135                 3.2517
 Frc consts  --      2.1592                 2.1636                 2.1239
 IR Inten    --      2.1108                 2.0911                 0.0471

                     52                     53                     54
                      A                      A                      A
 Frequencies --   1107.7778              1108.0429              1109.5080
 Red. masses --      1.8875                 1.8728                 1.6543
 Frc consts  --      1.3647                 1.3547                 1.1998
 IR Inten    --      4.3208                 4.0434                 2.8783

                     55                     56                     57
                      A                      A                      A
 Frequencies --   1110.7183              1110.7938              1116.1568
 Red. masses --      2.1803                 2.2097                 2.6147
 Frc consts  --      1.5848                 1.6064                 1.9192
 IR Inten    --      9.2277                 9.7198                 1.2447

                     58                     59                     60
                      A                      A                      A
 Frequencies --   1193.4692              1193.8590              1193.9271
 Red. masses --      1.1033                 1.0999                 1.1001
 Frc consts  --      0.9259                 0.9237                 0.9239
 IR Inten    --      0.0017                 0.1332                 0.1279

                     61                     62                     63
                      A                      A                      A
 Frequencies --   1219.0593              1219.4066              1220.8334
 Red. masses --      1.1474                 1.1477                 1.1473
 Frc consts  --      1.0047                 1.0055                 1.0075
 IR Inten    --      6.0255                 6.1065                 0.3374

                     64                     65                     66
                      A                      A                      A
 Frequencies --   1324.9934              1328.6714              1328.7197
 Red. masses --      3.4927                 3.4697                 3.5009
 Frc consts  --      3.6128                 3.6089                 3.6417
 IR Inten    --      2.6364                 2.4368                 2.4402

                     67                     68                     69
                      A                      A                      A
 Frequencies --   1364.9295              1365.2603              1365.5477
 Red. masses --      1.6623                 1.6520                 1.6440
 Frc consts  --      1.8246                 1.8142                 1.8062
 IR Inten    --      0.2206                 0.2133                 2.9590

                     70                     71                     72
                      A                      A                      A
 Frequencies --   1480.4955              1480.9625              1480.9781
 Red. masses --      2.1111                 2.1156                 2.1159
 Frc consts  --      2.7263                 2.7338                 2.7343
 IR Inten    --     16.5672                 6.6926                 6.5922

                     73                     74                     75
                      A                      A                      A
 Frequencies --   1531.0113              1531.4376              1531.5792
 Red. masses --      2.0154                 1.9995                 1.9979
 Frc consts  --      2.7833                 2.7629                 2.7613
 IR Inten    --      2.0129                10.1197                10.1670

                     76                     77                     78
                      A                      A                      A
 Frequencies --   1630.1500              1630.4214              1630.4304
 Red. masses --      5.1013                 5.1118                 5.1158
 Frc consts  --      7.9870                 8.0061                 8.0125
 IR Inten    --      0.3961                 0.0448                 0.0469

                     79                     80                     81
                      A                      A                      A
 Frequencies --   1646.1210              1646.1466              1647.9292
 Red. masses --      5.2733                 5.2705                 5.2834
 Frc consts  --      8.4189                 8.4148                 8.4536
 IR Inten    --      3.5240                 3.4907                 0.3215

                     82                     83                     84
                      A                      A                      A
 Frequencies --   3176.0411              3176.1287              3176.1734
 Red. masses --      1.0854                 1.0853                 1.0853
 Frc consts  --      6.4506                 6.4508                 6.4508
 IR Inten    --      2.1121                 2.0075                 1.8649

                     85                     86                     87
                      A                      A                      A
 Frequencies --   3182.5937              3182.6858              3182.7485
 Red. masses --      1.0875                 1.0875                 1.0876
 Frc consts  --      6.4899                 6.4903                 6.4911
 IR Inten    --      0.6838                 0.7837                 0.2327

                     88                     89                     90
                      A                      A                      A
 Frequencies --   3192.8150              3192.8580              3192.9726
 Red. masses --      1.0916                 1.0916                 1.0917
 Frc consts  --      6.5565                 6.5567                 6.5577
 IR Inten    --     11.4776                10.0264                46.4958

                     91                     92                     93
                      A                      A                      A
 Frequencies --   3203.8732              3203.9001              3204.2737
 Red. masses --      1.0941                 1.0941                 1.0942
 Frc consts  --      6.6169                 6.6171                 6.6193
 IR Inten    --     41.2054                41.4862                 4.6245

                     94                     95                     96
                      A                      A                      A
 Frequencies --   3210.0365              3210.0642              3210.9296
 Red. masses --      1.0957                 1.0957                 1.0956
 Frc consts  --      6.6520                 6.6520                 6.6555
 IR Inten    --     20.2087                20.0682                16.2628

 - Thermochemistry -
 -------------------
 Temperature   298.150 Kelvin.  Pressure   1.00000 Atm.
 Atom     1 has atomic number  6 and mass  12.00000

 Molecular mass:   262.09114 amu.
 Principal axes and moments of inertia in atomic units:
                           1         2         3
     Eigenvalues --  5159.153895166.718728679.41229
           X            0.99979   0.02046   0.00002
           Y           -0.02046   0.99979   0.00005
           Z           -0.00002  -0.00005   1.00000
 This molecule is an asymmetric top.
 Rotational symmetry number  1.
 Warning -- assumption of classical behavior for rotation
           may cause significant error
 Rotational temperatures (Kelvin)      0.01679     0.01676     0.00998
 Rotational constants (GHZ):           0.34981     0.34930     0.20793
 Zero-point vibrational energy     719924.4 (Joules/Mol)
                                  172.06606 (Kcal/Mol)
 Warning -- explicit consideration of  21 degrees of freedom as
           vibrations may cause significant error
 Vibrational temperatures:     31.22    31.79    54.42    76.43    76.63
          (Kelvin)            101.60   261.15   290.97   291.70   353.36
                              373.62   374.22   588.09   588.11   593.30
                              600.11   617.67   618.09   732.86   733.23
                              742.84   910.34   910.38   911.26   995.47
                             1014.47  1014.66  1024.72  1024.80  1026.21
                             1095.45  1097.54  1097.70  1246.22  1246.27
                             1249.95  1342.19  1342.23  1344.15  1403.93
                             1404.01  1406.62  1439.30  1439.31  1440.38
                             1460.87  1460.91  1461.43  1514.57  1514.65
                             1514.90  1593.85  1594.23  1596.33  1598.08
                             1598.18  1605.90  1717.14  1717.70  1717.79
                             1753.95  1754.45  1756.51  1906.37  1911.66
                             1911.73  1963.83  1964.31  1964.72  2130.10
                             2130.77  2130.80  2202.78  2203.40  2203.60
                             2345.42  2345.81  2345.83  2368.40  2368.44
                             2371.00  4569.61  4569.74  4569.81  4579.04
                             4579.17  4579.27  4593.75  4593.81  4593.98
                             4609.66  4609.70  4610.24  4618.53  4618.57
                             4619.81

 Zero-point correction=                           0.274205 (Hartree/Particle)
 Thermal correction to Energy=                    0.290135
 Thermal correction to Enthalpy=                  0.291079
 Thermal correction to Gibbs Free Energy=         0.227612
 Sum of electronic and zero-point Energies=          -1036.024025
 Sum of electronic and thermal Energies=             -1036.008095
 Sum of electronic and thermal Enthalpies=           -1036.007151
 Sum of electronic and thermal Free Energies=        -1036.070618

                     E (Thermal)             CV                S
                      KCal/Mol        Cal/Mol-Kelvin    Cal/Mol-Kelvin
 Total                  182.062             62.540            133.577
 Electronic               0.000              0.000              0.000
 Translational            0.889              2.981             42.590
 Rotational               0.889              2.981             33.803
 Vibrational            180.285             56.578             57.184
 Vibration     1          0.593              1.985              6.472
 Vibration     2          0.593              1.985              6.436
 Vibration     3          0.594              1.982              5.370
 Vibration     4          0.596              1.976              4.698
 Vibration     5          0.596              1.976              4.692
 Vibration     6          0.598              1.968              4.136
 Vibration     7          0.630              1.865              2.313
 Vibration     8          0.639              1.837              2.113
 Vibration     9          0.639              1.836              2.108
 Vibration    10          0.660              1.770              1.762
 Vibration    11          0.668              1.746              1.664
 Vibration    12          0.668              1.746              1.661
 Vibration    13          0.773              1.451              0.931
 Vibration    14          0.773              1.451              0.931
 Vibration    15          0.776              1.443              0.918
 Vibration    16          0.780              1.433              0.902
 Vibration    17          0.791              1.406              0.861
 Vibration    18          0.791              1.406              0.860
 Vibration    19          0.865              1.229              0.635
 Vibration    20          0.865              1.229              0.634
 Vibration    21          0.871              1.214              0.619

                           ! Non-Optimized Parameters !
 Normal termination of Gaussian 16 at Sun Aug 23 06:20:25 2020.
 Gaussian 16:  ES64L-G16RevA.03 25-Dec-2016

 ----------------------------------------------------------------------
 # TD(NStates=10, Root=1) B3LYP/6-31G* scf=qc volume pop=NPA density=cu
 rrent Geom=AllCheck Guess=Read
 ----------------------------------------------------------------------

 Structure from the checkpoint file:  "phosphine_1_conf173.chk"
 -------------------
 Title Card Required
 -------------------
 Charge =  0 Multiplicity = 1

                         Standard orientation:
 ---------------------------------------------------------------------
 Center     Atomic      Atomic             Coordinates (Angstroms)
 Number     Number       Type             X           Y           Z
 ---------------------------------------------------------------------
      1          6           0       -2.626468   -3.378300    0.653774
      2          6           0       -1.879264   -3.586332   -0.507507
      3          6           0       -1.106171   -2.552098   -1.034633
      4          6           0       -1.050442   -1.298521   -0.402159
      5          6           0       -1.808020   -1.101690    0.762561
      6          6           0       -2.591322   -2.133577    1.284306
      7         15           0        0.000834   -0.000429   -1.206806
      8          6           0       -0.599060    1.559127   -0.403293
      9          6           0       -0.042463    2.125724    0.753527
     10          6           0       -0.546661    3.319711    1.274032
     11          6           0       -1.616612    3.963215    0.650292
     12          6           0       -2.177783    3.411184   -0.503233
     13          6           0       -1.666457    2.225101   -1.029321
     14          6           0        1.651092   -0.261180   -0.402880
     15          6           0        2.763624    0.319648   -1.034994
     16          6           0        4.046234    0.168334   -0.508531
     17          6           0        4.241092   -0.584158    0.651621
     18          6           0        3.146578   -1.178478    1.281675
     19          6           0        1.860855   -1.016976    0.760705
     20          1           0       -3.237568   -4.179654    1.060816
     21          1           0       -1.906824   -4.550304   -1.009031
     22          1           0       -0.542368   -2.715738   -1.950303
     23          1           0       -1.789745   -0.137652    1.262006
     24          1           0       -3.174290   -1.963269    2.186028
     25          1           0        0.790433    1.635271    1.248355
     26          1           0       -0.101906    3.746269    2.169688
     27          1           0       -2.006843    4.892754    1.056451
     28          1           0       -3.006418    3.909679   -0.999609
     29          1           0       -2.096114    1.811811   -1.939114
     30          1           0        2.622322    0.890743   -1.949869
     31          1           0        4.894027    0.628354   -1.009682
     32          1           0        5.240938   -0.711957    1.058158
     33          1           0        3.291684   -1.769548    2.182529
     34          1           0        1.017653   -1.484730    1.260014
 ---------------------------------------------------------------------

 SCF Done:  E(RB3LYP) =  -1036.29822975     a.u. after    1 cycles

 Excitation energies and oscillator strengths:

 Excited State   1:      Singlet-A      4.5086 eV  275.00 nm  f=0.1268  <S**2>=0.000
      69 -> 70         0.69714
 This state for optimization and/or second-order correction.
 Total Energy, E(TD-HF/TD-DFT) =  -1036.13254344
 Copying the excited state density for this state as the 1-particle RhoCI density.

 Excited State   2:      Singlet-A      4.5132 eV  274.71 nm  f=0.1288  <S**2>=0.000
      69 -> 71         0.69707

 Excited State   3:      Singlet-A      4.7577 eV  260.60 nm  f=0.0022  <S**2>=0.000
      67 -> 70         0.12180
      68 -> 71        -0.12290
      69 -> 72         0.67461

 Excited State   4:      Singlet-A      5.0574 eV  245.15 nm  f=0.0002  <S**2>=0.000
      66 -> 70         0.16750
      67 -> 71         0.13259
      68 -> 70        -0.13245
      69 -> 74         0.63035

 Excited State   5:      Singlet-A      5.0593 eV  245.06 nm  f=0.0002  <S**2>=0.000
      66 -> 71         0.16894
      67 -> 70         0.13426
      68 -> 71         0.13367
      69 -> 75         0.62895

 Excited State   6:      Singlet-A      5.1514 eV  240.68 nm  f=0.0085  <S**2>=0.000
      69 -> 73         0.67895

 Excited State   7:      Singlet-A      5.4273 eV  228.45 nm  f=0.0146  <S**2>=0.000
      63 -> 72        -0.16604
      64 -> 74         0.14196
      65 -> 75         0.13707
      67 -> 70         0.42534
      68 -> 71        -0.41161
      69 -> 72        -0.16528

 Excited State   8:      Singlet-A      5.5132 eV  224.89 nm  f=0.0005  <S**2>=0.000
      63 -> 74         0.14327
      64 -> 70         0.12301
      64 -> 72        -0.21637
      65 -> 71        -0.12193
      65 -> 72        -0.18133
      66 -> 70        -0.22724
      67 -> 71        -0.25233
      68 -> 70         0.26386
      68 -> 72         0.16308
      69 -> 74         0.28606

 Excited State   9:      Singlet-A      5.5158 eV  224.78 nm  f=0.0004  <S**2>=0.000
      63 -> 75         0.14430
      64 -> 71        -0.11498
      64 -> 72         0.18196
      65 -> 70        -0.12092
      65 -> 72        -0.21664
      66 -> 71        -0.22443
      67 -> 70        -0.24878
      67 -> 72         0.16430
      68 -> 71        -0.27143
      69 -> 75         0.28804

 Excited State  10:      Singlet-A      5.6180 eV  220.69 nm  f=0.0009  <S**2>=0.000
      67 -> 71         0.46643
      68 -> 70         0.48548

 The electronic state is 1-A.
 Alpha  occ. eigenvalues --  -77.08112 -10.19448 -10.19446 -10.19445 -10.19149
 Alpha  occ. eigenvalues --  -10.19149 -10.19140 -10.19120 -10.19118 -10.19112
 Alpha  occ. eigenvalues --  -10.19033 -10.19033 -10.19026 -10.19009 -10.19009
 Alpha  occ. eigenvalues --  -10.19003 -10.18964 -10.18964 -10.18957  -6.54843
 Alpha  occ. eigenvalues --   -4.71102  -4.71102  -4.70601  -0.85560  -0.84848
 Alpha  occ. eigenvalues --   -0.84843  -0.76669  -0.74367  -0.74365  -0.74329
 Alpha  occ. eigenvalues --   -0.73822  -0.73820  -0.64436  -0.60337  -0.60308
 Alpha  occ. eigenvalues --   -0.60304  -0.59207  -0.59206  -0.55448  -0.51436
 Alpha  occ. eigenvalues --   -0.51434  -0.49296  -0.45441  -0.45438  -0.44774
 Alpha  occ. eigenvalues --   -0.44344  -0.44344  -0.44068  -0.41947  -0.41870
 Alpha  occ. eigenvalues --   -0.41866  -0.40381  -0.40374  -0.36844  -0.36354
 Alpha  occ. eigenvalues --   -0.36347  -0.35898  -0.34253  -0.34251  -0.34224
 Alpha  occ. eigenvalues --   -0.31885  -0.31881  -0.26774  -0.25453  -0.25441
 Alpha  occ. eigenvalues --   -0.25242  -0.24705  -0.24702  -0.21146
 Alpha virt. eigenvalues --   -0.01885  -0.01874  -0.00830   0.00173   0.00422
 Alpha virt. eigenvalues --    0.00434   0.06872   0.06896   0.09492   0.11037
 Alpha virt. eigenvalues --    0.11041   0.13902   0.14528   0.14530   0.15166

 Mulliken charges:
               1
     1  C   -0.156349
     2  C   -0.125706
     3  C   -0.159235
     4  C   -0.112029
     5  C   -0.173010
     6  C   -0.115517
     7  P    0.450604
     8  C   -0.081389
     9  C   -0.148259
    10  C   -0.119912
    11  C   -0.120621
    12  C   -0.118719
    13  C   -0.156674
    14  C   -0.127649
    15  C   -0.176221
    16  C   -0.118691
    17  C   -0.159232
    18  C   -0.122573
    19  C   -0.164468
    20  H    0.117618
    21  H    0.121788
    22  H    0.126180
    23  H    0.128102
    24  H    0.124135
    25  H    0.177554
    26  H    0.148401
    27  H    0.147932
    28  H    0.144342
    29  H    0.150336
    30  H    0.117570
    31  H    0.118396
    32  H    0.114996
    33  H    0.123155
    34  H    0.145145
 Sum of Mulliken charges =   0.00000

 Dipole moment (field-independent basis, Debye):
    X=             -1.6109    Y=              3.4153    Z=             -0.1981  Tot=              3.7813
 Quadrupole moment (field-independent basis, Debye-Ang):
   XX=           -118.8826   YY=           -108.1894   ZZ=           -110.6596
   XY=             -4.5323   XZ=              0.2634   YZ=              1.3576

 Summary of Natural Population Analysis:

                                       Natural Population
                Natural  -----------------------------------------------
    Atom  No    Charge         Core      Valence    Rydberg      Total
 -----------------------------------------------------------------------
      C    1   -0.27161      1.99909     4.25655    0.01596     6.27161
      C    2   -0.24912      1.99910     4.23495    0.01508     6.24912
      C    3   -0.21308      1.99901     4.19824    0.01582     6.21308
      C    4   -0.44703      1.99887     4.42381    0.02436     6.44703
      C    5   -0.26063      1.99899     4.24391    0.01774     6.26063
      C    6   -0.22363      1.99909     4.21023    0.01431     6.22363
      P    7    1.24224      9.99750     3.71002    0.05025    13.75776
      C    8   -0.37687      1.99891     4.35304    0.02492     6.37687
      C    9   -0.20448      1.99900     4.18941    0.01607     6.20448
      C   10   -0.22990      1.99909     4.21676    0.01405     6.22990
      C   11   -0.19550      1.99909     4.18273    0.01368     6.19550
      C   12   -0.23473      1.99910     4.22141    0.01422     6.23473
      C   13   -0.20243      1.99902     4.18831    0.01510     6.20243
      C   14   -0.47266      1.99888     4.44755    0.02624     6.47266
      C   15   -0.23865      1.99902     4.22334    0.01629     6.23865
      C   16   -0.23685      1.99910     4.22308    0.01468     6.23685
      C   17   -0.27747      1.99909     4.26219    0.01618     6.27747
      C   18   -0.23641      1.99909     4.22267    0.01465     6.23641
      C   19   -0.23802      1.99899     4.22145    0.01758     6.23802
      H   20    0.22983      0.00000     0.76928    0.00089     0.77017
      H   21    0.23376      0.00000     0.76536    0.00088     0.76624
      H   22    0.23114      0.00000     0.76771    0.00115     0.76886
      H   23    0.23492      0.00000     0.76372    0.00136     0.76508
      H   24    0.23505      0.00000     0.76407    0.00088     0.76495
      H   25    0.26233      0.00000     0.73647    0.00120     0.73767
      H   26    0.24637      0.00000     0.75278    0.00086     0.75363
      H   27    0.24283      0.00000     0.75635    0.00082     0.75717
      H   28    0.24382      0.00000     0.75528    0.00089     0.75618
      H   29    0.24280      0.00000     0.75600    0.00120     0.75720
      H   30    0.22522      0.00000     0.77381    0.00096     0.77478
      H   31    0.23148      0.00000     0.76757    0.00095     0.76852
      H   32    0.22860      0.00000     0.77050    0.00091     0.77140
      H   33    0.23475      0.00000     0.76436    0.00089     0.76525
      H   34    0.24394      0.00000     0.75449    0.00157     0.75606
 =======================================================================
   * Total *    0.00000     45.98001    91.64742    0.37258   138.00000

 Normal termination of Gaussian 16 at Sun Aug 23 06:32:44 2020.
