 Gaussian 16, Revision A.03,

 ---------------------------------
 # opt=CalcAll B3LYP/6-31G* scf=qc
 ---------------------------------

 -------------------
 Title Card Required
 -------------------
 Symbolic Z-matrix:
 Charge =  0 Multiplicity = 1

 SCF Done:  E(RB3LYP) =  -1036.23534342     a.u. after    8 cycles
 SCF Done:  E(RB3LYP) =  -1036.26596095     a.u. after   17 cycles
 SCF Done:  E(RB3LYP) =  -1036.28135688     a.u. after   15 cycles
 SCF Done:  E(RB3LYP) =  -1036.29565889     a.u. after   17 cycles
 SCF Done:  E(RB3LYP) =  -1036.29705938     a.u. after   13 cycles
 SCF Done:  E(RB3LYP) =  -1036.29768970     a.u. after   15 cycles
 SCF Done:  E(RB3LYP) =  -1036.29801671     a.u. after   15 cycles
 SCF Done:  E(RB3LYP) =  -1036.29816459     a.u. after   13 cycles
 SCF Done:  E(RB3LYP) =  -1036.29815417     a.u. after   11 cycles
 SCF Done:  E(RB3LYP) =  -1036.29823363     a.u. after   13 cycles
 SCF Done:  E(RB3LYP) =  -1036.29823332     a.u. after    2 cycles
 SCF Done:  E(RB3LYP) =  -1036.29823867     a.u. after    3 cycles
 SCF Done:  E(RB3LYP) =  -1036.29823158     a.u. after    3 cycles
 SCF Done:  E(RB3LYP) =  -1036.29823067     a.u. after    4 cycles
 SCF Done:  E(RB3LYP) =  -1036.29823720     a.u. after    2 cycles
 SCF Done:  E(RB3LYP) =  -1036.29823616     a.u. after    2 cycles
 SCF Done:  E(RB3LYP) =  -1036.29822941     a.u. after    3 cycles
 SCF Done:  E(RB3LYP) =  -1036.29822966     a.u. after    2 cycles
 Optimization completed.
    -- Stationary point found.
 Normal termination of Gaussian 16 at Sun Aug 23 06:10:16 2020.

 ----------------------------------------------------------------------
 # freq B3LYP/6-31G* scf=qc volume NMR pop=NPA density=current Geom=All
 Check Guess=Read
 ----------------------------------------------------------------------

 Structure from the checkpoint file:  "phosphine_1_conf192.chk"
 -------------------
 Title Card Required
 -------------------
 Charge =  0 Multiplicity = 1

 SCF Done:  E(RB3LYP) =  -1036.29822966     a.u. after    1 cycles

      1  C    Isotropic =    68.1658   Anisotropy =   167.3246

      2  C    Isotropic =    68.6782   Anisotropy =   163.8946

      3  C    Isotropic =    62.5838   Anisotropy =   174.0565

      4  C    Isotropic =    56.1378   Anisotropy =   179.4235

      5  C    Isotropic =    61.0176   Anisotropy =   164.1203

      6  C    Isotropic =    68.7347   Anisotropy =   164.1206

      7  P    Isotropic =   361.4229   Anisotropy =    39.7380

      8  C    Isotropic =    56.1089   Anisotropy =   179.4078

      9  C    Isotropic =    62.5601   Anisotropy =   174.0134

     10  C    Isotropic =    68.6713   Anisotropy =   163.8811

     11  C    Isotropic =    68.1784   Anisotropy =   167.3761

     12  C    Isotropic =    68.7388   Anisotropy =   164.1543

     13  C    Isotropic =    60.9965   Anisotropy =   164.0820

     14  C    Isotropic =    56.1040   Anisotropy =   179.4007

     15  C    Isotropic =    61.0169   Anisotropy =   164.1197

     16  C    Isotropic =    68.7323   Anisotropy =   164.1424

     17  C    Isotropic =    68.1715   Anisotropy =   167.3411

     18  C    Isotropic =    68.6747   Anisotropy =   163.8843

     19  C    Isotropic =    62.5951   Anisotropy =   173.9972

     20  H    Isotropic =    25.0210   Anisotropy =     3.6415

     21  H    Isotropic =    25.0475   Anisotropy =     6.0858

     22  H    Isotropic =    25.4010   Anisotropy =    12.2255

     23  H    Isotropic =    24.6131   Anisotropy =     9.2501

     24  H    Isotropic =    24.9284   Anisotropy =     4.5862

     25  H    Isotropic =    25.4006   Anisotropy =    12.2185

     26  H    Isotropic =    25.0479   Anisotropy =     6.0852

     27  H    Isotropic =    25.0171   Anisotropy =     3.6457

     28  H    Isotropic =    24.9256   Anisotropy =     4.5897

     29  H    Isotropic =    24.6149   Anisotropy =     9.2467

     30  H    Isotropic =    24.6145   Anisotropy =     9.2542

     31  H    Isotropic =    24.9258   Anisotropy =     4.5916

     32  H    Isotropic =    25.0191   Anisotropy =     3.6460

     33  H    Isotropic =    25.0487   Anisotropy =     6.0856

     34  H    Isotropic =    25.4054   Anisotropy =    12.2220

  Exact polarizability: 224.183   0.025 224.106   0.029   0.022 165.042
 Approx polarizability: 330.982   0.057 330.826   0.067   0.055 308.032

                      1                      2                      3
                      A                      A                      A
 Frequencies --     21.1371                22.1820                37.4028
 Red. masses --      3.7928                 3.7968                 3.6885
 Frc consts  --      0.0010                 0.0011                 0.0030
 IR Inten    --      0.2827                 0.2840                 0.0014

                      4                      5                      6
                      A                      A                      A
 Frequencies --     53.1632                53.2136                70.5094
 Red. masses --      5.2586                 5.2520                 5.1677
 Frc consts  --      0.0088                 0.0088                 0.0151
 IR Inten    --      0.0827                 0.0844                 0.3094

                      7                      8                      9
                      A                      A                      A
 Frequencies --    181.4978               202.3509               202.6493
 Red. masses --      4.5596                 4.6404                 4.6417
 Frc consts  --      0.0885                 0.1119                 0.1123
 IR Inten    --      0.3532                 1.1356                 1.1378

                     10                     11                     12
                      A                      A                      A
 Frequencies --    245.5275               259.7099               259.9488
 Red. masses --      5.7397                 4.7204                 4.7226
 Frc consts  --      0.2039                 0.1876                 0.1880
 IR Inten    --      0.4832                 0.2250                 0.2219

                     13                     14                     15
                      A                      A                      A
 Frequencies --    408.7453               408.8645               412.3424
 Red. masses --      3.0766                 3.0786                 3.5973
 Frc consts  --      0.3029                 0.3032                 0.3604
 IR Inten    --      1.9508                 1.9659                 0.1616

                     16                     17                     18
                      A                      A                      A
 Frequencies --    416.9958               429.4480               429.4892
 Red. masses --      4.6078                 7.3198                 7.3041
 Frc consts  --      0.4721                 0.7954                 0.7938
 IR Inten    --      0.5595                 7.7042                 7.6918

                     19                     20                     21
                      A                      A                      A
 Frequencies --    509.4267               509.5233               516.2655
 Red. masses --      4.2467                 4.2473                 4.5882
 Frc consts  --      0.6493                 0.6497                 0.7205
 IR Inten    --     26.1215                26.1233                11.9780

                     22                     23                     24
                      A                      A                      A
 Frequencies --    632.7175               632.7294               633.3533
 Red. masses --      6.4269                 6.4272                 6.4367
 Frc consts  --      1.5159                 1.5160                 1.5213
 IR Inten    --      0.1801                 0.1809                 0.0160

                     25                     26                     27
                      A                      A                      A
 Frequencies --    691.8574               705.1388               705.1830
 Red. masses --      6.5804                 5.6875                 5.7382
 Frc consts  --      1.8558                 1.6662                 1.6812
 IR Inten    --      0.7685                 1.2291                 1.1552

                     28                     29                     30
                      A                      A                      A
 Frequencies --    712.1816               712.2824               713.1834
 Red. masses --      2.2001                 2.1976                 2.1315
 Frc consts  --      0.6575                 0.6569                 0.6388
 IR Inten    --     26.3874                26.3975                16.6013

                     31                     32                     33
                      A                      A                      A
 Frequencies --    761.3750               762.8403               762.8865
 Red. masses --      1.6164                 1.6509                 1.6494
 Frc consts  --      0.5521                 0.5660                 0.5656
 IR Inten    --     19.1912                24.8724                24.8731

                     34                     35                     36
                      A                      A                      A
 Frequencies --    866.0360               866.1944               868.6425
 Red. masses --      1.2478                 1.2477                 1.2463
 Frc consts  --      0.5514                 0.5516                 0.5540
 IR Inten    --      0.2286                 0.2219                 0.1344

                     37                     38                     39
                      A                      A                      A
 Frequencies --    932.7271               932.9319               934.1239
 Red. masses --      1.3445                 1.3442                 1.3388
 Frc consts  --      0.6892                 0.6893                 0.6883
 IR Inten    --      1.2624                 1.2670                 0.0274

                     40                     41                     42
                      A                      A                      A
 Frequencies --    975.6760               975.8369               977.5352
 Red. masses --      1.3615                 1.3612                 1.3558
 Frc consts  --      0.7636                 0.7637                 0.7633
 IR Inten    --      0.0160                 0.0162                 0.1425

                     43                     44                     45
                      A                      A                      A
 Frequencies --   1000.2892              1000.3716              1001.0488
 Red. masses --      1.2545                 1.2543                 1.2527
 Frc consts  --      0.7395                 0.7396                 0.7396
 IR Inten    --      0.0779                 0.0806                 0.0001

                     46                     47                     48
                      A                      A                      A
 Frequencies --   1015.3576              1015.3648              1015.7487
 Red. masses --      6.3108                 6.3112                 6.3082
 Frc consts  --      3.8333                 3.8336                 3.8346
 IR Inten    --      4.3565                 4.3627                 0.0436

                     49                     50                     51
                      A                      A                      A
 Frequencies --   1052.6869              1052.7483              1052.9135
 Red. masses --      3.3065                 3.3140                 3.2521
 Frc consts  --      2.1588                 2.1640                 2.1242
 IR Inten    --      2.1100                 2.0880                 0.0459

                     52                     53                     54
                      A                      A                      A
 Frequencies --   1107.7684              1108.0101              1109.4635
 Red. masses --      1.8844                 1.8711                 1.6544
 Frc consts  --      1.3624                 1.3534                 1.1998
 IR Inten    --      4.2673                 4.0094                 2.8641

                     55                     56                     57
                      A                      A                      A
 Frequencies --   1110.7399              1110.7988              1116.1779
 Red. masses --      2.1908                 2.2065                 2.6143
 Frc consts  --      1.5925                 1.6041                 1.9190
 IR Inten    --      9.4224                 9.5869                 1.2501

                     58                     59                     60
                      A                      A                      A
 Frequencies --   1193.4628              1193.8573              1193.9179
 Red. masses --      1.1033                 1.1000                 1.1000
 Frc consts  --      0.9259                 0.9237                 0.9239
 IR Inten    --      0.0019                 0.1314                 0.1282

                     61                     62                     63
                      A                      A                      A
 Frequencies --   1219.0681              1219.4064              1220.8503
 Red. masses --      1.1474                 1.1477                 1.1473
 Frc consts  --      1.0047                 1.0055                 1.0075
 IR Inten    --      6.0299                 6.0247                 0.3909

                     64                     65                     66
                      A                      A                      A
 Frequencies --   1324.9858              1328.6505              1328.7709
 Red. masses --      3.4914                 3.4700                 3.5025
 Frc consts  --      3.6114                 3.6091                 3.6436
 IR Inten    --      2.6321                 2.4341                 2.4429

                     67                     68                     69
                      A                      A                      A
 Frequencies --   1364.9305              1365.2659              1365.6158
 Red. masses --      1.6619                 1.6538                 1.6422
 Frc consts  --      1.8242                 1.8162                 1.8044
 IR Inten    --      0.3124                 0.4205                 2.6521

                     70                     71                     72
                      A                      A                      A
 Frequencies --   1480.4773              1480.9396              1480.9648
 Red. masses --      2.1109                 2.1158                 2.1156
 Frc consts  --      2.7259                 2.7340                 2.7339
 IR Inten    --     16.6667                 6.5713                 6.5943

                     73                     74                     75
                      A                      A                      A
 Frequencies --   1531.0136              1531.4494              1531.6211
 Red. masses --      2.0152                 1.9996                 1.9979
 Frc consts  --      2.7831                 2.7631                 2.7614
 IR Inten    --      2.1438                 9.9801                10.1551

                     76                     77                     78
                      A                      A                      A
 Frequencies --   1630.1370              1630.4119              1630.4325
 Red. masses --      5.1009                 5.1152                 5.1122
 Frc consts  --      7.9862                 8.0113                 8.0068
 IR Inten    --      0.3989                 0.0446                 0.0444

                     79                     80                     81
                      A                      A                      A
 Frequencies --   1646.1135              1646.1745              1647.9387
 Red. masses --      5.2735                 5.2703                 5.2835
 Frc consts  --      8.4191                 8.4147                 8.4538
 IR Inten    --      3.4972                 3.5212                 0.3203

                     82                     83                     84
                      A                      A                      A
 Frequencies --   3176.0056              3176.0391              3176.1329
 Red. masses --      1.0854                 1.0854                 1.0853
 Frc consts  --      6.4504                 6.4505                 6.4507
 IR Inten    --      2.1250                 1.9524                 1.9349

                     85                     86                     87
                      A                      A                      A
 Frequencies --   3182.5569              3182.5985              3182.7186
 Red. masses --      1.0875                 1.0875                 1.0876
 Frc consts  --      6.4897                 6.4901                 6.4908
 IR Inten    --      0.7710                 0.5447                 0.3691

                     88                     89                     90
                      A                      A                      A
 Frequencies --   3192.7534              3192.8019              3192.9308
 Red. masses --      1.0916                 1.0916                 1.0917
 Frc consts  --      6.5563                 6.5565                 6.5576
 IR Inten    --     10.4916                13.6677                43.7501

                     91                     92                     93
                      A                      A                      A
 Frequencies --   3203.7902              3203.8479              3204.2231
 Red. masses --      1.0941                 1.0941                 1.0942
 Frc consts  --      6.6164                 6.6168                 6.6190
 IR Inten    --     41.0207                40.8327                 4.9496

                     94                     95                     96
                      A                      A                      A
 Frequencies --   3209.9160              3210.0107              3210.8700
 Red. masses --      1.0958                 1.0957                 1.0957
 Frc consts  --      6.6520                 6.6520                 6.6554
 IR Inten    --     20.6869                20.1687                16.2565

 - Thermochemistry -
 -------------------
 Temperature   298.150 Kelvin.  Pressure   1.00000 Atm.
 Atom     1 has atomic number  6 and mass  12.00000

 Molecular mass:   262.09114 amu.
 Principal axes and moments of inertia in atomic units:
                           1         2         3
     Eigenvalues --  5162.877365163.805918681.70879
           X            0.99958   0.02908   0.00001
           Y           -0.02908   0.99958   0.00000
           Z           -0.00001  -0.00001   1.00000
 This molecule is an asymmetric top.
 Rotational symmetry number  1.
 Warning -- assumption of classical behavior for rotation
           may cause significant error
 Rotational temperatures (Kelvin)      0.01678     0.01677     0.00998
 Rotational constants (GHZ):           0.34956     0.34950     0.20788
 Zero-point vibrational energy     719906.5 (Joules/Mol)
                                  172.06178 (Kcal/Mol)
 Warning -- explicit consideration of  21 degrees of freedom as
           vibrations may cause significant error
 Vibrational temperatures:     30.41    31.91    53.81    76.49    76.56
          (Kelvin)            101.45   261.13   291.14   291.57   353.26
                              373.66   374.01   588.09   588.26   593.27
                              599.96   617.88   617.94   732.95   733.09
                              742.79   910.34   910.36   911.25   995.43
                             1014.54  1014.60  1024.67  1024.82  1026.11
                             1095.45  1097.56  1097.62  1246.03  1246.26
                             1249.78  1341.99  1342.28  1344.00  1403.78
                             1404.01  1406.46  1439.19  1439.31  1440.29
                             1460.87  1460.88  1461.44  1514.58  1514.67
                             1514.91  1593.83  1594.18  1596.27  1598.11
                             1598.19  1605.93  1717.13  1717.69  1717.78
                             1753.97  1754.45  1756.53  1906.36  1911.63
                             1911.80  1963.83  1964.31  1964.82  2130.08
                             2130.74  2130.78  2202.79  2203.41  2203.66
                             2345.40  2345.80  2345.83  2368.39  2368.48
                             2371.02  4569.56  4569.61  4569.75  4578.99
                             4579.05  4579.22  4593.66  4593.73  4593.92
                             4609.54  4609.62  4610.16  4618.35  4618.49
                             4619.73

 Zero-point correction=                           0.274198 (Hartree/Particle)
 Thermal correction to Energy=                    0.290130
 Thermal correction to Enthalpy=                  0.291075
 Thermal correction to Gibbs Free Energy=         0.227574
 Sum of electronic and zero-point Energies=          -1036.024032
 Sum of electronic and thermal Energies=             -1036.008099
 Sum of electronic and thermal Enthalpies=           -1036.007155
 Sum of electronic and thermal Free Energies=        -1036.070656

                     E (Thermal)             CV                S
                      KCal/Mol        Cal/Mol-Kelvin    Cal/Mol-Kelvin
 Total                  182.060             62.542            133.649
 Electronic               0.000              0.000              0.000
 Translational            0.889              2.981             42.590
 Rotational               0.889              2.981             33.803
 Vibrational            180.282             56.580             57.255
 Vibration     1          0.593              1.985              6.524
 Vibration     2          0.593              1.985              6.429
 Vibration     3          0.594              1.982              5.392
 Vibration     4          0.596              1.976              4.696
 Vibration     5          0.596              1.976              4.694
 Vibration     6          0.598              1.968              4.139
 Vibration     7          0.630              1.865              2.313
 Vibration     8          0.639              1.837              2.112
 Vibration     9          0.639              1.836              2.109
 Vibration    10          0.660              1.770              1.762
 Vibration    11          0.668              1.746              1.664
 Vibration    12          0.668              1.746              1.662
 Vibration    13          0.773              1.451              0.931
 Vibration    14          0.773              1.451              0.931
 Vibration    15          0.776              1.443              0.918
 Vibration    16          0.780              1.433              0.902
 Vibration    17          0.791              1.406              0.860
 Vibration    18          0.791              1.406              0.860
 Vibration    19          0.865              1.229              0.635
 Vibration    20          0.865              1.229              0.635
 Vibration    21          0.871              1.214              0.619

                           ! Non-Optimized Parameters !
 Normal termination of Gaussian 16 at Sun Aug 23 06:19:36 2020.
 Gaussian 16:  ES64L-G16RevA.03 25-Dec-2016

 ----------------------------------------------------------------------
 # TD(NStates=10, Root=1) B3LYP/6-31G* scf=qc volume pop=NPA density=cu
 rrent Geom=AllCheck Guess=Read
 ----------------------------------------------------------------------

 Structure from the checkpoint file:  "phosphine_1_conf193.chk"
 -------------------
 Title Card Required
 -------------------
 Charge =  0 Multiplicity = 1

                         Standard orientation:
 ---------------------------------------------------------------------
 Center     Atomic      Atomic             Coordinates (Angstroms)
 Number     Number       Type             X           Y           Z
 ---------------------------------------------------------------------
      1          6           0        3.988323   -1.555259    0.651214
      2          6           0        2.785423   -1.881583    1.279401
      3          6           0        1.572489   -1.425087    0.758808
      4          6           0        1.544414   -0.637811   -0.402455
      5          6           0        2.761742   -0.328792   -1.032780
      6          6           0        3.973968   -0.774750   -0.506721
      7         15           0        0.000032   -0.000117   -1.206080
      8          6           0       -1.324408   -1.018594   -0.402221
      9          6           0       -2.019249   -0.649687    0.759785
     10          6           0       -3.021123   -1.471694    1.280521
     11          6           0       -3.341021   -2.676014    0.651745
     12          6           0       -2.658874   -3.053434   -0.506890
     13          6           0       -1.666476   -2.226761   -1.033086
     14          6           0       -0.219934    1.656200   -0.402323
     15          6           0       -1.097486    2.555295   -1.031805
     16          6           0       -1.317414    3.828125   -0.505857
     17          6           0       -0.647403    4.231537    0.651107
     18          6           0        0.237909    3.353615    1.278421
     19          6           0        0.449065    2.074870    0.757961
     20          1           0        4.931052   -1.912401    1.057422
     21          1           0        2.788913   -2.492817    2.178478
     22          1           0        0.643492   -1.686409    1.256562
     23          1           0        2.757352    0.262189   -1.945929
     24          1           0        4.905640   -0.522265   -1.006484
     25          1           0       -1.780265    0.285046    1.258035
     26          1           0       -3.551438   -1.169426    2.180165
     27          1           0       -4.121747   -3.313729    1.058045
     28          1           0       -2.906880   -3.986068   -1.007101
     29          1           0       -1.153225   -2.518104   -1.946765
     30          1           0       -1.608054    2.255498   -1.944255
     31          1           0       -2.002895    4.508212   -1.004979
     32          1           0       -0.809486    5.226575    1.057210
     33          1           0        0.766484    3.662797    2.176738
     34          1           0        1.140909    1.401606    1.255096
 ---------------------------------------------------------------------

 SCF Done:  E(RB3LYP) =  -1036.29822966     a.u. after    1 cycles

 Excitation energies and oscillator strengths:

 Excited State   1:      Singlet-A      4.5096 eV  274.93 nm  f=0.1277  <S**2>=0.000
      69 -> 70         0.69681
 This state for optimization and/or second-order correction.
 Total Energy, E(TD-HF/TD-DFT) =  -1036.13250540
 Copying the excited state density for this state as the 1-particle RhoCI density.

 Excited State   2:      Singlet-A      4.5105 eV  274.88 nm  f=0.1281  <S**2>=0.000
      69 -> 71         0.69680

 Excited State   3:      Singlet-A      4.7569 eV  260.64 nm  f=0.0022  <S**2>=0.000
      67 -> 70        -0.12344
      68 -> 71        -0.12361
      69 -> 72         0.67468

 Excited State   4:      Singlet-A      5.0575 eV  245.15 nm  f=0.0002  <S**2>=0.000
      66 -> 70         0.16294
      67 -> 71        -0.13298
      68 -> 70        -0.13286
      69 -> 74         0.63026

 Excited State   5:      Singlet-A      5.0579 eV  245.13 nm  f=0.0002  <S**2>=0.000
      66 -> 71         0.16321
      67 -> 70        -0.13331
      68 -> 71         0.13327
      69 -> 75         0.63000

 Excited State   6:      Singlet-A      5.1507 eV  240.71 nm  f=0.0085  <S**2>=0.000
      69 -> 73         0.67915

 Excited State   7:      Singlet-A      5.4274 eV  228.44 nm  f=0.0147  <S**2>=0.000
      63 -> 72         0.16611
      64 -> 74        -0.14515
      65 -> 75         0.14419
      67 -> 70         0.42189
      68 -> 71         0.41920
      69 -> 72         0.16513

 Excited State   8:      Singlet-A      5.5141 eV  224.85 nm  f=0.0004  <S**2>=0.000
      63 -> 74         0.14328
      64 -> 70         0.10256
      64 -> 72        -0.22375
      64 -> 74         0.10365
      65 -> 71         0.10256
      65 -> 72         0.17284
      65 -> 75         0.10370
      66 -> 70        -0.22545
      67 -> 71         0.27097
      68 -> 70         0.27294
      68 -> 72         0.16350
      69 -> 74         0.28579

 Excited State   9:      Singlet-A      5.5146 eV  224.83 nm  f=0.0004  <S**2>=0.000
      63 -> 75         0.14346
      64 -> 71        -0.10128
      64 -> 72         0.17295
      64 -> 75        -0.10370
      65 -> 70         0.10216
      65 -> 72         0.22375
      65 -> 74         0.10314
      66 -> 71        -0.22496
      67 -> 70         0.27047
      67 -> 72        -0.16372
      68 -> 71        -0.27453
      69 -> 75         0.28619

 Excited State  10:      Singlet-A      5.6181 eV  220.69 nm  f=0.0009  <S**2>=0.000
      67 -> 71        -0.47827
      68 -> 70         0.48242

 The electronic state is 1-A.
 Alpha  occ. eigenvalues --  -77.08112 -10.19447 -10.19447 -10.19447 -10.19147
 Alpha  occ. eigenvalues --  -10.19147 -10.19145 -10.19117 -10.19117 -10.19116
 Alpha  occ. eigenvalues --  -10.19031 -10.19031 -10.19029 -10.19008 -10.19007
 Alpha  occ. eigenvalues --  -10.19006 -10.18963 -10.18962 -10.18961  -6.54843
 Alpha  occ. eigenvalues --   -4.71102  -4.71102  -4.70601  -0.85560  -0.84846
 Alpha  occ. eigenvalues --   -0.84845  -0.76669  -0.74366  -0.74366  -0.74329
 Alpha  occ. eigenvalues --   -0.73821  -0.73821  -0.64436  -0.60336  -0.60307
 Alpha  occ. eigenvalues --   -0.60307  -0.59207  -0.59207  -0.55448  -0.51435
 Alpha  occ. eigenvalues --   -0.51435  -0.49295  -0.45440  -0.45439  -0.44774
 Alpha  occ. eigenvalues --   -0.44345  -0.44344  -0.44067  -0.41946  -0.41868
 Alpha  occ. eigenvalues --   -0.41868  -0.40378  -0.40377  -0.36844  -0.36352
 Alpha  occ. eigenvalues --   -0.36350  -0.35898  -0.34252  -0.34251  -0.34224
 Alpha  occ. eigenvalues --   -0.31884  -0.31884  -0.26776  -0.25448  -0.25446
 Alpha  occ. eigenvalues --   -0.25243  -0.24704  -0.24703  -0.21143
 Alpha virt. eigenvalues --   -0.01881  -0.01879  -0.00830   0.00173   0.00427
 Alpha virt. eigenvalues --    0.00430   0.06883   0.06887   0.09492   0.11038
 Alpha virt. eigenvalues --    0.11039   0.13903   0.14529   0.14529   0.15165

 Mulliken charges:
               1
     1  C   -0.155440
     2  C   -0.122864
     3  C   -0.162188
     4  C   -0.124308
     5  C   -0.175575
     6  C   -0.118141
     7  P    0.450719
     8  C   -0.116580
     9  C   -0.174273
    10  C   -0.115848
    11  C   -0.159956
    12  C   -0.125464
    13  C   -0.161274
    14  C   -0.080286
    15  C   -0.155431
    16  C   -0.119449
    17  C   -0.120777
    18  C   -0.119346
    19  C   -0.149159
    20  H    0.118194
    21  H    0.125700
    22  H    0.150074
    23  H    0.120213
    24  H    0.120771
    25  H    0.125417
    26  H    0.121829
    27  H    0.114607
    28  H    0.119436
    29  H    0.123162
    30  H    0.150730
    31  H    0.144336
    32  H    0.147750
    33  H    0.148144
    34  H    0.175277
 Sum of Mulliken charges =  -0.00000

 Dipole moment (field-independent basis, Debye):
    X=             -0.1310    Y=              3.7483    Z=             -0.1964  Tot=              3.7557
 Quadrupole moment (field-independent basis, Debye-Ang):
   XX=           -119.9751   YY=           -107.0892   ZZ=           -110.6657
   XY=             -2.7446   XZ=              0.7521   YZ=              1.1174

 Summary of Natural Population Analysis:

                                       Natural Population
                Natural  -----------------------------------------------
    Atom  No    Charge         Core      Valence    Rydberg      Total
 -----------------------------------------------------------------------
      C    1   -0.26944      1.99909     4.25437    0.01597     6.26944
      C    2   -0.23674      1.99909     4.22304    0.01462     6.23674
      C    3   -0.23274      1.99899     4.21631    0.01744     6.23274
      C    4   -0.46509      1.99888     4.43990    0.02630     6.46509
      C    5   -0.23689      1.99902     4.22166    0.01621     6.23689
      C    6   -0.23569      1.99910     4.22199    0.01460     6.23569
      P    7    1.24227      9.99750     3.70999    0.05025    13.75773
      C    8   -0.45628      1.99886     4.43292    0.02450     6.45628
      C    9   -0.26294      1.99899     4.24612    0.01783     6.26294
      C   10   -0.22449      1.99909     4.21103    0.01437     6.22449
      C   11   -0.27918      1.99909     4.26390    0.01618     6.27918
      C   12   -0.24894      1.99910     4.23474    0.01510     6.24894
      C   13   -0.21684      1.99901     4.20188    0.01594     6.21684
      C   14   -0.37535      1.99890     4.35174    0.02470     6.37535
      C   15   -0.20060      1.99902     4.18652    0.01507     6.20060
      C   16   -0.23596      1.99910     4.22260    0.01426     6.23596
      C   17   -0.19595      1.99909     4.18318    0.01368     6.19595
      C   18   -0.22886      1.99909     4.21575    0.01403     6.22886
      C   19   -0.20712      1.99900     4.19201    0.01611     6.20712
      H   20    0.22997      0.00000     0.76912    0.00091     0.77003
      H   21    0.23593      0.00000     0.76318    0.00089     0.76407
      H   22    0.24667      0.00000     0.75177    0.00156     0.75333
      H   23    0.22651      0.00000     0.77252    0.00098     0.77349
      H   24    0.23255      0.00000     0.76650    0.00096     0.76745
      H   25    0.23338      0.00000     0.76524    0.00138     0.76662
      H   26    0.23399      0.00000     0.76513    0.00088     0.76601
      H   27    0.22852      0.00000     0.77059    0.00089     0.77148
      H   28    0.23263      0.00000     0.76648    0.00088     0.76737
      H   29    0.22950      0.00000     0.76937    0.00113     0.77050
      H   30    0.24316      0.00000     0.75562    0.00121     0.75684
      H   31    0.24389      0.00000     0.75522    0.00088     0.75611
      H   32    0.24277      0.00000     0.75641    0.00082     0.75723
      H   33    0.24624      0.00000     0.75290    0.00086     0.75376
      H   34    0.26112      0.00000     0.73769    0.00119     0.73888
 =======================================================================
   * Total *   -0.00000     45.98001    91.64740    0.37259   138.00000

 Normal termination of Gaussian 16 at Sun Aug 23 06:29:29 2020.
