 Gaussian 16, Revision A.03,

 ---------------------------------
 # opt=CalcAll B3LYP/6-31G* scf=qc
 ---------------------------------

 -------------------
 Title Card Required
 -------------------
 Symbolic Z-matrix:
 Charge =  0 Multiplicity = 1

 SCF Done:  E(RB3LYP) =  -2415.06081460     a.u. after    8 cycles
 SCF Done:  E(RB3LYP) =  -2415.06630933     a.u. after   17 cycles
 SCF Done:  E(RB3LYP) =  -2415.08290190     a.u. after   19 cycles
 SCF Done:  E(RB3LYP) =  -2415.08566376     a.u. after   15 cycles
 SCF Done:  E(RB3LYP) =  -2415.08616803     a.u. after   11 cycles
 SCF Done:  E(RB3LYP) =  -2415.08623694     a.u. after   13 cycles
 SCF Done:  E(RB3LYP) =  -2415.08624197     a.u. after    5 cycles
 SCF Done:  E(RB3LYP) =  -2415.08624674     a.u. after    3 cycles
 SCF Done:  E(RB3LYP) =  -2415.08624640     a.u. after    2 cycles
 SCF Done:  E(RB3LYP) =  -2415.08624135     a.u. after    3 cycles
 SCF Done:  E(RB3LYP) =  -2415.08624346     a.u. after    4 cycles
 SCF Done:  E(RB3LYP) =  -2415.08624008     a.u. after    3 cycles
 SCF Done:  E(RB3LYP) =  -2415.08624818     a.u. after    2 cycles
 SCF Done:  E(RB3LYP) =  -2415.08624302     a.u. after    2 cycles
 SCF Done:  E(RB3LYP) =  -2415.08624790     a.u. after    4 cycles
 SCF Done:  E(RB3LYP) =  -2415.08624737     a.u. after    2 cycles
 SCF Done:  E(RB3LYP) =  -2415.08624468     a.u. after    2 cycles
 Optimization completed.
    -- Stationary point found.
 Normal termination of Gaussian 16 at Sun Aug 23 02:47:24 2020.

 ----------------------------------------------------------------------
 # freq B3LYP/6-31G* scf=qc volume NMR pop=NPA density=current Geom=All
 Check Guess=Read
 ----------------------------------------------------------------------

 Structure from the checkpoint file:  "phosphine_11_conf202.chk"
 -------------------
 Title Card Required
 -------------------
 Charge =  0 Multiplicity = 1

 SCF Done:  E(RB3LYP) =  -2415.08624468     a.u. after    1 cycles

      1  C    Isotropic =    67.5550   Anisotropy =   140.5647

      2  C    Isotropic =    60.2279   Anisotropy =   160.2802

      3  C    Isotropic =    58.7335   Anisotropy =   177.4367

      4  C    Isotropic =    61.8920   Anisotropy =   168.6082

      5  C    Isotropic =    67.5421   Anisotropy =   140.1155

      6  C    Isotropic =    51.6042   Anisotropy =   109.1431

      7  Cl   Isotropic =   720.9517   Anisotropy =   452.9437

      8  P    Isotropic =   364.8022   Anisotropy =    37.3760

      9  C    Isotropic =    58.7523   Anisotropy =   177.4190

     10  C    Isotropic =    61.8936   Anisotropy =   168.6134

     11  C    Isotropic =    67.5346   Anisotropy =   140.0942

     12  C    Isotropic =    51.5956   Anisotropy =   109.1557

     13  C    Isotropic =    67.5644   Anisotropy =   140.6042

     14  C    Isotropic =    60.2184   Anisotropy =   160.2807

     15  Cl   Isotropic =   720.9638   Anisotropy =   452.9453

     16  C    Isotropic =    58.7362   Anisotropy =   177.4110

     17  C    Isotropic =    60.2207   Anisotropy =   160.2946

     18  C    Isotropic =    67.5487   Anisotropy =   140.5841

     19  C    Isotropic =    51.6050   Anisotropy =   109.1361

     20  C    Isotropic =    67.5382   Anisotropy =   140.1115

     21  C    Isotropic =    61.8945   Anisotropy =   168.5868

     22  Cl   Isotropic =   721.0237   Anisotropy =   452.8398

     23  H    Isotropic =    25.0952   Anisotropy =     6.6288

     24  H    Isotropic =    24.7798   Anisotropy =     8.9679

     25  H    Isotropic =    25.5820   Anisotropy =    12.1151

     26  H    Isotropic =    25.2079   Anisotropy =     8.1429

     27  H    Isotropic =    25.5834   Anisotropy =    12.1108

     28  H    Isotropic =    25.2104   Anisotropy =     8.1401

     29  H    Isotropic =    25.0909   Anisotropy =     6.6346

     30  H    Isotropic =    24.7786   Anisotropy =     8.9674

     31  H    Isotropic =    24.7787   Anisotropy =     8.9746

     32  H    Isotropic =    25.0912   Anisotropy =     6.6354

     33  H    Isotropic =    25.2089   Anisotropy =     8.1406

     34  H    Isotropic =    25.5827   Anisotropy =    12.1163

  Exact polarizability: 280.633   0.018 280.599  -0.018   0.008 185.096
 Approx polarizability: 393.475   0.043 393.424  -0.040   0.017 343.124

                      1                      2                      3
                      A                      A                      A
 Frequencies --     22.3644                22.8986                29.4459
 Red. masses --      4.7222                 4.8414                 8.6870
 Frc consts  --      0.0014                 0.0015                 0.0044
 IR Inten    --      0.2728                 0.2613                 0.1899

                      4                      5                      6
                      A                      A                      A
 Frequencies --     29.6100                38.2071                40.2072
 Red. masses --      8.3708                 7.5582                 4.7589
 Frc consts  --      0.0043                 0.0065                 0.0045
 IR Inten    --      0.2039                 0.1861                 0.0415

                      7                      8                      9
                      A                      A                      A
 Frequencies --    109.3058               117.5653               117.7787
 Red. masses --      8.8630                 8.8296                 8.8339
 Frc consts  --      0.0624                 0.0719                 0.0722
 IR Inten    --      0.0246                 0.3528                 0.3488

                     10                     11                     12
                      A                      A                      A
 Frequencies --    181.0106               187.4068               187.5242
 Red. masses --     10.0366                 8.7829                 8.7931
 Frc consts  --      0.1938                 0.1817                 0.1822
 IR Inten    --      0.3330                 0.5720                 0.5723

                     13                     14                     15
                      A                      A                      A
 Frequencies --    263.9817               293.5875               293.7068
 Red. masses --      8.9775                 8.3984                 8.4079
 Frc consts  --      0.3686                 0.4265                 0.4273
 IR Inten    --      0.2160                 0.9038                 0.9070

                     16                     17                     18
                      A                      A                      A
 Frequencies --    310.8693               328.6981               328.8187
 Red. masses --      6.0417                 5.9860                 5.9809
 Frc consts  --      0.3440                 0.3810                 0.3810
 IR Inten    --      0.0034                 1.8873                 1.8789

                     19                     20                     21
                      A                      A                      A
 Frequencies --    383.9975               384.0351               414.6109
 Red. masses --      8.0298                 8.0295                 3.0445
 Frc consts  --      0.6976                 0.6977                 0.3084
 IR Inten    --     20.9942                20.9757                 0.0558

                     22                     23                     24
                      A                      A                      A
 Frequencies --    414.7246               416.6932               426.9306
 Red. masses --      3.0451                 3.2130                 6.6042
 Frc consts  --      0.3086                 0.3287                 0.7092
 IR Inten    --      0.0540                 0.1655                 2.9321

                     25                     26                     27
                      A                      A                      A
 Frequencies --    499.5456               509.3570               509.5127
 Red. masses --      5.5204                 3.6433                 3.6476
 Frc consts  --      0.8117                 0.5569                 0.5579
 IR Inten    --      6.8405                19.9058                19.8885

                     28                     29                     30
                      A                      A                      A
 Frequencies --    531.6624               548.8127               548.8458
 Red. masses --      4.5698                 7.4335                 7.4406
 Frc consts  --      0.7611                 1.3191                 1.3206
 IR Inten    --      9.8818                 5.4474                 5.4365

                     31                     32                     33
                      A                      A                      A
 Frequencies --    644.3309               644.3490               645.2765
 Red. masses --      7.1594                 7.1597                 7.1682
 Frc consts  --      1.7512                 1.7514                 1.7585
 IR Inten    --      0.0377                 0.0371                 0.0964

                     34                     35                     36
                      A                      A                      A
 Frequencies --    718.2011               718.2975               718.7485
 Red. masses --      4.5860                 4.5884                 4.6064
 Frc consts  --      1.3937                 1.3948                 1.4021
 IR Inten    --      1.6816                 1.6401                 0.3255

                     37                     38                     39
                      A                      A                      A
 Frequencies --    746.1035               751.6353               751.6623
 Red. masses --      7.2605                 7.2729                 7.2770
 Frc consts  --      2.3813                 2.4209                 2.4224
 IR Inten    --     14.6181                54.3608                54.2943

                     40                     41                     42
                      A                      A                      A
 Frequencies --    833.7073               834.1461               834.2554
 Red. masses --      1.4172                 1.4317                 1.4318
 Frc consts  --      0.5804                 0.5869                 0.5871
 IR Inten    --     23.5940                32.7020                32.8527

                     43                     44                     45
                      A                      A                      A
 Frequencies --    845.8280               845.9339               849.0012
 Red. masses --      1.2467                 1.2466                 1.2501
 Frc consts  --      0.5255                 0.5256                 0.5309
 IR Inten    --      0.6163                 0.6498                 0.3113

                     46                     47                     48
                      A                      A                      A
 Frequencies --    969.5134               969.6347               970.0133
 Red. masses --      1.2758                 1.2764                 1.2879
 Frc consts  --      0.7065                 0.7071                 0.7140
 IR Inten    --      0.1527                 0.1518                 0.2133

                     49                     50                     51
                      A                      A                      A
 Frequencies --    973.2625               973.4369               976.7117
 Red. masses --      1.3463                 1.3451                 1.3220
 Frc consts  --      0.7514                 0.7510                 0.7430
 IR Inten    --      0.0097                 0.0127                 0.4160

                     52                     53                     54
                      A                      A                      A
 Frequencies --   1027.9478              1027.9753              1029.6238
 Red. masses --      4.7578                 4.7642                 4.7015
 Frc consts  --      2.9621                 2.9662                 2.9366
 IR Inten    --     62.7325                62.6833                 5.1159

                     55                     56                     57
                      A                      A                      A
 Frequencies --   1097.7452              1097.7958              1101.5013
 Red. masses --      7.9047                 7.9327                 8.0747
 Frc consts  --      5.6123                 5.6327                 5.7723
 IR Inten    --     80.9801                81.5648                13.6600

                     58                     59                     60
                      A                      A                      A
 Frequencies --   1118.2016              1118.3971              1121.2225
 Red. masses --      2.1229                 2.1218                 2.1024
 Frc consts  --      1.5640                 1.5636                 1.5572
 IR Inten    --     33.1464                32.6253                 6.4048

                     61                     62                     63
                      A                      A                      A
 Frequencies --   1139.2708              1139.4397              1139.6026
 Red. masses --      1.4011                 1.4018                 1.4028
 Frc consts  --      1.0715                 1.0723                 1.0734
 IR Inten    --      0.3151                 1.5863                 2.2209

                     64                     65                     66
                      A                      A                      A
 Frequencies --   1219.0702              1219.4799              1220.8951
 Red. masses --      1.1569                 1.1573                 1.1518
 Frc consts  --      1.0130                 1.0140                 1.0116
 IR Inten    --      4.8301                 4.7850                 0.9415

                     67                     68                     69
                      A                      A                      A
 Frequencies --   1318.3104              1322.2710              1322.3264
 Red. masses --      6.9289                 7.5921                 7.7181
 Frc consts  --      7.0950                 7.8209                 7.9513
 IR Inten    --      1.3151                 2.6743                 2.6575

                     70                     71                     72
                      A                      A                      A
 Frequencies --   1337.2434              1337.5259              1337.8889
 Red. masses --      1.3357                 1.3386                 1.3424
 Frc consts  --      1.4072                 1.4109                 1.4157
 IR Inten    --      0.3934                 0.7444                 1.1436

                     73                     74                     75
                      A                      A                      A
 Frequencies --   1429.5730              1429.9692              1430.0750
 Red. masses --      2.6343                 2.6438                 2.6384
 Frc consts  --      3.1720                 3.1852                 3.1791
 IR Inten    --     19.5380                 6.1416                 6.2296

                     76                     77                     78
                      A                      A                      A
 Frequencies --   1527.0933              1527.1482              1527.2516
 Red. masses --      2.0792                 2.0897                 2.0785
 Frc consts  --      2.8568                 2.8714                 2.8564
 IR Inten    --     59.9587                28.3916                53.7286

                     79                     80                     81
                      A                      A                      A
 Frequencies --   1611.0320              1611.2631              1611.3214
 Red. masses --      6.6416                 6.6651                 6.6561
 Frc consts  --     10.1563                10.1950                10.1820
 IR Inten    --      3.8484                 3.8409                 3.8154

                     82                     83                     84
                      A                      A                      A
 Frequencies --   1633.4326              1633.4740              1634.5094
 Red. masses --      5.4304                 5.4241                 5.4913
 Frc consts  --      8.5365                 8.5271                 8.6437
 IR Inten    --     29.7556                29.6817                13.1093

                     85                     86                     87
                      A                      A                      A
 Frequencies --   3188.0263              3188.1483              3188.1725
 Red. masses --      1.0892                 1.0892                 1.0892
 Frc consts  --      6.5226                 6.5231                 6.5227
 IR Inten    --      5.3345                 5.4866                 1.8650

                     88                     89                     90
                      A                      A                      A
 Frequencies --   3205.5650              3205.6555              3206.2342
 Red. masses --      1.0879                 1.0879                 1.0879
 Frc consts  --      6.5862                 6.5866                 6.5894
 IR Inten    --      0.8580                 0.8631                 0.6755

                     91                     92                     93
                      A                      A                      A
 Frequencies --   3222.5765              3222.6199              3222.7443
 Red. masses --      1.0938                 1.0937                 1.0937
 Frc consts  --      6.6924                 6.6924                 6.6925
 IR Inten    --      2.3902                 2.4101                 9.7637

                     94                     95                     96
                      A                      A                      A
 Frequencies --   3223.6613              3223.6832              3223.9203
 Red. masses --      1.0939                 1.0939                 1.0941
 Frc consts  --      6.6978                 6.6978                 6.7001
 IR Inten    --      5.8123                 5.5632                 0.0375

 - Thermochemistry -
 -------------------
 Temperature   298.150 Kelvin.  Pressure   1.00000 Atm.
 Atom     1 has atomic number  6 and mass  12.00000

 Molecular mass:   363.97422 amu.
 Principal axes and moments of inertia in atomic units:
                           1         2         3
     Eigenvalues --  ******************************
           X            0.99982   0.01880  -0.00000
           Y           -0.01880   0.99982   0.00000
           Z            0.00000  -0.00000   1.00000
 This molecule is an asymmetric top.
 Rotational symmetry number  1.
 Warning -- assumption of classical behavior for rotation
           may cause significant error
 Rotational temperatures (Kelvin)      0.00723     0.00723     0.00405
 Rotational constants (GHZ):           0.15063     0.15060     0.08439
 Zero-point vibrational energy     643750.3 (Joules/Mol)
                                  153.86002 (Kcal/Mol)
 Warning -- explicit consideration of  30 degrees of freedom as
           vibrations may cause significant error
 Vibrational temperatures:     32.18    32.95    42.37    42.60    54.97
          (Kelvin)             57.85   157.27   169.15   169.46   260.43
                              269.64   269.81   379.81   422.41   422.58
                              447.27   472.92   473.10   552.49   552.54
                              596.53   596.70   599.53   614.26   718.73
                              732.85   733.08   764.94   789.62   789.67
                              927.05   927.07   928.41  1033.33  1033.47
                             1034.12  1073.48  1081.44  1081.47  1199.52
                             1200.15  1200.31  1216.96  1217.11  1221.52
                             1394.91  1395.09  1395.63  1400.31  1400.56
                             1405.27  1478.99  1479.03  1481.40  1579.41
                             1579.48  1584.81  1608.84  1609.12  1613.19
                             1639.16  1639.40  1639.63  1753.97  1754.56
                             1756.60  1896.75  1902.45  1902.53  1924.00
                             1924.40  1924.92  2056.84  2057.41  2057.56
                             2197.15  2197.23  2197.37  2317.92  2318.25
                             2318.33  2350.15  2350.20  2351.69  4586.86
                             4587.03  4587.07  4612.09  4612.22  4613.06
                             4636.57  4636.63  4636.81  4638.13  4638.16
                             4638.50

 Zero-point correction=                           0.245192 (Hartree/Particle)
 Thermal correction to Energy=                    0.264842
 Thermal correction to Enthalpy=                  0.265786
 Thermal correction to Gibbs Free Energy=         0.192291
 Sum of electronic and zero-point Energies=          -2414.841053
 Sum of electronic and thermal Energies=             -2414.821403
 Sum of electronic and thermal Enthalpies=           -2414.820458
 Sum of electronic and thermal Free Energies=        -2414.893954

                     E (Thermal)             CV                S
                      KCal/Mol        Cal/Mol-Kelvin    Cal/Mol-Kelvin
 Total                  166.191             74.124            154.684
 Electronic               0.000              0.000              0.000
 Translational            0.889              2.981             43.569
 Rotational               0.889              2.981             36.372
 Vibrational            164.413             68.162             74.744
 Vibration     1          0.593              1.985              6.412
 Vibration     2          0.593              1.985              6.365
 Vibration     3          0.593              1.984              5.866
 Vibration     4          0.593              1.984              5.855
 Vibration     5          0.594              1.982              5.350
 Vibration     6          0.594              1.981              5.249
 Vibration     7          0.606              1.942              3.281
 Vibration     8          0.608              1.935              3.140
 Vibration     9          0.608              1.935              3.136
 Vibration    10          0.630              1.866              2.318
 Vibration    11          0.632              1.857              2.253
 Vibration    12          0.632              1.857              2.252
 Vibration    13          0.671              1.739              1.635
 Vibration    14          0.688              1.686              1.453
 Vibration    15          0.688              1.685              1.453
 Vibration    16          0.700              1.653              1.358
 Vibration    17          0.712              1.618              1.266
 Vibration    18          0.712              1.618              1.266
 Vibration    19          0.753              1.504              1.023
 Vibration    20          0.753              1.504              1.023
 Vibration    21          0.778              1.439              0.910
 Vibration    22          0.778              1.438              0.910
 Vibration    23          0.780              1.434              0.903
 Vibration    24          0.789              1.412              0.869
 Vibration    25          0.855              1.251              0.659
 Vibration    26          0.865              1.229              0.635
 Vibration    27          0.865              1.229              0.635
 Vibration    28          0.887              1.180              0.584
 Vibration    29          0.904              1.142              0.547
 Vibration    30          0.904              1.142              0.547

                           ! Non-Optimized Parameters !
 Normal termination of Gaussian 16 at Sun Aug 23 03:02:18 2020.
 Gaussian 16:  ES64L-G16RevA.03 25-Dec-2016

 ----------------------------------------------------------------------
 # TD(NStates=10, Root=1) B3LYP/6-31G* scf=qc volume pop=NPA density=cu
 rrent Geom=AllCheck Guess=Read
 ----------------------------------------------------------------------

 Structure from the checkpoint file:  "phosphine_11_conf203.chk"
 -------------------
 Title Card Required
 -------------------
 Charge =  0 Multiplicity = 1

                         Standard orientation:
 ---------------------------------------------------------------------
 Center     Atomic      Atomic             Coordinates (Angstroms)
 Number     Number       Type             X           Y           Z
 ---------------------------------------------------------------------
      1          6           0       -0.673799    3.994646    0.852804
      2          6           0       -0.660898    2.701443    1.372212
      3          6           0        0.052656    1.667963    0.742485
      4          6           0        0.777703    1.973118   -0.419090
      5          6           0        0.784872    3.265630   -0.945607
      6          6           0        0.054021    4.265251   -0.305736
      7         17           0        0.057044    5.894896   -0.963728
      8         15           0       -0.000001   -0.000211    1.547281
      9          6           0       -1.470983   -0.788572    0.742331
     10          6           0       -2.097279   -0.313610   -0.419664
     11          6           0       -3.220307   -0.953517   -0.946140
     12          6           0       -3.721189   -2.085728   -0.305789
     13          6           0       -3.123403   -2.580388    0.853141
     14          6           0       -2.009782   -1.922767    1.372482
     15         17           0       -5.134213   -2.897655   -0.963696
     16          6           0        1.418383   -0.879681    0.742306
     17          6           0        2.670288   -0.777785    1.371721
     18          6           0        3.796759   -1.413147    0.852413
     19          6           0        3.667173   -2.179402   -0.305701
     20          6           0        2.435960   -2.313189   -0.945253
     21          6           0        1.320103   -1.660783   -0.418844
     22         17           0        5.077055   -2.996848   -0.963525
     23          1           0       -1.230660    4.785499    1.344116
     24          1           0       -1.212667    2.496240    2.286430
     25          1           0        1.349757    1.199359   -0.921795
     26          1           0        1.350203    3.494639   -1.842977
     27          1           0       -1.712740    0.568264   -0.922750
     28          1           0       -3.700928   -0.578727   -1.843833
     29          1           0       -3.530328   -3.457662    1.344808
     30          1           0       -1.556529   -2.297706    2.286994
     31          1           0        2.768473   -0.196853    2.285630
     32          1           0        4.760158   -1.325794    1.343495
     33          1           0        2.351612   -2.917779   -1.842289
     34          1           0        0.363916   -1.769872   -0.921315
 ---------------------------------------------------------------------

 SCF Done:  E(RB3LYP) =  -2415.08624468     a.u. after    1 cycles

 Excitation energies and oscillator strengths:

 Excited State   1:      Singlet-A      4.4055 eV  281.43 nm  f=0.1834  <S**2>=0.000
      93 -> 94         0.69562
 This state for optimization and/or second-order correction.
 Total Energy, E(TD-HF/TD-DFT) =  -2414.92434467
 Copying the excited state density for this state as the 1-particle RhoCI density.

 Excited State   2:      Singlet-A      4.4062 eV  281.39 nm  f=0.1837  <S**2>=0.000
      93 -> 95         0.69561

 Excited State   3:      Singlet-A      4.6113 eV  268.87 nm  f=0.0036  <S**2>=0.000
      89 -> 94        -0.11001
      90 -> 95        -0.11013
      93 -> 96         0.67975

 Excited State   4:      Singlet-A      4.9173 eV  252.14 nm  f=0.0001  <S**2>=0.000
      88 -> 94         0.11736
      89 -> 94         0.11001
      89 -> 97         0.10049
      90 -> 95        -0.11009
      93 -> 98         0.64531

 Excited State   5:      Singlet-A      4.9175 eV  252.13 nm  f=0.0001  <S**2>=0.000
      88 -> 95         0.11729
      89 -> 95        -0.11031
      90 -> 94        -0.11022
      90 -> 97         0.10069
      93 -> 99         0.64520

 Excited State   6:      Singlet-A      5.0217 eV  246.89 nm  f=0.0090  <S**2>=0.000
      91 -> 94        -0.11120
      92 -> 95        -0.11129
      93 -> 97         0.66883

 Excited State   7:      Singlet-A      5.2598 eV  235.72 nm  f=0.0017  <S**2>=0.000
      89 -> 94         0.13195
      90 -> 95         0.13118
      91 -> 94         0.26855
      91 -> 95        -0.35366
      91 -> 98         0.12100
      92 -> 94         0.35487
      92 -> 95         0.26814
      92 -> 99         0.12041
      93 -> 96         0.10380

 Excited State   8:      Singlet-A      5.3614 eV  231.25 nm  f=0.0049  <S**2>=0.000
      87 -> 94         0.10114
      88 -> 94        -0.19007
      89 -> 94        -0.19136
      89 -> 97        -0.11262
      90 -> 95         0.19107
      91 -> 95         0.11562
      91 -> 96         0.37887
      91 -> 99         0.11940
      92 -> 94         0.11743
      92 -> 96        -0.22911
      92 -> 98         0.11995
      93 -> 98         0.22926

 Excited State   9:      Singlet-A      5.3617 eV  231.24 nm  f=0.0049  <S**2>=0.000
      87 -> 95         0.10086
      88 -> 95        -0.18952
      89 -> 95         0.19113
      90 -> 94         0.19122
      90 -> 97        -0.11262
      91 -> 94         0.11550
      91 -> 96         0.22872
      91 -> 98         0.11939
      92 -> 95        -0.11626
      92 -> 96         0.37947
      92 -> 99        -0.11948
      93 -> 99         0.22947

 Excited State  10:      Singlet-A      5.4215 eV  228.69 nm  f=0.1615  <S**2>=0.000
      91 -> 94        -0.43057
      91 -> 95        -0.17256
      92 -> 94        -0.17354
      92 -> 95         0.43071
      92 -> 96         0.13669

 The electronic state is 1-A.
 Alpha  occ. eigenvalues -- -101.55493-101.55492-101.55492 -77.10094 -10.26329
 Alpha  occ. eigenvalues --  -10.26328 -10.26327 -10.21418 -10.21418 -10.21417
 Alpha  occ. eigenvalues --  -10.21367 -10.21367 -10.21367 -10.21346 -10.21345
 Alpha  occ. eigenvalues --  -10.21345 -10.21313 -10.21312 -10.21312 -10.21248
 Alpha  occ. eigenvalues --  -10.21247 -10.21247  -9.47125  -9.47124  -9.47124
 Alpha  occ. eigenvalues --   -7.23519  -7.23519  -7.23519  -7.22555  -7.22554
 Alpha  occ. eigenvalues --   -7.22554  -7.22517  -7.22517  -7.22517  -6.56809
 Alpha  occ. eigenvalues --   -4.73069  -4.73069  -4.72564  -0.89964  -0.89791
 Alpha  occ. eigenvalues --   -0.89790  -0.85153  -0.84237  -0.84236  -0.76898
 Alpha  occ. eigenvalues --   -0.76780  -0.76780  -0.76742  -0.73906  -0.73906
 Alpha  occ. eigenvalues --   -0.65058  -0.63149  -0.62987  -0.62986  -0.60497
 Alpha  occ. eigenvalues --   -0.60496  -0.57615  -0.52431  -0.52431  -0.49746
 Alpha  occ. eigenvalues --   -0.48087  -0.47999  -0.47998  -0.47167  -0.47167
 Alpha  occ. eigenvalues --   -0.46321  -0.44340  -0.44246  -0.44245  -0.42725
 Alpha  occ. eigenvalues --   -0.42724  -0.40320  -0.40238  -0.40237  -0.39580
 Alpha  occ. eigenvalues --   -0.37219  -0.37219  -0.37129  -0.35189  -0.35187
 Alpha  occ. eigenvalues --   -0.34135  -0.33460  -0.33459  -0.31867  -0.31862
 Alpha  occ. eigenvalues --   -0.31862  -0.27684  -0.27415  -0.27142  -0.27141
 Alpha  occ. eigenvalues --   -0.25829  -0.25828  -0.22676
 Alpha virt. eigenvalues --   -0.03957  -0.03955  -0.03033  -0.01964  -0.01786
 Alpha virt. eigenvalues --   -0.01785   0.02243   0.02243   0.02402   0.05592
 Alpha virt. eigenvalues --    0.05594   0.10344   0.12156   0.12345   0.12345

 Mulliken charges:
               1
     1  C   -0.122664
     2  C   -0.152289
     3  C   -0.089149
     4  C   -0.162429
     5  C   -0.112896
     6  C   -0.076234
     7  Cl  -0.005030
     8  P    0.446570
     9  C   -0.132395
    10  C   -0.173068
    11  C   -0.119211
    12  C   -0.103807
    13  C   -0.123171
    14  C   -0.171333
    15  Cl  -0.049093
    16  C   -0.094297
    17  C   -0.165634
    18  C   -0.113806
    19  C   -0.070908
    20  C   -0.120246
    21  C   -0.148622
    22  Cl   0.004877
    23  H    0.162232
    24  H    0.154087
    25  H    0.156197
    26  H    0.164281
    27  H    0.134613
    28  H    0.145198
    29  H    0.141997
    30  H    0.125785
    31  H    0.152925
    32  H    0.164920
    33  H    0.169563
    34  H    0.183037
 Sum of Mulliken charges =  -0.00000

 Dipole moment (field-independent basis, Debye):
    X=              3.9592    Y=              1.3647    Z=              1.9729  Tot=              4.6292
 Quadrupole moment (field-independent basis, Debye-Ang):
   XX=           -170.8754   YY=           -164.2290   ZZ=           -145.0441
   XY=             -8.3128   XZ=             -0.9319   YZ=              0.4349

 Summary of Natural Population Analysis:

                                       Natural Population
                Natural  -----------------------------------------------
    Atom  No    Charge         Core      Valence    Rydberg      Total
 -----------------------------------------------------------------------
      C    1   -0.25846      1.99893     4.24339    0.01613     6.25846
      C    2   -0.18755      1.99901     4.17331    0.01523     6.18755
      C    3   -0.40181      1.99889     4.37896    0.02397     6.40181
      C    4   -0.22732      1.99899     4.21154    0.01679     6.22732
      C    5   -0.23428      1.99893     4.22015    0.01520     6.23428
      C    6   -0.04149      1.99855     4.02070    0.02224     6.04149
     Cl    7    0.01236      9.99967     6.96825    0.01973    16.98764
      P    8    1.21205      9.99758     3.74052    0.04984    13.78795
      C    9   -0.48861      1.99886     4.46429    0.02546     6.48861
      C   10   -0.24807      1.99899     4.23135    0.01773     6.24807
      C   11   -0.24554      1.99893     4.23064    0.01596     6.24554
      C   12   -0.09788      1.99854     4.07713    0.02221     6.09788
      C   13   -0.25968      1.99894     4.24429    0.01645     6.25968
      C   14   -0.22210      1.99901     4.20691    0.01618     6.22210
     Cl   15   -0.02054      9.99968     7.00030    0.02057    17.02054
      C   16   -0.40467      1.99890     4.38000    0.02578     6.40467
      C   17   -0.20700      1.99902     4.19247    0.01551     6.20700
      C   18   -0.24217      1.99893     4.22795    0.01529     6.24217
      C   19   -0.03028      1.99855     4.00944    0.02230     6.03028
      C   20   -0.24732      1.99892     4.23279    0.01560     6.24732
      C   21   -0.19358      1.99900     4.17838    0.01620     6.19358
     Cl   22    0.02009      9.99967     6.96068    0.01956    16.97991
      H   23    0.25795      0.00000     0.74102    0.00103     0.74205
      H   24    0.24696      0.00000     0.75185    0.00119     0.75304
      H   25    0.25120      0.00000     0.74754    0.00126     0.74880
      H   26    0.25879      0.00000     0.74015    0.00106     0.74121
      H   27    0.23871      0.00000     0.75981    0.00149     0.76129
      H   28    0.25003      0.00000     0.74893    0.00104     0.74997
      H   29    0.24811      0.00000     0.75084    0.00106     0.75189
      H   30    0.23125      0.00000     0.76783    0.00092     0.76875
      H   31    0.24502      0.00000     0.75390    0.00108     0.75498
      H   32    0.25845      0.00000     0.74047    0.00109     0.74155
      H   33    0.26153      0.00000     0.73742    0.00105     0.73847
      H   34    0.26587      0.00000     0.73284    0.00129     0.73413
 =======================================================================
   * Total *   -0.00000     75.97648   109.56602    0.45750   186.00000

 Normal termination of Gaussian 16 at Sun Aug 23 03:19:33 2020.
