 Gaussian 16, Revision A.03,

 ---------------------------------
 # opt=CalcAll B3LYP/6-31G* scf=qc
 ---------------------------------

 -------------------
 Title Card Required
 -------------------
 Symbolic Z-matrix:
 Charge =  0 Multiplicity = 1

 SCF Done:  E(RB3LYP) =  -2415.05955761     a.u. after    8 cycles
 SCF Done:  E(RB3LYP) =  -2415.06602301     a.u. after   17 cycles
 SCF Done:  E(RB3LYP) =  -2415.08290628     a.u. after   15 cycles
 SCF Done:  E(RB3LYP) =  -2415.08565232     a.u. after   15 cycles
 SCF Done:  E(RB3LYP) =  -2415.08617171     a.u. after   13 cycles
 SCF Done:  E(RB3LYP) =  -2415.08624025     a.u. after   11 cycles
 SCF Done:  E(RB3LYP) =  -2415.08624736     a.u. after    5 cycles
 SCF Done:  E(RB3LYP) =  -2415.08624930     a.u. after    5 cycles
 SCF Done:  E(RB3LYP) =  -2415.08624765     a.u. after    2 cycles
 SCF Done:  E(RB3LYP) =  -2415.08624559     a.u. after    2 cycles
 SCF Done:  E(RB3LYP) =  -2415.08624659     a.u. after    2 cycles
 SCF Done:  E(RB3LYP) =  -2415.08624208     a.u. after    2 cycles
 SCF Done:  E(RB3LYP) =  -2415.08624019     a.u. after    5 cycles
 SCF Done:  E(RB3LYP) =  -2415.08624188     a.u. after    5 cycles
 SCF Done:  E(RB3LYP) =  -2415.08624791     a.u. after    3 cycles
 SCF Done:  E(RB3LYP) =  -2415.08624778     a.u. after    2 cycles
 SCF Done:  E(RB3LYP) =  -2415.08624791     a.u. after    2 cycles
 Optimization completed.
    -- Stationary point found.
 Normal termination of Gaussian 16 at Sun Aug 23 01:52:17 2020.

 ----------------------------------------------------------------------
 # freq B3LYP/6-31G* scf=qc volume NMR pop=NPA density=current Geom=All
 Check Guess=Read
 ----------------------------------------------------------------------

 Structure from the checkpoint file:  "phosphine_11_conf122.chk"
 -------------------
 Title Card Required
 -------------------
 Charge =  0 Multiplicity = 1

 SCF Done:  E(RB3LYP) =  -2415.08624791     a.u. after    1 cycles

      1  C    Isotropic =    67.5576   Anisotropy =   140.5769

      2  C    Isotropic =    60.2444   Anisotropy =   160.3279

      3  C    Isotropic =    58.7510   Anisotropy =   177.3843

      4  C    Isotropic =    61.9163   Anisotropy =   168.5894

      5  C    Isotropic =    67.5346   Anisotropy =   140.1218

      6  C    Isotropic =    51.6158   Anisotropy =   109.1189

      7  Cl   Isotropic =   721.0332   Anisotropy =   452.8722

      8  P    Isotropic =   364.8271   Anisotropy =    37.3329

      9  C    Isotropic =    58.7670   Anisotropy =   177.3954

     10  C    Isotropic =    61.8402   Anisotropy =   168.6328

     11  C    Isotropic =    67.5334   Anisotropy =   140.1042

     12  C    Isotropic =    51.5778   Anisotropy =   109.1909

     13  C    Isotropic =    67.5622   Anisotropy =   140.6151

     14  C    Isotropic =    60.1764   Anisotropy =   160.2401

     15  Cl   Isotropic =   720.9522   Anisotropy =   452.8575

     16  C    Isotropic =    58.6763   Anisotropy =   177.4506

     17  C    Isotropic =    60.2578   Anisotropy =   160.2924

     18  C    Isotropic =    67.5582   Anisotropy =   140.5734

     19  C    Isotropic =    51.6146   Anisotropy =   109.1202

     20  C    Isotropic =    67.5423   Anisotropy =   140.1087

     21  C    Isotropic =    61.9175   Anisotropy =   168.5459

     22  Cl   Isotropic =   720.9754   Anisotropy =   453.0018

     23  H    Isotropic =    25.0926   Anisotropy =     6.6326

     24  H    Isotropic =    24.7809   Anisotropy =     8.9773

     25  H    Isotropic =    25.5858   Anisotropy =    12.1319

     26  H    Isotropic =    25.2083   Anisotropy =     8.1439

     27  H    Isotropic =    25.5814   Anisotropy =    12.0980

     28  H    Isotropic =    25.2091   Anisotropy =     8.1385

     29  H    Isotropic =    25.0885   Anisotropy =     6.6362

     30  H    Isotropic =    24.7755   Anisotropy =     8.9548

     31  H    Isotropic =    24.7824   Anisotropy =     8.9751

     32  H    Isotropic =    25.0953   Anisotropy =     6.6314

     33  H    Isotropic =    25.2096   Anisotropy =     8.1445

     34  H    Isotropic =    25.5902   Anisotropy =    12.1227

  Exact polarizability: 280.796  -0.152 280.446   0.169   0.001 185.063
 Approx polarizability: 393.790  -0.353 393.189   0.386  -0.002 343.044

                      1                      2                      3
                      A                      A                      A
 Frequencies --     22.6809                24.0908                29.7657
 Red. masses --      4.8689                 5.4310                 8.2589
 Frc consts  --      0.0015                 0.0019                 0.0043
 IR Inten    --      0.2664                 0.2431                 0.1873

                      4                      5                      6
                      A                      A                      A
 Frequencies --     30.1683                38.5111                40.6130
 Red. masses --      7.0428                 8.5782                 4.4303
 Frc consts  --      0.0038                 0.0075                 0.0043
 IR Inten    --      0.2343                 0.2000                 0.0269

                      7                      8                      9
                      A                      A                      A
 Frequencies --    109.4894               117.6666               117.8426
 Red. masses --      8.8641                 8.8359                 8.8322
 Frc consts  --      0.0626                 0.0721                 0.0723
 IR Inten    --      0.0246                 0.3526                 0.3476

                     10                     11                     12
                      A                      A                      A
 Frequencies --    181.0484               187.4494               187.7479
 Red. masses --     10.0353                 8.7919                 8.7971
 Frc consts  --      0.1938                 0.1820                 0.1827
 IR Inten    --      0.3335                 0.5723                 0.5696

                     13                     14                     15
                      A                      A                      A
 Frequencies --    264.0372               293.7078               293.8395
 Red. masses --      8.9828                 8.4164                 8.4102
 Frc consts  --      0.3690                 0.4278                 0.4278
 IR Inten    --      0.2159                 0.9151                 0.9032

                     16                     17                     18
                      A                      A                      A
 Frequencies --    310.9857               328.7480               328.8558
 Red. masses --      6.0388                 5.9898                 5.9772
 Frc consts  --      0.3441                 0.3814                 0.3809
 IR Inten    --      0.0035                 1.8914                 1.8728

                     19                     20                     21
                      A                      A                      A
 Frequencies --    384.0180               384.2222               414.7579
 Red. masses --      8.0271                 8.0180                 3.0464
 Frc consts  --      0.6974                 0.6974                 0.3088
 IR Inten    --     20.9482                21.0330                 0.0559

                     22                     23                     24
                      A                      A                      A
 Frequencies --    414.8643               416.8146               426.9753
 Red. masses --      3.0468                 3.2175                 6.5929
 Frc consts  --      0.3090                 0.3293                 0.7082
 IR Inten    --      0.0411                 0.1673                 2.9317

                     25                     26                     27
                      A                      A                      A
 Frequencies --    499.5732               509.4409               509.5822
 Red. masses --      5.5294                 3.6450                 3.6548
 Frc consts  --      0.8131                 0.5574                 0.5592
 IR Inten    --      6.8292                19.8954                19.7750

                     28                     29                     30
                      A                      A                      A
 Frequencies --    531.7530               548.8143               548.9435
 Red. masses --      4.5676                 7.4248                 7.4293
 Frc consts  --      0.7610                 1.3176                 1.3190
 IR Inten    --      9.9009                 5.4553                 5.4457

                     31                     32                     33
                      A                      A                      A
 Frequencies --    644.3412               644.4020               645.3056
 Red. masses --      7.1598                 7.1604                 7.1684
 Frc consts  --      1.7514                 1.7519                 1.7587
 IR Inten    --      0.0369                 0.0372                 0.0952

                     34                     35                     36
                      A                      A                      A
 Frequencies --    718.2641               718.3937               718.7749
 Red. masses --      4.5896                 4.5952                 4.6100
 Frc consts  --      1.3951                 1.3973                 1.4033
 IR Inten    --      1.6521                 1.7047                 0.2862

                     37                     38                     39
                      A                      A                      A
 Frequencies --    746.1327               751.6392               751.6719
 Red. masses --      7.2607                 7.2733                 7.2747
 Frc consts  --      2.3816                 2.4210                 2.4217
 IR Inten    --     14.6342                54.2569                54.4004

                     40                     41                     42
                      A                      A                      A
 Frequencies --    833.8315               834.2427               834.3443
 Red. masses --      1.4159                 1.4317                 1.4314
 Frc consts  --      0.5800                 0.5871                 0.5871
 IR Inten    --     23.3744                33.0471                32.7158

                     43                     44                     45
                      A                      A                      A
 Frequencies --    845.9666               846.0932               849.1310
 Red. masses --      1.2465                 1.2465                 1.2502
 Frc consts  --      0.5256                 0.5257                 0.5311
 IR Inten    --      0.6039                 0.6633                 0.3258

                     46                     47                     48
                      A                      A                      A
 Frequencies --    969.6633               969.7218               970.1118
 Red. masses --      1.2758                 1.2772                 1.2882
 Frc consts  --      0.7068                 0.7076                 0.7143
 IR Inten    --      0.1484                 0.1452                 0.2074

                     49                     50                     51
                      A                      A                      A
 Frequencies --    973.4580               973.6670               976.9212
 Red. masses --      1.3456                 1.3434                 1.3208
 Frc consts  --      0.7513                 0.7503                 0.7427
 IR Inten    --      0.0111                 0.0124                 0.4155

                     52                     53                     54
                      A                      A                      A
 Frequencies --   1027.9877              1028.0050              1029.6320
 Red. masses --      4.7626                 4.7625                 4.6998
 Frc consts  --      2.9653                 2.9654                 2.9356
 IR Inten    --     62.6836                62.7101                 5.1238

                     55                     56                     57
                      A                      A                      A
 Frequencies --   1097.7573              1097.7953              1101.5168
 Red. masses --      7.9148                 7.9137                 8.0763
 Frc consts  --      5.6196                 5.6191                 5.7736
 IR Inten    --     81.0071                81.4064                13.6514

                     58                     59                     60
                      A                      A                      A
 Frequencies --   1118.3048              1118.3428              1121.2181
 Red. masses --      2.1228                 2.1217                 2.1022
 Frc consts  --      1.5641                 1.5635                 1.5571
 IR Inten    --     32.9381                32.9721                 6.3998

                     61                     62                     63
                      A                      A                      A
 Frequencies --   1139.4181              1139.4667              1139.5817
 Red. masses --      1.4021                 1.4014                 1.4022
 Frc consts  --      1.0725                 1.0720                 1.0729
 IR Inten    --      1.0022                 0.2063                 2.9222

                     64                     65                     66
                      A                      A                      A
 Frequencies --   1219.3604              1219.3818              1220.8691
 Red. masses --      1.1573                 1.1573                 1.1517
 Frc consts  --      1.0138                 1.0138                 1.0114
 IR Inten    --      4.8085                 4.8040                 0.9033

                     67                     68                     69
                      A                      A                      A
 Frequencies --   1318.3240              1322.2462              1322.3728
 Red. masses --      6.9333                 7.6511                 7.7079
 Frc consts  --      7.0996                 7.8813                 7.9414
 IR Inten    --      1.3119                 2.6531                 2.6780

                     70                     71                     72
                      A                      A                      A
 Frequencies --   1337.4688              1337.5164              1337.7439
 Red. masses --      1.3346                 1.3301                 1.3504
 Frc consts  --      1.4066                 1.4020                 1.4238
 IR Inten    --      0.4556                 0.3268                 1.5021

                     73                     74                     75
                      A                      A                      A
 Frequencies --   1429.5663              1430.0092              1430.0929
 Red. masses --      2.6343                 2.6406                 2.6417
 Frc consts  --      3.1719                 3.1815                 3.1831
 IR Inten    --     19.5175                 6.2004                 6.2280

                     76                     77                     78
                      A                      A                      A
 Frequencies --   1527.1447              1527.1840              1527.2046
 Red. masses --      2.0942                 2.0769                 2.0762
 Frc consts  --      2.8776                 2.8540                 2.8531
 IR Inten    --     16.0839                62.2054                63.8034

                     79                     80                     81
                      A                      A                      A
 Frequencies --   1611.0333              1611.2746              1611.3235
 Red. masses --      6.6425                 6.6592                 6.6621
 Frc consts  --     10.1576                10.1862                10.1912
 IR Inten    --      3.8605                 3.8022                 3.8397

                     82                     83                     84
                      A                      A                      A
 Frequencies --   1633.4542              1633.4570              1634.4963
 Red. masses --      5.4264                 5.4259                 5.4922
 Frc consts  --      8.5305                 8.5298                 8.6450
 IR Inten    --     29.6313                29.7264                13.1158

                     85                     86                     87
                      A                      A                      A
 Frequencies --   3187.9887              3188.0335              3188.2459
 Red. masses --      1.0893                 1.0892                 1.0892
 Frc consts  --      6.5225                 6.5223                 6.5233
 IR Inten    --      6.0955                 2.8723                 3.7384

                     88                     89                     90
                      A                      A                      A
 Frequencies --   3205.8569              3205.9868              3206.5316
 Red. masses --      1.0878                 1.0878                 1.0879
 Frc consts  --      6.5872                 6.5875                 6.5902
 IR Inten    --      0.8728                 0.8578                 0.6327

                     91                     92                     93
                      A                      A                      A
 Frequencies --   3222.6385              3222.6549              3222.7856
 Red. masses --      1.0938                 1.0938                 1.0937
 Frc consts  --      6.6926                 6.6926                 6.6927
 IR Inten    --      2.3098                 2.3543                 9.9715

                     94                     95                     96
                      A                      A                      A
 Frequencies --   3223.7002              3223.7244              3223.9648
 Red. masses --      1.0939                 1.0939                 1.0941
 Frc consts  --      6.6980                 6.6981                 6.7004
 IR Inten    --      5.6694                 5.6521                 0.0291

 - Thermochemistry -
 -------------------
 Temperature   298.150 Kelvin.  Pressure   1.00000 Atm.
 Atom     1 has atomic number  6 and mass  12.00000

 Molecular mass:   363.97422 amu.
 Principal axes and moments of inertia in atomic units:
                           1         2         3
     Eigenvalues --  ******************************
           X            0.99982  -0.01888   0.00003
           Y            0.01888   0.99982   0.00001
           Z           -0.00003  -0.00001   1.00000
 This molecule is an asymmetric top.
 Rotational symmetry number  1.
 Warning -- assumption of classical behavior for rotation
           may cause significant error
 Rotational temperatures (Kelvin)      0.00723     0.00722     0.00405
 Rotational constants (GHZ):           0.15072     0.15053     0.08441
 Zero-point vibrational energy     643804.7 (Joules/Mol)
                                  153.87303 (Kcal/Mol)
 Warning -- explicit consideration of  30 degrees of freedom as
           vibrations may cause significant error
 Vibrational temperatures:     32.63    34.66    42.83    43.41    55.41
          (Kelvin)             58.43   157.53   169.30   169.55   260.49
                              269.70   270.13   379.89   422.58   422.77
                              447.44   473.00   473.15   552.52   552.81
                              596.74   596.90   599.70   614.32   718.77
                              732.97   733.18   765.07   789.62   789.81
                              927.06   927.15   928.45  1033.42  1033.61
                             1034.16  1073.52  1081.44  1081.49  1199.70
                             1200.29  1200.44  1217.16  1217.34  1221.71
                             1395.13  1395.21  1395.77  1400.59  1400.89
                             1405.57  1479.04  1479.07  1481.41  1579.43
                             1579.48  1584.84  1608.99  1609.05  1613.18
                             1639.37  1639.44  1639.60  1754.39  1754.42
                             1756.56  1896.77  1902.42  1902.60  1924.32
                             1924.39  1924.72  2056.83  2057.46  2057.58
                             2197.22  2197.28  2197.31  2317.92  2318.26
                             2318.34  2350.18  2350.18  2351.68  4586.80
                             4586.87  4587.17  4612.51  4612.70  4613.48
                             4636.66  4636.68  4636.87  4638.19  4638.22
                             4638.57

 Zero-point correction=                           0.245212 (Hartree/Particle)
 Thermal correction to Energy=                    0.264853
 Thermal correction to Enthalpy=                  0.265797
 Thermal correction to Gibbs Free Energy=         0.192415
 Sum of electronic and zero-point Energies=          -2414.841036
 Sum of electronic and thermal Energies=             -2414.821395
 Sum of electronic and thermal Enthalpies=           -2414.820451
 Sum of electronic and thermal Free Energies=        -2414.893833

                     E (Thermal)             CV                S
                      KCal/Mol        Cal/Mol-Kelvin    Cal/Mol-Kelvin
 Total                  166.198             74.116            154.445
 Electronic               0.000              0.000              0.000
 Translational            0.889              2.981             43.569
 Rotational               0.889              2.981             36.371
 Vibrational            164.420             68.154             74.504
 Vibration     1          0.593              1.985              6.384
 Vibration     2          0.593              1.985              6.265
 Vibration     3          0.594              1.984              5.845
 Vibration     4          0.594              1.984              5.818
 Vibration     5          0.594              1.981              5.334
 Vibration     6          0.594              1.981              5.229
 Vibration     7          0.606              1.942              3.278
 Vibration     8          0.608              1.935              3.138
 Vibration     9          0.608              1.935              3.135
 Vibration    10          0.630              1.865              2.318
 Vibration    11          0.632              1.857              2.253
 Vibration    12          0.632              1.857              2.250
 Vibration    13          0.671              1.739              1.635
 Vibration    14          0.689              1.685              1.453
 Vibration    15          0.689              1.685              1.452
 Vibration    16          0.700              1.653              1.357
 Vibration    17          0.712              1.618              1.266
 Vibration    18          0.712              1.618              1.266
 Vibration    19          0.753              1.504              1.023
 Vibration    20          0.753              1.504              1.022
 Vibration    21          0.778              1.438              0.910
 Vibration    22          0.778              1.438              0.910
 Vibration    23          0.780              1.434              0.903
 Vibration    24          0.789              1.412              0.869
 Vibration    25          0.855              1.251              0.659
 Vibration    26          0.865              1.229              0.635
 Vibration    27          0.865              1.229              0.635
 Vibration    28          0.887              1.180              0.583
 Vibration    29          0.904              1.142              0.547
 Vibration    30          0.904              1.142              0.546

                           ! Non-Optimized Parameters !
 Normal termination of Gaussian 16 at Sun Aug 23 02:07:11 2020.
 Gaussian 16:  ES64L-G16RevA.03 25-Dec-2016

 ----------------------------------------------------------------------
 # TD(NStates=10, Root=1) B3LYP/6-31G* scf=qc volume pop=NPA density=cu
 rrent Geom=AllCheck Guess=Read
 ----------------------------------------------------------------------

 Structure from the checkpoint file:  "phosphine_11_conf123.chk"
 -------------------
 Title Card Required
 -------------------
 Charge =  0 Multiplicity = 1

                         Standard orientation:
 ---------------------------------------------------------------------
 Center     Atomic      Atomic             Coordinates (Angstroms)
 Number     Number       Type             X           Y           Z
 ---------------------------------------------------------------------
      1          6           0       -3.862740   -1.221303    0.850697
      2          6           0       -2.706123   -0.642855    1.370217
      3          6           0       -1.460126   -0.809783    0.742906
      4          6           0       -1.400085   -1.597814   -0.416144
      5          6           0       -2.546972   -2.193926   -0.942657
      6          6           0       -3.770693   -1.996011   -0.305396
      7         17           0       -5.219453   -2.742064   -0.963572
      8         15           0       -0.000142   -0.001239    1.547871
      9          6           0        1.430619   -0.860148    0.742677
     10          6           0        2.075305   -0.418951   -0.422588
     11          6           0        3.165714   -1.112474   -0.949662
     12          6           0        3.614801   -2.264703   -0.306536
     13          6           0        2.997676   -2.726894    0.855639
     14          6           0        1.917385   -2.016152    1.375463
     15         17           0        4.986491   -3.144135   -0.965112
     16          6           0        0.029184    1.667473    0.742919
     17          6           0        0.795945    2.663590    1.370352
     18          6           0        0.872664    3.954456    0.850686
     19          6           0        0.155985    4.261508   -0.305722
     20          6           0       -0.626409    3.300124   -0.943189
     21          6           0       -0.683025    2.008884   -0.416481
     22         17           0        0.233456    5.889218   -0.964013
     23          1           0       -4.821148   -1.083765    1.340053
     24          1           0       -2.775952   -0.055389    2.282563
     25          1           0       -0.450048   -1.756651   -0.916984
     26          1           0       -2.492213   -2.804230   -1.838118
     27          1           0        1.730996    0.478312   -0.927598
     28          1           0        3.660955   -0.763653   -1.849869
     29          1           0        3.364458   -3.620563    1.349354
     30          1           0        1.449471   -2.366336    2.292396
     31          1           0        1.339420    2.430809    2.282937
     32          1           0        1.470294    4.716138    1.340190
     33          1           0       -1.182120    3.557390   -1.838911
     34          1           0       -1.295018    1.265063   -0.917340
 ---------------------------------------------------------------------

 SCF Done:  E(RB3LYP) =  -2415.08624791     a.u. after    1 cycles

 Excitation energies and oscillator strengths:

 Excited State   1:      Singlet-A      4.4039 eV  281.53 nm  f=0.1824  <S**2>=0.000
      93 -> 94         0.69583
 This state for optimization and/or second-order correction.
 Total Energy, E(TD-HF/TD-DFT) =  -2414.92440722
 Copying the excited state density for this state as the 1-particle RhoCI density.

 Excited State   2:      Singlet-A      4.4080 eV  281.27 nm  f=0.1848  <S**2>=0.000
      93 -> 95         0.69578

 Excited State   3:      Singlet-A      4.6107 eV  268.91 nm  f=0.0036  <S**2>=0.000
      89 -> 94         0.10949
      90 -> 95         0.11037
      93 -> 96         0.67979

 Excited State   4:      Singlet-A      4.9165 eV  252.18 nm  f=0.0001  <S**2>=0.000
      88 -> 94         0.11752
      89 -> 94        -0.11650
      90 -> 95         0.11722
      93 -> 98         0.64550

 Excited State   5:      Singlet-A      4.9183 eV  252.09 nm  f=0.0001  <S**2>=0.000
      88 -> 95        -0.11717
      89 -> 95        -0.11838
      90 -> 94        -0.11778
      90 -> 97        -0.10151
      93 -> 99         0.64476

 Excited State   6:      Singlet-A      5.0213 eV  246.91 nm  f=0.0090  <S**2>=0.000
      91 -> 94        -0.11378
      92 -> 95        -0.11462
      93 -> 97         0.66860

 Excited State   7:      Singlet-A      5.2601 eV  235.71 nm  f=0.0018  <S**2>=0.000
      89 -> 94        -0.13437
      90 -> 95        -0.12863
      91 -> 94        -0.25560
      91 -> 95        -0.35967
      91 -> 98        -0.12522
      92 -> 94         0.36845
      92 -> 95        -0.25392
      92 -> 99         0.12094
      93 -> 96         0.10361

 Excited State   8:      Singlet-A      5.3606 eV  231.29 nm  f=0.0049  <S**2>=0.000
      88 -> 94         0.19286
      89 -> 94        -0.17517
      89 -> 97         0.11223
      90 -> 95         0.17398
      91 -> 94        -0.13435
      91 -> 96         0.37504
      91 -> 98        -0.14647
      92 -> 95         0.14003
      92 -> 96         0.23455
      92 -> 99        -0.14636
      93 -> 98        -0.22727

 Excited State   9:      Singlet-A      5.3623 eV  231.21 nm  f=0.0046  <S**2>=0.000
      88 -> 95         0.18912
      89 -> 95         0.17359
      90 -> 94         0.17451
      90 -> 97         0.11238
      91 -> 95         0.13976
      91 -> 96        -0.23124
      91 -> 99        -0.14377
      92 -> 94         0.14087
      92 -> 96         0.37997
      92 -> 98         0.14810
      93 -> 99         0.22902

 Excited State  10:      Singlet-A      5.4208 eV  228.72 nm  f=0.1605  <S**2>=0.000
      91 -> 94        -0.24392
      91 -> 95         0.38961
      92 -> 94         0.39808
      92 -> 95         0.25019
      92 -> 96        -0.13206

 The electronic state is 1-A.
 Alpha  occ. eigenvalues -- -101.55496-101.55491-101.55489 -77.10095 -10.26334
 Alpha  occ. eigenvalues --  -10.26326 -10.26324 -10.21420 -10.21418 -10.21416
 Alpha  occ. eigenvalues --  -10.21370 -10.21367 -10.21365 -10.21350 -10.21344
 Alpha  occ. eigenvalues --  -10.21343 -10.21315 -10.21312 -10.21310 -10.21252
 Alpha  occ. eigenvalues --  -10.21246 -10.21244  -9.47128  -9.47123  -9.47121
 Alpha  occ. eigenvalues --   -7.23523  -7.23518  -7.23516  -7.22558  -7.22553
 Alpha  occ. eigenvalues --   -7.22552  -7.22521  -7.22516  -7.22514  -6.56810
 Alpha  occ. eigenvalues --   -4.73070  -4.73070  -4.72565  -0.89964  -0.89793
 Alpha  occ. eigenvalues --   -0.89788  -0.85154  -0.84239  -0.84234  -0.76898
 Alpha  occ. eigenvalues --   -0.76781  -0.76779  -0.76742  -0.73908  -0.73904
 Alpha  occ. eigenvalues --   -0.65058  -0.63149  -0.62988  -0.62986  -0.60498
 Alpha  occ. eigenvalues --   -0.60495  -0.57615  -0.52433  -0.52429  -0.49746
 Alpha  occ. eigenvalues --   -0.48087  -0.48000  -0.47998  -0.47168  -0.47167
 Alpha  occ. eigenvalues --   -0.46320  -0.44340  -0.44247  -0.44244  -0.42727
 Alpha  occ. eigenvalues --   -0.42722  -0.40320  -0.40239  -0.40235  -0.39581
 Alpha  occ. eigenvalues --   -0.37220  -0.37218  -0.37129  -0.35190  -0.35183
 Alpha  occ. eigenvalues --   -0.34137  -0.33464  -0.33457  -0.31869  -0.31862
 Alpha  occ. eigenvalues --   -0.31860  -0.27686  -0.27417  -0.27145  -0.27138
 Alpha  occ. eigenvalues --   -0.25833  -0.25823  -0.22675
 Alpha virt. eigenvalues --   -0.03960  -0.03950  -0.03035  -0.01965  -0.01790
 Alpha virt. eigenvalues --   -0.01780   0.02241   0.02245   0.02402   0.05583
 Alpha virt. eigenvalues --    0.05599   0.10344   0.12158   0.12343   0.12346

 Mulliken charges:
               1
     1  C   -0.114358
     2  C   -0.169740
     3  C   -0.104822
     4  C   -0.151886
     5  C   -0.121481
     6  C   -0.077991
     7  Cl  -0.006467
     8  P    0.446376
     9  C   -0.129468
    10  C   -0.175639
    11  C   -0.117312
    12  C   -0.103646
    13  C   -0.125215
    14  C   -0.167582
    15  Cl  -0.049305
    16  C   -0.081609
    17  C   -0.151776
    18  C   -0.120113
    19  C   -0.069345
    20  C   -0.113496
    21  C   -0.156642
    22  Cl   0.006512
    23  H    0.159780
    24  H    0.145981
    25  H    0.176621
    26  H    0.164616
    27  H    0.129976
    28  H    0.144937
    29  H    0.142270
    30  H    0.127239
    31  H    0.159608
    32  H    0.167100
    33  H    0.169505
    34  H    0.167372
 Sum of Mulliken charges =   0.00000

 Dipole moment (field-independent basis, Debye):
    X=             -3.0284    Y=              2.9867    Z=              1.9745  Tot=              4.6893
 Quadrupole moment (field-independent basis, Debye-Ang):
   XX=           -173.2505   YY=           -161.8328   ZZ=           -145.0627
   XY=              7.0476   XZ=              1.0782   YZ=             -0.0044

 Summary of Natural Population Analysis:

                                       Natural Population
                Natural  -----------------------------------------------
    Atom  No    Charge         Core      Valence    Rydberg      Total
 -----------------------------------------------------------------------
      C    1   -0.24328      1.99893     4.22892    0.01543     6.24328
      C    2   -0.21467      1.99902     4.19992    0.01573     6.21467
      C    3   -0.42598      1.99890     4.40099    0.02609     6.42598
      C    4   -0.20013      1.99899     4.18463    0.01650     6.20013
      C    5   -0.24952      1.99893     4.23482    0.01578     6.24952
      C    6   -0.04477      1.99855     4.02392    0.02230     6.04477
     Cl    7    0.01161      9.99967     6.96891    0.01981    16.98839
      P    8    1.21194      9.99758     3.74064    0.04984    13.78806
      C    9   -0.48434      1.99886     4.46046    0.02502     6.48434
      C   10   -0.25464      1.99899     4.23784    0.01781     6.25464
      C   11   -0.24213      1.99893     4.22735    0.01584     6.24213
      C   12   -0.09765      1.99854     4.07692    0.02219     6.09765
      C   13   -0.26338      1.99894     4.24783    0.01662     6.26338
      C   14   -0.21628      1.99901     4.20118    0.01608     6.21628
     Cl   15   -0.02079      9.99968     7.00056    0.02056    17.02079
      C   16   -0.38480      1.99890     4.36181    0.02410     6.38480
      C   17   -0.18556      1.99901     4.17145    0.01509     6.18556
      C   18   -0.25372      1.99893     4.23896    0.01584     6.25372
      C   19   -0.02727      1.99855     4.00647    0.02225     6.02727
      C   20   -0.23536      1.99892     4.22129    0.01514     6.23536
      C   21   -0.21429      1.99899     4.19889    0.01641     6.21429
     Cl   22    0.02107      9.99967     6.95977    0.01948    16.97893
      H   23    0.25599      0.00000     0.74291    0.00110     0.74401
      H   24    0.24123      0.00000     0.75775    0.00103     0.75877
      H   25    0.26218      0.00000     0.73644    0.00138     0.73782
      H   26    0.25924      0.00000     0.73970    0.00106     0.74076
      H   27    0.23622      0.00000     0.76235    0.00144     0.76378
      H   28    0.24984      0.00000     0.74911    0.00104     0.75016
      H   29    0.24841      0.00000     0.75055    0.00104     0.75159
      H   30    0.23233      0.00000     0.76672    0.00096     0.76767
      H   31    0.24970      0.00000     0.74909    0.00121     0.75030
      H   32    0.26011      0.00000     0.73886    0.00104     0.73989
      H   33    0.26127      0.00000     0.73768    0.00105     0.73873
      H   34    0.25742      0.00000     0.74136    0.00122     0.74258
 =======================================================================
   * Total *    0.00000     75.97648   109.56605    0.45747   186.00000

 Normal termination of Gaussian 16 at Sun Aug 23 02:25:10 2020.
