 Gaussian 16, Revision A.03,

 ---------------------------------
 # opt=CalcAll B3LYP/6-31G* scf=qc
 ---------------------------------

 -------------------
 Title Card Required
 -------------------
 Symbolic Z-matrix:
 Charge =  0 Multiplicity = 1

 SCF Done:  E(RB3LYP) =  -1036.28632979     a.u. after    8 cycles
 SCF Done:  E(RB3LYP) =  -1036.29454027     a.u. after   17 cycles
 SCF Done:  E(RB3LYP) =  -1036.29688561     a.u. after   17 cycles
 SCF Done:  E(RB3LYP) =  -1036.29793563     a.u. after   17 cycles
 SCF Done:  E(RB3LYP) =  -1036.29812796     a.u. after   13 cycles
 SCF Done:  E(RB3LYP) =  -1036.29816544     a.u. after    5 cycles
 SCF Done:  E(RB3LYP) =  -1036.29816984     a.u. after    3 cycles
 SCF Done:  E(RB3LYP) =  -1036.29822814     a.u. after   11 cycles
 SCF Done:  E(RB3LYP) =  -1036.29822963     a.u. after    5 cycles
 SCF Done:  E(RB3LYP) =  -1036.29823621     a.u. after    2 cycles
 SCF Done:  E(RB3LYP) =  -1036.29823587     a.u. after    2 cycles
 SCF Done:  E(RB3LYP) =  -1036.29823803     a.u. after    3 cycles
 SCF Done:  E(RB3LYP) =  -1036.29823571     a.u. after    3 cycles
 SCF Done:  E(RB3LYP) =  -1036.29823655     a.u. after    4 cycles
 SCF Done:  E(RB3LYP) =  -1036.29823672     a.u. after    3 cycles
 SCF Done:  E(RB3LYP) =  -1036.29823670     a.u. after    2 cycles
 SCF Done:  E(RB3LYP) =  -1036.29823672     a.u. after    2 cycles
 Optimization completed.
    -- Stationary point found.
 Normal termination of Gaussian 16 at Sun Aug 23 08:35:57 2020.

 ----------------------------------------------------------------------
 # freq B3LYP/6-31G* scf=qc volume NMR pop=NPA density=current Geom=All
 Check Guess=Read
 ----------------------------------------------------------------------

 Structure from the checkpoint file:  "phosphine_1_conf92.chk"
 -------------------
 Title Card Required
 -------------------
 Charge =  0 Multiplicity = 1

 SCF Done:  E(RB3LYP) =  -1036.29823672     a.u. after    1 cycles

      1  C    Isotropic =    68.1572   Anisotropy =   167.3448

      2  C    Isotropic =    68.7265   Anisotropy =   164.1495

      3  C    Isotropic =    60.9888   Anisotropy =   164.0963

      4  C    Isotropic =    56.1525   Anisotropy =   179.4226

      5  C    Isotropic =    62.5537   Anisotropy =   174.0722

      6  C    Isotropic =    68.6745   Anisotropy =   163.8856

      7  P    Isotropic =   361.6125   Anisotropy =    40.0116

      8  C    Isotropic =    56.1208   Anisotropy =   179.4212

      9  C    Isotropic =    62.6071   Anisotropy =   174.0359

     10  C    Isotropic =    68.6729   Anisotropy =   163.8869

     11  C    Isotropic =    68.1697   Anisotropy =   167.3030

     12  C    Isotropic =    68.7352   Anisotropy =   164.1306

     13  C    Isotropic =    61.0343   Anisotropy =   164.1513

     14  C    Isotropic =    56.1052   Anisotropy =   179.4376

     15  C    Isotropic =    61.0171   Anisotropy =   164.1109

     16  C    Isotropic =    68.7283   Anisotropy =   164.1351

     17  C    Isotropic =    68.1596   Anisotropy =   167.3211

     18  C    Isotropic =    68.6816   Anisotropy =   163.8807

     19  C    Isotropic =    62.5860   Anisotropy =   174.0287

     20  H    Isotropic =    25.0188   Anisotropy =     3.6442

     21  H    Isotropic =    24.9248   Anisotropy =     4.5890

     22  H    Isotropic =    24.6105   Anisotropy =     9.2446

     23  H    Isotropic =    25.3977   Anisotropy =    12.2187

     24  H    Isotropic =    25.0478   Anisotropy =     6.0854

     25  H    Isotropic =    25.4031   Anisotropy =    12.2361

     26  H    Isotropic =    25.0483   Anisotropy =     6.0878

     27  H    Isotropic =    25.0212   Anisotropy =     3.6409

     28  H    Isotropic =    24.9278   Anisotropy =     4.5884

     29  H    Isotropic =    24.6138   Anisotropy =     9.2582

     30  H    Isotropic =    24.6128   Anisotropy =     9.2513

     31  H    Isotropic =    24.9271   Anisotropy =     4.5895

     32  H    Isotropic =    25.0213   Anisotropy =     3.6411

     33  H    Isotropic =    25.0484   Anisotropy =     6.0850

     34  H    Isotropic =    25.4023   Anisotropy =    12.2215

  Exact polarizability: 224.204  -0.070 224.049  -0.057  -0.065 165.064
 Approx polarizability: 331.025  -0.165 330.727  -0.135  -0.152 308.077

                      1                      2                      3
                      A                      A                      A
 Frequencies --     23.4057                24.9015                39.1866
 Red. masses --      3.7979                 3.8016                 3.6899
 Frc consts  --      0.0012                 0.0014                 0.0033
 IR Inten    --      0.2821                 0.2815                 0.0018

                      4                      5                      6
                      A                      A                      A
 Frequencies --     53.3915                53.4807                70.7357
 Red. masses --      5.2513                 5.2454                 5.1677
 Frc consts  --      0.0088                 0.0088                 0.0152
 IR Inten    --      0.0837                 0.0873                 0.3099

                      7                      8                      9
                      A                      A                      A
 Frequencies --    181.5672               202.3854               202.7599
 Red. masses --      4.5617                 4.6438                 4.6420
 Frc consts  --      0.0886                 0.1121                 0.1124
 IR Inten    --      0.3535                 1.1338                 1.1348

                     10                     11                     12
                      A                      A                      A
 Frequencies --    245.5445               259.6268               259.9365
 Red. masses --      5.7387                 4.7176                 4.7232
 Frc consts  --      0.2039                 0.1874                 0.1880
 IR Inten    --      0.4820                 0.2272                 0.2248

                     13                     14                     15
                      A                      A                      A
 Frequencies --    408.8591               408.9477               412.4328
 Red. masses --      3.0785                 3.0819                 3.6177
 Frc consts  --      0.3032                 0.3037                 0.3626
 IR Inten    --      1.9631                 1.9737                 0.1654

                     16                     17                     18
                      A                      A                      A
 Frequencies --    417.1410               429.4278               429.6043
 Red. masses --      4.5791                 7.3132                 7.3008
 Frc consts  --      0.4695                 0.7946                 0.7939
 IR Inten    --      0.5580                 7.6980                 7.7036

                     19                     20                     21
                      A                      A                      A
 Frequencies --    509.4740               509.6064               516.4639
 Red. masses --      4.2470                 4.2463                 4.5893
 Frc consts  --      0.6495                 0.6497                 0.7212
 IR Inten    --     26.0910                26.1218                11.9558

                     22                     23                     24
                      A                      A                      A
 Frequencies --    632.7199               632.7470               633.3733
 Red. masses --      6.4271                 6.4274                 6.4371
 Frc consts  --      1.5160                 1.5162                 1.5214
 IR Inten    --      0.1788                 0.1804                 0.0163

                     25                     26                     27
                      A                      A                      A
 Frequencies --    691.8279               705.1698               705.2174
 Red. masses --      6.5807                 5.7590                 5.7354
 Frc consts  --      1.8557                 1.6873                 1.6806
 IR Inten    --      0.7924                 1.1245                 1.0920

                     28                     29                     30
                      A                      A                      A
 Frequencies --    712.3017               712.3859               713.4019
 Red. masses --      2.1969                 2.1977                 2.1358
 Frc consts  --      0.6567                 0.6571                 0.6404
 IR Inten    --     26.3916                26.4739                16.5979

                     31                     32                     33
                      A                      A                      A
 Frequencies --    761.4382               762.9006               762.9646
 Red. masses --      1.6148                 1.6488                 1.6479
 Frc consts  --      0.5516                 0.5654                 0.5652
 IR Inten    --     19.2071                24.9276                24.9049

                     34                     35                     36
                      A                      A                      A
 Frequencies --    866.2034               866.3146               868.8723
 Red. masses --      1.2477                 1.2477                 1.2462
 Frc consts  --      0.5516                 0.5517                 0.5543
 IR Inten    --      0.2254                 0.2217                 0.1316

                     37                     38                     39
                      A                      A                      A
 Frequencies --    932.9473               933.0702               934.3397
 Red. masses --      1.3441                 1.3440                 1.3382
 Frc consts  --      0.6893                 0.6894                 0.6883
 IR Inten    --      1.2668                 1.2643                 0.0317

                     40                     41                     42
                      A                      A                      A
 Frequencies --    975.8281               975.9219               977.7593
 Red. masses --      1.3612                 1.3611                 1.3553
 Frc consts  --      0.7637                 0.7638                 0.7634
 IR Inten    --      0.0163                 0.0154                 0.1398

                     43                     44                     45
                      A                      A                      A
 Frequencies --   1000.3889              1000.4270              1001.1646
 Red. masses --      1.2542                 1.2542                 1.2524
 Frc consts  --      0.7395                 0.7396                 0.7396
 IR Inten    --      0.0817                 0.0803                 0.0004

                     46                     47                     48
                      A                      A                      A
 Frequencies --   1015.3580              1015.3728              1015.7531
 Red. masses --      6.3105                 6.3132                 6.3104
 Frc consts  --      3.8331                 3.8349                 3.8361
 IR Inten    --      4.3651                 4.3656                 0.0456

                     49                     50                     51
                      A                      A                      A
 Frequencies --   1052.6974              1052.7654              1052.9416
 Red. masses --      3.3129                 3.3181                 3.2551
 Frc consts  --      2.1630                 2.1667                 2.1263
 IR Inten    --      2.0892                 2.0627                 0.0552

                     52                     53                     54
                      A                      A                      A
 Frequencies --   1107.7659              1108.0430              1109.4435
 Red. masses --      1.8879                 1.8778                 1.6552
 Frc consts  --      1.3650                 1.3583                 1.2004
 IR Inten    --      4.3319                 4.2131                 2.9378

                     55                     56                     57
                      A                      A                      A
 Frequencies --   1110.8518              1110.8739              1115.9187
 Red. masses --      2.1815                 2.1996                 2.6111
 Frc consts  --      1.5861                 1.5993                 1.9158
 IR Inten    --      9.2566                 9.5052                 1.1358

                     58                     59                     60
                      A                      A                      A
 Frequencies --   1193.5339              1193.9479              1194.0018
 Red. masses --      1.1034                 1.1001                 1.1001
 Frc consts  --      0.9261                 0.9239                 0.9240
 IR Inten    --      0.0019                 0.1322                 0.1290

                     61                     62                     63
                      A                      A                      A
 Frequencies --   1219.1697              1219.4910              1220.7979
 Red. masses --      1.1475                 1.1477                 1.1473
 Frc consts  --      1.0049                 1.0057                 1.0075
 IR Inten    --      6.0457                 5.8943                 0.5087

                     64                     65                     66
                      A                      A                      A
 Frequencies --   1325.0463              1328.7601              1328.8829
 Red. masses --      3.4866                 3.4803                 3.5196
 Frc consts  --      3.6068                 3.6204                 3.6620
 IR Inten    --      2.6409                 2.4353                 2.4457

                     67                     68                     69
                      A                      A                      A
 Frequencies --   1365.1053              1365.2919              1365.7436
 Red. masses --      1.6587                 1.6535                 1.6404
 Frc consts  --      1.8212                 1.8160                 1.8028
 IR Inten    --      0.2092                 1.3107                 1.8730

                     70                     71                     72
                      A                      A                      A
 Frequencies --   1480.5479              1481.0111              1481.0514
 Red. masses --      2.1104                 2.1153                 2.1154
 Frc consts  --      2.7256                 2.7336                 2.7339
 IR Inten    --     16.6490                 6.6160                 6.6092

                     73                     74                     75
                      A                      A                      A
 Frequencies --   1531.1145              1531.5651              1531.7381
 Red. masses --      2.0155                 1.9990                 1.9973
 Frc consts  --      2.7838                 2.7627                 2.7610
 IR Inten    --      2.0829                10.1298                10.0992

                     76                     77                     78
                      A                      A                      A
 Frequencies --   1630.1954              1630.4743              1630.4924
 Red. masses --      5.1012                 5.1135                 5.1118
 Frc consts  --      7.9874                 8.0093                 8.0068
 IR Inten    --      0.3945                 0.0490                 0.0445

                     79                     80                     81
                      A                      A                      A
 Frequencies --   1646.1698              1646.2161              1647.9922
 Red. masses --      5.2718                 5.2685                 5.2815
 Frc consts  --      8.4170                 8.4123                 8.4512
 IR Inten    --      3.4971                 3.5282                 0.3199

                     82                     83                     84
                      A                      A                      A
 Frequencies --   3176.1053              3176.1372              3176.1955
 Red. masses --      1.0854                 1.0853                 1.0853
 Frc consts  --      6.4509                 6.4509                 6.4510
 IR Inten    --      2.1733                 1.9399                 1.9113

                     85                     86                     87
                      A                      A                      A
 Frequencies --   3182.6661              3182.6988              3182.7713
 Red. masses --      1.0875                 1.0875                 1.0876
 Frc consts  --      6.4902                 6.4904                 6.4912
 IR Inten    --      0.7611                 0.7328                 0.1926

                     88                     89                     90
                      A                      A                      A
 Frequencies --   3192.8634              3192.8832              3193.0072
 Red. masses --      1.0916                 1.0916                 1.0917
 Frc consts  --      6.5568                 6.5568                 6.5579
 IR Inten    --     10.2307                10.6009                47.1953

                     91                     92                     93
                      A                      A                      A
 Frequencies --   3203.8959              3203.9577              3204.3346
 Red. masses --      1.0941                 1.0941                 1.0942
 Frc consts  --      6.6168                 6.6174                 6.6196
 IR Inten    --     40.9964                41.0347                 4.9812

                     94                     95                     96
                      A                      A                      A
 Frequencies --   3210.0259              3210.1334              3210.9958
 Red. masses --      1.0958                 1.0957                 1.0956
 Frc consts  --      6.6524                 6.6523                 6.6557
 IR Inten    --     20.6451                19.8805                16.2648

 - Thermochemistry -
 -------------------
 Temperature   298.150 Kelvin.  Pressure   1.00000 Atm.
 Atom     1 has atomic number  6 and mass  12.00000

 Molecular mass:   262.09114 amu.
 Principal axes and moments of inertia in atomic units:
                           1         2         3
     Eigenvalues --  5161.847695164.454168680.81773
           X            0.99956  -0.02968  -0.00001
           Y            0.02968   0.99956  -0.00002
           Z            0.00001   0.00002   1.00000
 This molecule is an asymmetric top.
 Rotational symmetry number  1.
 Warning -- assumption of classical behavior for rotation
           may cause significant error
 Rotational temperatures (Kelvin)      0.01678     0.01677     0.00998
 Rotational constants (GHZ):           0.34963     0.34945     0.20790
 Zero-point vibrational energy     719992.6 (Joules/Mol)
                                  172.08236 (Kcal/Mol)
 Warning -- explicit consideration of  21 degrees of freedom as
           vibrations may cause significant error
 Vibrational temperatures:     33.68    35.83    56.38    76.82    76.95
          (Kelvin)            101.77   261.23   291.19   291.73   353.28
                              373.55   373.99   588.26   588.38   593.40
                              600.17   617.85   618.10   733.02   733.21
                              743.08   910.34   910.38   911.28   995.39
                             1014.58  1014.65  1024.84  1024.96  1026.43
                             1095.54  1097.64  1097.74  1246.27  1246.43
                             1250.11  1342.30  1342.48  1344.31  1404.00
                             1404.13  1406.78  1439.34  1439.39  1440.45
                             1460.87  1460.89  1461.44  1514.60  1514.69
                             1514.95  1593.83  1594.23  1596.24  1598.27
                             1598.30  1605.56  1717.23  1717.82  1717.90
                             1754.11  1754.58  1756.46  1906.45  1911.79
                             1911.97  1964.08  1964.35  1965.00  2130.18
                             2130.84  2130.90  2202.93  2203.58  2203.83
                             2345.49  2345.89  2345.91  2368.47  2368.54
                             2371.09  4569.71  4569.75  4569.84  4579.15
                             4579.19  4579.30  4593.82  4593.85  4594.03
                             4609.69  4609.78  4610.32  4618.51  4618.67
                             4619.91

 Zero-point correction=                           0.274231 (Hartree/Particle)
 Thermal correction to Energy=                    0.290145
 Thermal correction to Enthalpy=                  0.291090
 Thermal correction to Gibbs Free Energy=         0.227853
 Sum of electronic and zero-point Energies=          -1036.024006
 Sum of electronic and thermal Energies=             -1036.008091
 Sum of electronic and thermal Enthalpies=           -1036.007147
 Sum of electronic and thermal Free Energies=        -1036.070384

                     E (Thermal)             CV                S
                      KCal/Mol        Cal/Mol-Kelvin    Cal/Mol-Kelvin
 Total                  182.069             62.534            133.093
 Electronic               0.000              0.000              0.000
 Translational            0.889              2.981             42.590
 Rotational               0.889              2.981             33.803
 Vibrational            180.291             56.572             56.700
 Vibration     1          0.593              1.985              6.322
 Vibration     2          0.593              1.985              6.199
 Vibration     3          0.594              1.981              5.300
 Vibration     4          0.596              1.976              4.688
 Vibration     5          0.596              1.976              4.684
 Vibration     6          0.598              1.968              4.133
 Vibration     7          0.630              1.865              2.312
 Vibration     8          0.639              1.837              2.111
 Vibration     9          0.639              1.836              2.108
 Vibration    10          0.660              1.770              1.762
 Vibration    11          0.668              1.746              1.664
 Vibration    12          0.668              1.746              1.662
 Vibration    13          0.773              1.451              0.931
 Vibration    14          0.773              1.451              0.930
 Vibration    15          0.776              1.443              0.918
 Vibration    16          0.780              1.433              0.902
 Vibration    17          0.791              1.406              0.861
 Vibration    18          0.791              1.406              0.860
 Vibration    19          0.865              1.229              0.635
 Vibration    20          0.865              1.229              0.635
 Vibration    21          0.871              1.214              0.618

                           ! Non-Optimized Parameters !
 Normal termination of Gaussian 16 at Sun Aug 23 08:47:19 2020.
 Gaussian 16:  ES64L-G16RevA.03 25-Dec-2016

 ----------------------------------------------------------------------
 # TD(NStates=10, Root=1) B3LYP/6-31G* scf=qc volume pop=NPA density=cu
 rrent Geom=AllCheck Guess=Read
 ----------------------------------------------------------------------

 Structure from the checkpoint file:  "phosphine_1_conf93.chk"
 -------------------
 Title Card Required
 -------------------
 Charge =  0 Multiplicity = 1

                         Standard orientation:
 ---------------------------------------------------------------------
 Center     Atomic      Atomic             Coordinates (Angstroms)
 Number     Number       Type             X           Y           Z
 ---------------------------------------------------------------------
      1          6           0        4.150772   -1.045841    0.652071
      2          6           0        3.688327   -1.671058   -0.507854
      3          6           0        2.442233   -1.331541   -1.034302
      4          6           0        1.628036   -0.376295   -0.402457
      5          6           0        2.105602    0.246503    0.760816
      6          6           0        3.358312   -0.084860    1.281858
      7         15           0        0.000202   -0.000184   -1.206446
      8          6           0       -1.139843   -1.221767   -0.402831
      9          6           0       -0.837180   -1.952247    0.756427
     10          6           0       -1.751185   -2.871106    1.276961
     11          6           0       -2.982416   -3.071032    0.650761
     12          6           0       -3.294754   -2.352410   -0.505209
     13          6           0       -2.377050   -1.443477   -1.031256
     14          6           0       -0.487960    1.597637   -0.402441
     15          6           0       -0.064737    2.780270   -1.032477
     16          6           0       -0.393298    4.029240   -0.505938
     17          6           0       -1.168634    4.117389    0.652203
     18          6           0       -1.607757    2.950768    1.280079
     19          6           0       -1.268800    1.700091    0.758988
     20          1           0        5.125797   -1.301470    1.058610
     21          1           0        4.302269   -2.415110   -1.008839
     22          1           0        2.097324   -1.808640   -1.948921
     23          1           0        1.498964    0.996248    1.259780
     24          1           0        3.714168    0.409259    2.182509
     25          1           0        0.117512   -1.806382    1.252757
     26          1           0       -1.499504   -3.430618    2.174492
     27          1           0       -3.691840   -3.787290    1.056941
     28          1           0       -4.248290   -2.507442   -1.003467
     29          1           0       -2.619587   -0.901995   -1.942904
     30          1           0        0.522947    2.720022   -1.945779
     31          1           0       -0.053478    4.932841   -1.005491
     32          1           0       -1.434393    5.089680    1.058791
     33          1           0       -2.215693    3.012065    2.179309
     34          1           0       -1.617247    0.800017    1.256507
 ---------------------------------------------------------------------

 SCF Done:  E(RB3LYP) =  -1036.29823672     a.u. after    1 cycles

 Excitation energies and oscillator strengths:

 Excited State   1:      Singlet-A      4.5092 eV  274.96 nm  f=0.1274  <S**2>=0.000
      69 -> 70         0.69711
 This state for optimization and/or second-order correction.
 Total Energy, E(TD-HF/TD-DFT) =  -1036.13252686
 Copying the excited state density for this state as the 1-particle RhoCI density.

 Excited State   2:      Singlet-A      4.5115 eV  274.82 nm  f=0.1284  <S**2>=0.000
      69 -> 71         0.69707

 Excited State   3:      Singlet-A      4.7571 eV  260.63 nm  f=0.0022  <S**2>=0.000
      67 -> 70        -0.12320
      68 -> 71        -0.12370
      69 -> 72         0.67466

 Excited State   4:      Singlet-A      5.0575 eV  245.15 nm  f=0.0002  <S**2>=0.000
      66 -> 70         0.16630
      67 -> 70         0.11576
      68 -> 71        -0.11530
      69 -> 74         0.62974

 Excited State   5:      Singlet-A      5.0584 eV  245.11 nm  f=0.0002  <S**2>=0.000
      66 -> 71        -0.16697
      67 -> 71         0.11654
      68 -> 70         0.11633
      69 -> 75         0.62919

 Excited State   6:      Singlet-A      5.1509 eV  240.71 nm  f=0.0085  <S**2>=0.000
      69 -> 73         0.67910

 Excited State   7:      Singlet-A      5.4274 eV  228.44 nm  f=0.0147  <S**2>=0.000
      63 -> 72         0.16610
      64 -> 74         0.14454
      65 -> 75         0.14221
      67 -> 70         0.42395
      68 -> 71         0.41684
      69 -> 72         0.16516

 Excited State   8:      Singlet-A      5.5138 eV  224.86 nm  f=0.0005  <S**2>=0.000
      63 -> 74         0.14325
      64 -> 70         0.10028
      64 -> 72         0.22208
      64 -> 75        -0.11296
      65 -> 72         0.17479
      65 -> 74        -0.11172
      66 -> 70        -0.22656
      67 -> 70        -0.24697
      67 -> 71         0.10120
      68 -> 70         0.10512
      68 -> 71         0.25569
      68 -> 72        -0.16307
      69 -> 74         0.28587

 Excited State   9:      Singlet-A      5.5150 eV  224.81 nm  f=0.0004  <S**2>=0.000
      63 -> 75         0.14374
      64 -> 72        -0.17517
      64 -> 74        -0.11125
      65 -> 72         0.22217
      65 -> 75         0.11208
      66 -> 71         0.22523
      67 -> 71        -0.25060
      67 -> 72        -0.16373
      68 -> 70        -0.25483
      68 -> 71         0.10670
      69 -> 75         0.28687

 Excited State  10:      Singlet-A      5.6181 eV  220.69 nm  f=0.0009  <S**2>=0.000
      67 -> 71        -0.47578
      68 -> 70         0.48420

 The electronic state is 1-A.
 Alpha  occ. eigenvalues --  -77.08113 -10.19448 -10.19447 -10.19446 -10.19149
 Alpha  occ. eigenvalues --  -10.19146 -10.19144 -10.19119 -10.19116 -10.19115
 Alpha  occ. eigenvalues --  -10.19032 -10.19030 -10.19028 -10.19009 -10.19007
 Alpha  occ. eigenvalues --  -10.19006 -10.18963 -10.18961 -10.18959  -6.54843
 Alpha  occ. eigenvalues --   -4.71102  -4.71102  -4.70601  -0.85560  -0.84846
 Alpha  occ. eigenvalues --   -0.84844  -0.76669  -0.74366  -0.74365  -0.74329
 Alpha  occ. eigenvalues --   -0.73821  -0.73821  -0.64436  -0.60336  -0.60308
 Alpha  occ. eigenvalues --   -0.60306  -0.59207  -0.59207  -0.55448  -0.51436
 Alpha  occ. eigenvalues --   -0.51434  -0.49295  -0.45440  -0.45439  -0.44774
 Alpha  occ. eigenvalues --   -0.44344  -0.44344  -0.44068  -0.41946  -0.41869
 Alpha  occ. eigenvalues --   -0.41867  -0.40379  -0.40376  -0.36844  -0.36353
 Alpha  occ. eigenvalues --   -0.36349  -0.35898  -0.34252  -0.34251  -0.34224
 Alpha  occ. eigenvalues --   -0.31885  -0.31883  -0.26776  -0.25450  -0.25444
 Alpha  occ. eigenvalues --   -0.25243  -0.24704  -0.24703  -0.21144
 Alpha virt. eigenvalues --   -0.01882  -0.01877  -0.00830   0.00173   0.00426
 Alpha virt. eigenvalues --    0.00431   0.06879   0.06890   0.09492   0.11038
 Alpha virt. eigenvalues --    0.11040   0.13903   0.14528   0.14529   0.15164

 Mulliken charges:
               1
     1  C   -0.168700
     2  C   -0.121494
     3  C   -0.174590
     4  C   -0.134250
     5  C   -0.172471
     6  C   -0.120373
     7  P    0.450656
     8  C   -0.091443
     9  C   -0.148055
    10  C   -0.122187
    11  C   -0.126195
    12  C   -0.116958
    13  C   -0.163792
    14  C   -0.095458
    15  C   -0.153869
    16  C   -0.124615
    17  C   -0.141268
    18  C   -0.115505
    19  C   -0.165093
    20  H    0.107021
    21  H    0.112646
    22  H    0.112090
    23  H    0.129439
    24  H    0.116628
    25  H    0.178120
    26  H    0.144951
    27  H    0.143051
    28  H    0.140091
    29  H    0.143798
    30  H    0.138208
    31  H    0.131800
    32  H    0.130476
    33  H    0.134100
    34  H    0.143241
 Sum of Mulliken charges =  -0.00000

 Dipole moment (field-independent basis, Debye):
    X=             -3.7428    Y=             -0.4585    Z=             -0.1969  Tot=              3.7759
 Quadrupole moment (field-independent basis, Debye-Ang):
   XX=           -118.1986   YY=           -108.8666   ZZ=           -110.6647
   XY=              5.2586   XZ=             -0.9967   YZ=             -0.9283

 Summary of Natural Population Analysis:

                                       Natural Population
                Natural  -----------------------------------------------
    Atom  No    Charge         Core      Valence    Rydberg      Total
 -----------------------------------------------------------------------
      C    1   -0.29757      1.99910     4.28176    0.01671     6.29757
      C    2   -0.24243      1.99910     4.22838    0.01495     6.24243
      C    3   -0.23812      1.99901     4.22270    0.01640     6.23812
      C    4   -0.48888      1.99886     4.46421    0.02580     6.48888
      C    5   -0.25644      1.99899     4.23945    0.01801     6.25644
      C    6   -0.23294      1.99909     4.21918    0.01467     6.23294
      P    7    1.24222      9.99750     3.71004    0.05024    13.75778
      C    8   -0.39588      1.99890     4.37134    0.02564     6.39588
      C    9   -0.20283      1.99900     4.18759    0.01624     6.20283
      C   10   -0.23415      1.99909     4.22083    0.01423     6.23415
      C   11   -0.20737      1.99909     4.19419    0.01409     6.20737
      C   12   -0.23191      1.99910     4.21864    0.01417     6.23191
      C   13   -0.21388      1.99902     4.19945    0.01541     6.21388
      C   14   -0.41187      1.99888     4.38892    0.02407     6.41187
      C   15   -0.20230      1.99901     4.18787    0.01541     6.20230
      C   16   -0.24627      1.99910     4.23233    0.01484     6.24627
      C   17   -0.23964      1.99909     4.22551    0.01503     6.23964
      C   18   -0.22297      1.99909     4.20976    0.01412     6.22297
      C   19   -0.24363      1.99899     4.22750    0.01714     6.24363
      H   20    0.22516      0.00000     0.77394    0.00090     0.77484
      H   21    0.22901      0.00000     0.77006    0.00093     0.77099
      H   22    0.22279      0.00000     0.77625    0.00096     0.77721
      H   23    0.23528      0.00000     0.76317    0.00155     0.76472
      H   24    0.23168      0.00000     0.76744    0.00088     0.76832
      H   25    0.26248      0.00000     0.73623    0.00129     0.73752
      H   26    0.24483      0.00000     0.75431    0.00087     0.75517
      H   27    0.24071      0.00000     0.75845    0.00085     0.75929
      H   28    0.24162      0.00000     0.75745    0.00093     0.75838
      H   29    0.23894      0.00000     0.75993    0.00113     0.76106
      H   30    0.23744      0.00000     0.76133    0.00123     0.76256
      H   31    0.23844      0.00000     0.76069    0.00087     0.76156
      H   32    0.23539      0.00000     0.76374    0.00087     0.76461
      H   33    0.23966      0.00000     0.75946    0.00088     0.76034
      H   34    0.24341      0.00000     0.75530    0.00129     0.75659
 =======================================================================
   * Total *   -0.00000     45.98001    91.64740    0.37259   138.00000

 Normal termination of Gaussian 16 at Sun Aug 23 09:00:16 2020.
