 Gaussian 16, Revision A.03,

 ---------------------------------
 # opt=CalcAll B3LYP/6-31G* scf=qc
 ---------------------------------

 -------------------
 Title Card Required
 -------------------
 Symbolic Z-matrix:
 Charge =  0 Multiplicity = 1

 SCF Done:  E(RB3LYP) =  -814.899779595     a.u. after    6 cycles
 SCF Done:  E(RB3LYP) =  -814.908666015     a.u. after   11 cycles
 SCF Done:  E(RB3LYP) =  -814.910310039     a.u. after   13 cycles
 SCF Done:  E(RB3LYP) =  -814.910711988     a.u. after   11 cycles
 SCF Done:  E(RB3LYP) =  -814.910753917     a.u. after    9 cycles
 SCF Done:  E(RB3LYP) =  -814.910759030     a.u. after    5 cycles
 SCF Done:  E(RB3LYP) =  -814.910759257     a.u. after    3 cycles
 SCF Done:  E(RB3LYP) =  -814.910759264     a.u. after    2 cycles
 Optimization completed.
    -- Stationary point found.
 Normal termination of Gaussian 16 at Sun Aug 23 07:18:56 2020.

 ----------------------------------------------------------------------
 # freq B3LYP/6-31G* scf=qc volume NMR pop=NPA density=current Geom=All
 Check Guess=Read
 ----------------------------------------------------------------------

 Structure from the checkpoint file:  "phosphine_2_conf172.chk"
 -------------------
 Title Card Required
 -------------------
 Charge =  0 Multiplicity = 1

 SCF Done:  E(RB3LYP) =  -814.910759264     a.u. after    1 cycles

      1  C    Isotropic =   176.4289   Anisotropy =    18.7143

      2  C    Isotropic =   167.8177   Anisotropy =    11.9518

      3  C    Isotropic =   162.3168   Anisotropy =    15.7296

      4  C    Isotropic =   160.6423   Anisotropy =    27.7985

      5  H    Isotropic =    31.0746   Anisotropy =     6.3578

      6  H    Isotropic =    30.3261   Anisotropy =     5.0830

      7  P    Isotropic =   409.0707   Anisotropy =    40.1896

      8  C    Isotropic =   159.7327   Anisotropy =    23.4840

      9  H    Isotropic =    30.9337   Anisotropy =     5.6205

     10  H    Isotropic =    30.8167   Anisotropy =     6.3169

     11  C    Isotropic =   160.7490   Anisotropy =    21.4130

     12  C    Isotropic =   163.6176   Anisotropy =    17.6107

     13  C    Isotropic =   175.7899   Anisotropy =    18.7779

     14  C    Isotropic =   157.0699   Anisotropy =    19.5016

     15  H    Isotropic =    30.6740   Anisotropy =     5.8248

     16  H    Isotropic =    30.8558   Anisotropy =     5.7659

     17  C    Isotropic =   160.2585   Anisotropy =    25.1902

     18  C    Isotropic =   164.2824   Anisotropy =    17.2422

     19  C    Isotropic =   173.6305   Anisotropy =    24.6625

     20  H    Isotropic =    31.1647   Anisotropy =    10.0555

     21  H    Isotropic =    31.5368   Anisotropy =     9.0700

     22  H    Isotropic =    30.9299   Anisotropy =     6.4434

     23  H    Isotropic =    30.8125   Anisotropy =     9.5280

     24  H    Isotropic =    30.1436   Anisotropy =     5.4360

     25  H    Isotropic =    30.6113   Anisotropy =     9.0450

     26  H    Isotropic =    30.4967   Anisotropy =     6.4289

     27  H    Isotropic =    30.4589   Anisotropy =     6.4124

     28  H    Isotropic =    30.8160   Anisotropy =     4.7077

     29  H    Isotropic =    30.7556   Anisotropy =     7.0782

     30  H    Isotropic =    30.4683   Anisotropy =     9.2372

     31  H    Isotropic =    30.9875   Anisotropy =     5.8476

     32  H    Isotropic =    31.1585   Anisotropy =    10.4678

     33  H    Isotropic =    31.4965   Anisotropy =     7.8375

     34  H    Isotropic =    30.7603   Anisotropy =     4.1220

     35  H    Isotropic =    30.5546   Anisotropy =     7.9910

     36  H    Isotropic =    30.9262   Anisotropy =     6.4365

     37  H    Isotropic =    30.1334   Anisotropy =     5.8623

     38  H    Isotropic =    31.2996   Anisotropy =     8.6329

     39  H    Isotropic =    31.0702   Anisotropy =    10.1417

     40  H    Isotropic =    31.3270   Anisotropy =     7.6020

  Exact polarizability: 172.781  -0.275 158.335  -1.361  -0.022 128.560
 Approx polarizability: 211.572  -1.045 214.131  -5.165  -0.116 196.492

                      1                      2                      3
                      A                      A                      A
 Frequencies --     21.4486                25.1657                33.0218
 Red. masses --      2.8720                 3.3844                 2.5488
 Frc consts  --      0.0008                 0.0013                 0.0016
 IR Inten    --      0.0018                 0.0294                 0.0007

                      4                      5                      6
                      A                      A                      A
 Frequencies --     41.7128                56.9397                73.9421
 Red. masses --      2.8577                 2.4577                 1.7248
 Frc consts  --      0.0029                 0.0047                 0.0056
 IR Inten    --      0.0123                 0.0841                 0.0404

                      7                      8                      9
                      A                      A                      A
 Frequencies --     85.7538               104.4032               133.4105
 Red. masses --      2.8372                 2.9497                 1.7715
 Frc consts  --      0.0123                 0.0189                 0.0186
 IR Inten    --      0.1672                 0.1816                 0.3484

                     10                     11                     12
                      A                      A                      A
 Frequencies --    150.2732               162.1713               195.7043
 Red. masses --      1.9414                 2.4004                 2.0686
 Frc consts  --      0.0258                 0.0372                 0.0467
 IR Inten    --      0.3135                 0.2916                 0.1757

                     13                     14                     15
                      A                      A                      A
 Frequencies --    218.0047               236.1010               246.8282
 Red. masses --      2.1291                 1.7886                 1.1242
 Frc consts  --      0.0596                 0.0587                 0.0404
 IR Inten    --      0.1226                 0.1224                 0.0089

                     16                     17                     18
                      A                      A                      A
 Frequencies --    263.3866               276.5623               279.5371
 Red. masses --      1.7938                 1.9197                 1.8015
 Frc consts  --      0.0733                 0.0865                 0.0829
 IR Inten    --      0.2464                 0.0284                 0.0264

                     19                     20                     21
                      A                      A                      A
 Frequencies --    310.8123               327.7589               373.3990
 Red. masses --      2.6733                 2.3954                 2.0406
 Frc consts  --      0.1522                 0.1516                 0.1676
 IR Inten    --      0.1059                 0.6916                 0.3302

                     22                     23                     24
                      A                      A                      A
 Frequencies --    429.0306               461.9323               485.0904
 Red. masses --      2.4126                 2.2150                 2.7268
 Frc consts  --      0.2616                 0.2785                 0.3781
 IR Inten    --      1.6955                 0.5618                 0.9415

                     25                     26                     27
                      A                      A                      A
 Frequencies --    615.8281               648.8695               709.1825
 Red. masses --      3.0513                 3.0691                 2.4476
 Frc consts  --      0.6818                 0.7613                 0.7253
 IR Inten    --      3.0671                14.1329                 5.7904

                     28                     29                     30
                      A                      A                      A
 Frequencies --    738.4105               758.5163               759.9871
 Red. masses --      1.2149                 1.2144                 1.4008
 Frc consts  --      0.3903                 0.4117                 0.4767
 IR Inten    --     12.1550                 2.9397                 2.6060

                     31                     32                     33
                      A                      A                      A
 Frequencies --    790.2998               794.7567               809.8573
 Red. masses --      1.5783                 1.4425                 2.0235
 Frc consts  --      0.5808                 0.5368                 0.7819
 IR Inten    --      2.9712                 0.5634                 5.7183

                     34                     35                     36
                      A                      A                      A
 Frequencies --    870.8531               886.9292               890.8070
 Red. masses --      2.4273                 1.3427                 1.4845
 Frc consts  --      1.0846                 0.6223                 0.6941
 IR Inten    --      0.2209                 0.8642                 3.5926

                     37                     38                     39
                      A                      A                      A
 Frequencies --    909.4764               919.0024               926.5057
 Red. masses --      1.7163                 1.4909                 1.4200
 Frc consts  --      0.8364                 0.7419                 0.7182
 IR Inten    --      6.5123                 6.4274                 2.9885

                     40                     41                     42
                      A                      A                      A
 Frequencies --    984.4914               987.7587              1013.9592
 Red. masses --      1.9375                 1.8534                 2.7958
 Frc consts  --      1.1064                 1.0654                 1.6935
 IR Inten    --      3.4312                 2.6355                 1.5770

                     43                     44                     45
                      A                      A                      A
 Frequencies --   1062.0538              1065.1525              1067.0057
 Red. masses --      1.6924                 1.3297                 1.8677
 Frc consts  --      1.1247                 0.8888                 1.2529
 IR Inten    --      1.1934                 3.3325                 2.6336

                     46                     47                     48
                      A                      A                      A
 Frequencies --   1074.5984              1085.5155              1095.1140
 Red. masses --      1.4759                 1.9617                 1.3560
 Frc consts  --      1.0041                 1.3619                 0.9581
 IR Inten    --      3.0500                 0.6382                 0.3499

                     49                     50                     51
                      A                      A                      A
 Frequencies --   1116.7985              1119.6334              1124.0251
 Red. masses --      1.8229                 1.6692                 1.7904
 Frc consts  --      1.3395                 1.2329                 1.3328
 IR Inten    --      0.6601                 4.2329                 4.3772

                     52                     53                     54
                      A                      A                      A
 Frequencies --   1203.3676              1222.7704              1232.1074
 Red. masses --      1.3883                 1.4828                 1.4474
 Frc consts  --      1.1845                 1.3062                 1.2946
 IR Inten    --      2.2751                 0.0925                 0.4079

                     55                     56                     57
                      A                      A                      A
 Frequencies --   1251.7658              1256.5283              1264.7971
 Red. masses --      1.3869                 1.4346                 1.3920
 Frc consts  --      1.2803                 1.3346                 1.3120
 IR Inten    --      3.3243                 3.6650                 0.3781

                     58                     59                     60
                      A                      A                      A
 Frequencies --   1316.2176              1318.0149              1319.1327
 Red. masses --      1.2633                 1.2027                 1.2804
 Frc consts  --      1.2895                 1.2310                 1.3128
 IR Inten    --      4.7846                 2.7006                 3.8643

                     61                     62                     63
                      A                      A                      A
 Frequencies --   1337.4682              1341.3691              1343.9627
 Red. masses --      1.1406                 1.1679                 1.2645
 Frc consts  --      1.2021                 1.2381                 1.3457
 IR Inten    --      4.4570                 2.6843                 9.1788

                     64                     65                     66
                      A                      A                      A
 Frequencies --   1350.6938              1395.8823              1396.8103
 Red. masses --      1.1262                 1.3738                 1.3380
 Frc consts  --      1.2105                 1.5772                 1.5381
 IR Inten    --      1.9646                11.1763                 2.2734

                     67                     68                     69
                      A                      A                      A
 Frequencies --   1398.0734              1403.7835              1417.8340
 Red. masses --      1.3536                 1.4516                 1.5303
 Frc consts  --      1.5589                 1.6853                 1.8125
 IR Inten    --      6.9051                 5.0308                 3.1740

                     70                     71                     72
                      A                      A                      A
 Frequencies --   1440.6933              1441.7325              1442.4880
 Red. masses --      1.2419                 1.2623                 1.2593
 Frc consts  --      1.5188                 1.5459                 1.5439
 IR Inten    --      1.2653                 5.1519                 7.1101

                     73                     74                     75
                      A                      A                      A
 Frequencies --   1487.7700              1494.0471              1495.1475
 Red. masses --      1.0849                 1.0853                 1.0879
 Frc consts  --      1.4148                 1.4274                 1.4328
 IR Inten    --      2.9618                 4.3859                 2.4657

                     76                     77                     78
                      A                      A                      A
 Frequencies --   1516.9188              1517.2675              1518.5625
 Red. masses --      1.0696                 1.0677                 1.0685
 Frc consts  --      1.4500                 1.4481                 1.4517
 IR Inten    --      1.4597                 3.1491                 0.4753

                     79                     80                     81
                      A                      A                      A
 Frequencies --   1520.3374              1521.0323              1526.3715
 Red. masses --      1.0805                 1.0773                 1.0658
 Frc consts  --      1.4715                 1.4684                 1.4630
 IR Inten    --      1.5116                 0.6243                 0.9284

                     82                     83                     84
                      A                      A                      A
 Frequencies --   1529.8265              1532.5746              1532.8450
 Red. masses --      1.0411                 1.0538                 1.0615
 Frc consts  --      1.4356                 1.4583                 1.4694
 IR Inten    --      5.9669                 4.7457                 7.3075

                     85                     86                     87
                      A                      A                      A
 Frequencies --   1538.2912              1538.3332              1541.3791
 Red. masses --      1.0612                 1.0553                 1.0841
 Frc consts  --      1.4796                 1.4713                 1.5176
 IR Inten    --      6.3722                 4.5474                 3.4857

                     88                     89                     90
                      A                      A                      A
 Frequencies --   3013.3038              3014.7447              3020.8186
 Red. masses --      1.0602                 1.0639                 1.0594
 Frc consts  --      5.6720                 5.6969                 5.6957
 IR Inten    --     15.7632                18.7009                 1.2922

                     91                     92                     93
                      A                      A                      A
 Frequencies --   3022.5642              3025.3837              3026.8094
 Red. masses --      1.0618                 1.0653                 1.0624
 Frc consts  --      5.7155                 5.7449                 5.7347
 IR Inten    --     16.1760                20.9249                39.5928

                     94                     95                     96
                      A                      A                      A
 Frequencies --   3028.5037              3028.8552              3036.9952
 Red. masses --      1.0623                 1.0670                 1.0678
 Frc consts  --      5.7407                 5.7675                 5.8025
 IR Inten    --     44.5419                34.2967                20.2468

                     97                     98                     99
                      A                      A                      A
 Frequencies --   3039.6217              3041.8070              3043.3345
 Red. masses --      1.0369                 1.0388                 1.0380
 Frc consts  --      5.6446                 5.6628                 5.6643
 IR Inten    --     38.1971                29.2090                25.6625

                    100                    101                    102
                      A                      A                      A
 Frequencies --   3044.6630              3052.6121              3058.9584
 Red. masses --      1.0946                 1.0958                 1.1015
 Frc consts  --      5.9785                 6.0165                 6.0730
 IR Inten    --     25.7547                32.5361                 0.6391

                    103                    104                    105
                      A                      A                      A
 Frequencies --   3060.0880              3070.6440              3074.2192
 Red. masses --      1.0959                 1.0993                 1.0993
 Frc consts  --      6.0465                 6.1068                 6.1210
 IR Inten    --     31.0311                24.9502                26.9249

                    106                    107                    108
                      A                      A                      A
 Frequencies --   3075.4127              3079.8524              3082.1402
 Red. masses --      1.1006                 1.1037                 1.0976
 Frc consts  --      6.1334                 6.1681                 6.1435
 IR Inten    --      4.8798                67.6136                43.1044

                    109                    110                    111
                      A                      A                      A
 Frequencies --   3104.8102              3106.7701              3106.8212
 Red. masses --      1.1028                 1.1013                 1.1013
 Frc consts  --      6.2636                 6.2627                 6.2631
 IR Inten    --     74.2969                20.1067                74.0257

                    112                    113                    114
                      A                      A                      A
 Frequencies --   3110.4651              3113.5883              3114.9201
 Red. masses --      1.1015                 1.1018                 1.1018
 Frc consts  --      6.2787                 6.2930                 6.2989
 IR Inten    --     40.0461                56.6252                52.9323

 - Thermochemistry -
 -------------------
 Temperature   298.150 Kelvin.  Pressure   1.00000 Atm.
 Atom     1 has atomic number  6 and mass  12.00000

 Molecular mass:   202.18504 amu.
 Principal axes and moments of inertia in atomic units:
                           1         2         3
     Eigenvalues --  3155.284394862.799287280.66688
           X            0.99999   0.00167   0.00336
           Y           -0.00167   1.00000   0.00072
           Z           -0.00336  -0.00073   0.99999
 This molecule is an asymmetric top.
 Rotational symmetry number  1.
 Warning -- assumption of classical behavior for rotation
           may cause significant error
 Rotational temperatures (Kelvin)      0.02745     0.01781     0.01190
 Rotational constants (GHZ):           0.57197     0.37113     0.24788
 Zero-point vibrational energy     976886.6 (Joules/Mol)
                                  233.48150 (Kcal/Mol)
 Warning -- explicit consideration of  25 degrees of freedom as
           vibrations may cause significant error
 Vibrational temperatures:     30.86    36.21    47.51    60.02    81.92
          (Kelvin)            106.39   123.38   150.21   191.95   216.21
                              233.33   281.57   313.66   339.70   355.13
                              378.95   397.91   402.19   447.19   471.57
                              537.24   617.28   664.62   697.94   886.04
                              933.58  1020.36  1062.41  1091.34  1093.45
                             1137.07  1143.48  1165.20  1252.96  1276.09
                             1281.67  1308.53  1322.24  1333.04  1416.46
                             1421.16  1458.86  1528.06  1532.52  1535.18
                             1546.11  1561.81  1575.62  1606.82  1610.90
                             1617.22  1731.38  1759.29  1772.73  1801.01
                             1807.86  1819.76  1893.74  1896.33  1897.94
                             1924.32  1929.93  1933.66  1943.35  2008.36
                             2009.70  2011.52  2019.73  2039.95  2072.84
                             2074.33  2075.42  2140.57  2149.60  2151.18
                             2182.51  2183.01  2184.87  2187.43  2188.43
                             2196.11  2201.08  2205.03  2205.42  2213.26
                             2213.32  2217.70  4335.47  4337.55  4346.28
                             4348.80  4352.85  4354.90  4357.34  4357.85
                             4369.56  4373.34  4376.48  4378.68  4380.59
                             4392.03  4401.16  4402.78  4417.97  4423.12
                             4424.83  4431.22  4434.51  4467.13  4469.95
                             4470.02  4475.27  4479.76  4481.68

 Zero-point correction=                           0.372076 (Hartree/Particle)
 Thermal correction to Energy=                    0.390674
 Thermal correction to Enthalpy=                  0.391619
 Thermal correction to Gibbs Free Energy=         0.322469
 Sum of electronic and zero-point Energies=           -814.538683
 Sum of electronic and thermal Energies=              -814.520085
 Sum of electronic and thermal Enthalpies=            -814.519141
 Sum of electronic and thermal Free Energies=         -814.588291

                     E (Thermal)             CV                S
                      KCal/Mol        Cal/Mol-Kelvin    Cal/Mol-Kelvin
 Total                  245.152             66.177            145.539
 Electronic               0.000              0.000              0.000
 Translational            0.889              2.981             41.817
 Rotational               0.889              2.981             33.079
 Vibrational            243.374             60.216             70.643
 Vibration     1          0.593              1.985              6.495
 Vibration     2          0.593              1.985              6.178
 Vibration     3          0.594              1.983              5.639
 Vibration     4          0.594              1.981              5.176
 Vibration     5          0.596              1.975              4.561
 Vibration     6          0.599              1.966              4.046
 Vibration     7          0.601              1.959              3.755
 Vibration     8          0.605              1.946              3.370
 Vibration     9          0.613              1.920              2.896
 Vibration    10          0.618              1.902              2.669
 Vibration    11          0.622              1.889              2.524
 Vibration    12          0.636              1.846              2.173
 Vibration    13          0.646              1.814              1.976
 Vibration    14          0.655              1.786              1.832
 Vibration    15          0.661              1.768              1.753
 Vibration    16          0.670              1.740              1.639
 Vibration    17          0.678              1.717              1.555
 Vibration    18          0.680              1.711              1.537
 Vibration    19          0.700              1.653              1.358
 Vibration    20          0.711              1.620              1.271
 Vibration    21          0.745              1.527              1.066
 Vibration    22          0.790              1.407              0.862
 Vibration    23          0.820              1.334              0.761
 Vibration    24          0.841              1.283              0.696
 Vibration    25          0.975              0.998              0.423

 Optimization completed.
    -- Stationary point found.
 Normal termination of Gaussian 16 at Sun Aug 23 07:26:08 2020.
 Gaussian 16:  ES64L-G16RevA.03 25-Dec-2016

 ----------------------------------------------------------------------
 # TD(NStates=10, Root=1) B3LYP/6-31G* scf=qc volume pop=NPA density=cu
 rrent Geom=AllCheck Guess=Read
 ----------------------------------------------------------------------

 Structure from the checkpoint file:  "phosphine_2_conf173.chk"
 -------------------
 Title Card Required
 -------------------
 Charge =  0 Multiplicity = 1

                         Standard orientation:
 ---------------------------------------------------------------------
 Center     Atomic      Atomic             Coordinates (Angstroms)
 Number     Number       Type             X           Y           Z
 ---------------------------------------------------------------------
      1          6           0       -3.204050    2.814791   -0.322401
      2          6           0       -1.729500    3.047332   -0.671734
      3          6           0       -0.756389    2.808562    0.496220
      4          6           0       -0.686773    1.362460    1.022888
      5          1           0       -0.081857    1.333136    1.940523
      6          1           0       -1.690336    1.020943    1.305965
      7         15           0       -0.004174    0.106202   -0.202718
      8          6           0        1.832632    0.425495    0.034695
      9          1           0        2.000854    1.488005   -0.189653
     10          1           0        2.097857    0.280429    1.091144
     11          6           0        2.724788   -0.427592   -0.881244
     12          6           0        4.226762   -0.106292   -0.779269
     13          6           0        4.860352   -0.442830    0.575714
     14          6           0       -0.181397   -1.441406    0.855248
     15          1           0        0.544281   -2.174747    0.478608
     16          1           0        0.117504   -1.206311    1.886792
     17          6           0       -1.586804   -2.070116    0.842366
     18          6           0       -1.979392   -2.715293   -0.493819
     19          6           0       -3.377868   -3.340074   -0.466130
     20          1           0       -3.852048    3.070971   -1.168366
     21          1           0       -3.512174    3.431816    0.531531
     22          1           0       -3.404319    1.768293   -0.065834
     23          1           0       -1.604463    4.083544   -1.014096
     24          1           0       -1.450059    2.407170   -1.518073
     25          1           0       -1.039990    3.466242    1.331315
     26          1           0        0.248407    3.132761    0.191601
     27          1           0        2.401405   -0.285545   -1.920807
     28          1           0        2.575024   -1.494217   -0.659433
     29          1           0        4.382610    0.958969   -1.002572
     30          1           0        4.754612   -0.661996   -1.566244
     31          1           0        4.422495    0.145581    1.389868
     32          1           0        5.937521   -0.240419    0.567441
     33          1           0        4.723592   -1.503451    0.822180
     34          1           0       -2.338517   -1.314890    1.115424
     35          1           0       -1.635081   -2.833775    1.632465
     36          1           0       -1.238129   -3.486434   -0.748934
     37          1           0       -1.924865   -1.964929   -1.292567
     38          1           0       -3.452492   -4.116724    0.305458
     39          1           0       -3.628387   -3.801658   -1.428069
     40          1           0       -4.144989   -2.586002   -0.250097
 ---------------------------------------------------------------------

 SCF Done:  E(RB3LYP) =  -814.910759264     a.u. after    1 cycles

 Excitation energies and oscillator strengths:

 Excited State   1:      Singlet-A      6.4229 eV  193.04 nm  f=0.1260  <S**2>=0.000
      57 -> 58         0.69745
 This state for optimization and/or second-order correction.
 Total Energy, E(TD-HF/TD-DFT) =  -814.674722626
 Copying the excited state density for this state as the 1-particle RhoCI density.

 Excited State   2:      Singlet-A      6.6703 eV  185.87 nm  f=0.1290  <S**2>=0.000
      57 -> 59         0.69444

 Excited State   3:      Singlet-A      7.2208 eV  171.70 nm  f=0.0214  <S**2>=0.000
      57 -> 60         0.69694

 Excited State   4:      Singlet-A      7.6005 eV  163.13 nm  f=0.0146  <S**2>=0.000
      57 -> 61         0.64596
      57 -> 62         0.24485

 Excited State   5:      Singlet-A      7.6764 eV  161.51 nm  f=0.0188  <S**2>=0.000
      57 -> 61        -0.23040
      57 -> 62         0.64237

 Excited State   6:      Singlet-A      7.9394 eV  156.16 nm  f=0.0221  <S**2>=0.000
      57 -> 63         0.66995
      57 -> 64         0.10793

 Excited State   7:      Singlet-A      8.1257 eV  152.58 nm  f=0.0486  <S**2>=0.000
      56 -> 58         0.10112
      57 -> 64         0.65205
      57 -> 65        -0.16577

 Excited State   8:      Singlet-A      8.2259 eV  150.72 nm  f=0.0080  <S**2>=0.000
      55 -> 58         0.55942
      56 -> 58        -0.26030
      56 -> 59        -0.30143

 Excited State   9:      Singlet-A      8.2789 eV  149.76 nm  f=0.0081  <S**2>=0.000
      57 -> 64         0.16350
      57 -> 65         0.66853

 Excited State  10:      Singlet-A      8.4232 eV  147.19 nm  f=0.1024  <S**2>=0.000
      55 -> 58         0.29316
      55 -> 59        -0.11980
      56 -> 58         0.59705

 The electronic state is 1-A.
 Alpha  occ. eigenvalues --  -77.06280 -10.18065 -10.18034 -10.18024 -10.18003
 Alpha  occ. eigenvalues --  -10.17982 -10.17976 -10.17913 -10.17387 -10.17366
 Alpha  occ. eigenvalues --  -10.17199 -10.16917 -10.16880  -6.53063  -4.69313
 Alpha  occ. eigenvalues --   -4.69310  -4.68820  -0.79883  -0.78808  -0.78631
 Alpha  occ. eigenvalues --   -0.74028  -0.71407  -0.71191  -0.65728  -0.63255
 Alpha  occ. eigenvalues --   -0.62371  -0.57969  -0.56872  -0.56214  -0.51319
 Alpha  occ. eigenvalues --   -0.46224  -0.45900  -0.45186  -0.44754  -0.43683
 Alpha  occ. eigenvalues --   -0.42760  -0.42202  -0.41097  -0.39848  -0.39357
 Alpha  occ. eigenvalues --   -0.38943  -0.37852  -0.37663  -0.36618  -0.36124
 Alpha  occ. eigenvalues --   -0.35119  -0.33457  -0.33075  -0.32808  -0.32631
 Alpha  occ. eigenvalues --   -0.32355  -0.31992  -0.31908  -0.31733  -0.29026
 Alpha  occ. eigenvalues --   -0.28714  -0.21309
 Alpha virt. eigenvalues --    0.05138   0.06041   0.08284   0.09729   0.10062
 Alpha virt. eigenvalues --    0.10950   0.11339   0.11874   0.13019   0.13834
 Alpha virt. eigenvalues --    0.14195   0.14705   0.15293   0.15470   0.16175

 Mulliken charges:
               1
     1  C   -0.440166
     2  C   -0.251246
     3  C   -0.262946
     4  C   -0.410850
     5  H    0.170200
     6  H    0.188460
     7  P    0.316047
     8  C   -0.406937
     9  H    0.133683
    10  H    0.149318
    11  C   -0.247327
    12  C   -0.235247
    13  C   -0.431639
    14  C   -0.431420
    15  H    0.161775
    16  H    0.173371
    17  C   -0.207539
    18  C   -0.230640
    19  C   -0.438246
    20  H    0.143596
    21  H    0.136851
    22  H    0.135133
    23  H    0.136091
    24  H    0.146308
    25  H    0.131068
    26  H    0.135706
    27  H    0.119261
    28  H    0.125643
    29  H    0.124226
    30  H    0.122231
    31  H    0.128100
    32  H    0.134251
    33  H    0.134674
    34  H    0.094732
    35  H    0.102888
    36  H    0.112381
    37  H    0.125569
    38  H    0.137411
    39  H    0.137682
    40  H    0.137547
 Sum of Mulliken charges =   0.00000

 Dipole moment (field-independent basis, Debye):
    X=              0.3772    Y=              0.7878    Z=              1.1172  Tot=              1.4181
 Quadrupole moment (field-independent basis, Debye-Ang):
   XX=           -102.1483   YY=            -95.1720   ZZ=            -94.3028
   XY=             -2.3209   XZ=             -0.0522   YZ=              0.7987

 Summary of Natural Population Analysis:

                                       Natural Population
                Natural  -----------------------------------------------
    Atom  No    Charge         Core      Valence    Rydberg      Total
 -----------------------------------------------------------------------
      C    1   -0.68199      1.99946     4.67432    0.00822     6.68199
      C    2   -0.45734      1.99935     4.44571    0.01228     6.45734
      C    3   -0.46127      1.99932     4.44783    0.01412     6.46127
      C    4   -0.75751      1.99929     4.74288    0.01534     6.75751
      H    5    0.26379      0.00000     0.73249    0.00372     0.73621
      H    6    0.26448      0.00000     0.73161    0.00391     0.73552
      P    7    0.99443      9.99763     3.89009    0.11785    14.00557
      C    8   -0.86140      1.99932     4.83559    0.02649     6.86140
      H    9    0.23633      0.00000     0.75677    0.00690     0.76367
      H   10    0.24331      0.00000     0.75280    0.00389     0.75669
      C   11   -0.46139      1.99933     4.45002    0.01203     6.46139
      C   12   -0.45131      1.99935     4.44071    0.01125     6.45131
      C   13   -0.67754      1.99946     4.67018    0.00790     6.67754
      C   14   -0.78317      1.99930     4.76213    0.02174     6.78317
      H   15    0.24572      0.00000     0.75077    0.00351     0.75428
      H   16    0.26744      0.00000     0.73014    0.00242     0.73256
      C   17   -0.46541      1.99932     4.45118    0.01492     6.46541
      C   18   -0.45827      1.99935     4.44723    0.01169     6.45827
      C   19   -0.67351      1.99946     4.66619    0.00785     6.67351
      H   20    0.23389      0.00000     0.76529    0.00082     0.76611
      H   21    0.22150      0.00000     0.77731    0.00120     0.77850
      H   22    0.21338      0.00000     0.77710    0.00951     0.78662
      H   23    0.23643      0.00000     0.76224    0.00132     0.76357
      H   24    0.22957      0.00000     0.76806    0.00237     0.77043
      H   25    0.23228      0.00000     0.76394    0.00379     0.76772
      H   26    0.23029      0.00000     0.76533    0.00437     0.76971
      H   27    0.21983      0.00000     0.77304    0.00713     0.78017
      H   28    0.22001      0.00000     0.77734    0.00265     0.77999
      H   29    0.22292      0.00000     0.77317    0.00391     0.77708
      H   30    0.22594      0.00000     0.77023    0.00383     0.77406
      H   31    0.21414      0.00000     0.78105    0.00481     0.78586
      H   32    0.22639      0.00000     0.77093    0.00268     0.77361
      H   33    0.22028      0.00000     0.77772    0.00200     0.77972
      H   34    0.20390      0.00000     0.78101    0.01509     0.79610
      H   35    0.21758      0.00000     0.77326    0.00916     0.78242
      H   36    0.21569      0.00000     0.77894    0.00537     0.78431
      H   37    0.21807      0.00000     0.77500    0.00694     0.78193
      H   38    0.22241      0.00000     0.77569    0.00191     0.77759
      H   39    0.22916      0.00000     0.76954    0.00131     0.77084
      H   40    0.22097      0.00000     0.77541    0.00363     0.77903
 =======================================================================
   * Total *    0.00000     33.98992    79.61025    0.39983   114.00000

 Normal termination of Gaussian 16 at Sun Aug 23 07:34:14 2020.
