 Gaussian 16, Revision A.03,

 ---------------------------------
 # opt=CalcAll B3LYP/6-31G* scf=qc
 ---------------------------------

 -------------------
 Title Card Required
 -------------------
 Symbolic Z-matrix:
 Charge =  0 Multiplicity = 1

 SCF Done:  E(RB3LYP) =  -814.860006555     a.u. after    7 cycles
 SCF Done:  E(RB3LYP) =  -814.888812602     a.u. after   13 cycles
 SCF Done:  E(RB3LYP) =  -814.903900948     a.u. after   15 cycles
 SCF Done:  E(RB3LYP) =  -814.907306139     a.u. after   15 cycles
 SCF Done:  E(RB3LYP) =  -814.908567775     a.u. after   11 cycles
 SCF Done:  E(RB3LYP) =  -814.908707050     a.u. after    9 cycles
 SCF Done:  E(RB3LYP) =  -814.908717733     a.u. after    3 cycles
 SCF Done:  E(RB3LYP) =  -814.908719978     a.u. after    3 cycles
 SCF Done:  E(RB3LYP) =  -814.908720011     a.u. after    2 cycles
 Optimization completed.
    -- Stationary point found.
 Normal termination of Gaussian 16 at Sun Aug 23 06:37:49 2020.

 ----------------------------------------------------------------------
 # freq B3LYP/6-31G* scf=qc volume NMR pop=NPA density=current Geom=All
 Check Guess=Read
 ----------------------------------------------------------------------

 Structure from the checkpoint file:  "phosphine_2_conf12.chk"
 -------------------
 Title Card Required
 -------------------
 Charge =  0 Multiplicity = 1

 SCF Done:  E(RB3LYP) =  -814.908720011     a.u. after    1 cycles

      1  C    Isotropic =   173.3047   Anisotropy =    25.6841

      2  C    Isotropic =   164.0786   Anisotropy =    15.6312

      3  C    Isotropic =   156.4212   Anisotropy =    22.7813

      4  C    Isotropic =   158.5236   Anisotropy =    20.4194

      5  H    Isotropic =    30.7945   Anisotropy =     6.9263

      6  H    Isotropic =    30.7914   Anisotropy =     4.8820

      7  P    Isotropic =   383.7536   Anisotropy =    25.8904

      8  C    Isotropic =   156.9533   Anisotropy =    27.1658

      9  H    Isotropic =    31.0911   Anisotropy =     3.8796

     10  H    Isotropic =    30.4085   Anisotropy =     6.4951

     11  C    Isotropic =   160.3085   Anisotropy =    21.8031

     12  C    Isotropic =   163.9114   Anisotropy =    16.9261

     13  C    Isotropic =   175.9426   Anisotropy =    18.6759

     14  C    Isotropic =   159.6553   Anisotropy =    32.7585

     15  H    Isotropic =    30.4788   Anisotropy =     4.0226

     16  H    Isotropic =    30.8468   Anisotropy =     7.9531

     17  C    Isotropic =   158.8682   Anisotropy =    11.3574

     18  C    Isotropic =   167.4353   Anisotropy =    11.2268

     19  C    Isotropic =   176.5003   Anisotropy =    18.4687

     20  H    Isotropic =    31.0725   Anisotropy =     9.9368

     21  H    Isotropic =    31.2772   Anisotropy =     8.0704

     22  H    Isotropic =    31.3359   Anisotropy =     8.6968

     23  H    Isotropic =    30.5413   Anisotropy =     7.4776

     24  H    Isotropic =    30.9394   Anisotropy =     5.0406

     25  H    Isotropic =    30.4960   Anisotropy =     7.8717

     26  H    Isotropic =    30.4875   Anisotropy =     5.3946

     27  H    Isotropic =    30.6538   Anisotropy =     5.9102

     28  H    Isotropic =    30.6413   Anisotropy =     6.0307

     29  H    Isotropic =    30.8394   Anisotropy =     6.9164

     30  H    Isotropic =    30.4777   Anisotropy =     9.3060

     31  H    Isotropic =    30.9764   Anisotropy =     6.2149

     32  H    Isotropic =    31.1618   Anisotropy =    10.3227

     33  H    Isotropic =    31.4325   Anisotropy =     7.9710

     34  H    Isotropic =    30.2204   Anisotropy =     6.9886

     35  H    Isotropic =    30.5776   Anisotropy =     8.8007

     36  H    Isotropic =    30.6019   Anisotropy =     4.7638

     37  H    Isotropic =    30.6797   Anisotropy =     9.6204

     38  H    Isotropic =    30.9749   Anisotropy =     5.1591

     39  H    Isotropic =    31.1977   Anisotropy =     9.7348

     40  H    Isotropic =    31.5014   Anisotropy =     9.4768

  Exact polarizability: 179.403  -0.423 157.963   0.898  -0.401 123.189
 Approx polarizability: 213.429   0.366 214.039   3.180   0.330 195.798

                      1                      2                      3
                      A                      A                      A
 Frequencies --     30.6627                33.6756                41.4076
 Red. masses --      2.6642                 3.2862                 3.3274
 Frc consts  --      0.0015                 0.0022                 0.0034
 IR Inten    --      0.0665                 0.0309                 0.0599

                      4                      5                      6
                      A                      A                      A
 Frequencies --     50.2442                64.6578                86.1921
 Red. masses --      2.9683                 2.4934                 2.1982
 Frc consts  --      0.0044                 0.0061                 0.0096
 IR Inten    --      0.0190                 0.0598                 0.0346

                      7                      8                      9
                      A                      A                      A
 Frequencies --    103.4830               114.1838               132.5337
 Red. masses --      1.8834                 2.9280                 1.9515
 Frc consts  --      0.0119                 0.0225                 0.0202
 IR Inten    --      0.0859                 0.2299                 0.0040

                     10                     11                     12
                      A                      A                      A
 Frequencies --    143.0308               183.0902               202.4920
 Red. masses --      2.4538                 1.7604                 2.3810
 Frc consts  --      0.0296                 0.0348                 0.0575
 IR Inten    --      0.0272                 0.0803                 0.3578

                     13                     14                     15
                      A                      A                      A
 Frequencies --    213.7043               236.6549               246.3490
 Red. masses --      1.7082                 1.6004                 1.2430
 Frc consts  --      0.0460                 0.0528                 0.0444
 IR Inten    --      0.0672                 0.1729                 0.0744

                     16                     17                     18
                      A                      A                      A
 Frequencies --    260.8043               277.2153               281.5364
 Red. masses --      1.7867                 1.7231                 1.9823
 Frc consts  --      0.0716                 0.0780                 0.0926
 IR Inten    --      0.1965                 0.0673                 0.2883

                     19                     20                     21
                      A                      A                      A
 Frequencies --    304.1090               319.4949               376.5972
 Red. masses --      3.3343                 2.2353                 1.9825
 Frc consts  --      0.1817                 0.1344                 0.1657
 IR Inten    --      0.0642                 0.6380                 0.3112

                     22                     23                     24
                      A                      A                      A
 Frequencies --    429.8307               452.8884               481.1782
 Red. masses --      2.3304                 2.2276                 2.5906
 Frc consts  --      0.2537                 0.2692                 0.3534
 IR Inten    --      0.9396                 0.8479                 0.6614

                     25                     26                     27
                      A                      A                      A
 Frequencies --    630.4879               648.5588               698.1612
 Red. masses --      3.2555                 3.4217                 2.0163
 Frc consts  --      0.7625                 0.8480                 0.5791
 IR Inten    --      2.3666                 9.0275                 4.8395

                     28                     29                     30
                      A                      A                      A
 Frequencies --    743.7823               748.0360               765.8701
 Red. masses --      1.3108                 1.2898                 1.4369
 Frc consts  --      0.4273                 0.4252                 0.4966
 IR Inten    --     13.8785                 6.2670                 3.9005

                     31                     32                     33
                      A                      A                      A
 Frequencies --    789.4568               792.8526               805.0689
 Red. masses --      1.2992                 1.5733                 1.9014
 Frc consts  --      0.4771                 0.5827                 0.7261
 IR Inten    --      3.2748                 1.0927                 6.7361

                     34                     35                     36
                      A                      A                      A
 Frequencies --    872.9033               885.2034               889.9178
 Red. masses --      2.3645                 1.6166                 1.5068
 Frc consts  --      1.0615                 0.7464                 0.7031
 IR Inten    --      0.5733                 5.4199                 1.0154

                     37                     38                     39
                      A                      A                      A
 Frequencies --    908.0050               916.3151               925.1787
 Red. masses --      1.5557                 1.4701                 1.3837
 Frc consts  --      0.7557                 0.7273                 0.6978
 IR Inten    --      2.5663                 7.9741                 6.8468

                     40                     41                     42
                      A                      A                      A
 Frequencies --    982.7217               987.6124              1012.1527
 Red. masses --      1.9321                 1.8826                 2.7364
 Frc consts  --      1.0994                 1.0819                 1.6517
 IR Inten    --      2.5717                 3.1774                 1.2446

                     43                     44                     45
                      A                      A                      A
 Frequencies --   1059.4912              1063.2516              1069.0138
 Red. masses --      1.6712                 1.3108                 1.8578
 Frc consts  --      1.1053                 0.8731                 1.2509
 IR Inten    --      1.8650                 0.6767                 0.4333

                     46                     47                     48
                      A                      A                      A
 Frequencies --   1077.2960              1085.5677              1097.3965
 Red. masses --      1.6159                 1.8517                 1.3245
 Frc consts  --      1.1049                 1.2857                 0.9398
 IR Inten    --      0.7617                 0.8332                 1.3536

                     49                     50                     51
                      A                      A                      A
 Frequencies --   1116.3593              1120.2071              1125.5887
 Red. masses --      1.8273                 1.7619                 1.8150
 Frc consts  --      1.3417                 1.3027                 1.3548
 IR Inten    --      0.3969                 1.9722                 2.5868

                     52                     53                     54
                      A                      A                      A
 Frequencies --   1203.0952              1225.3521              1230.7349
 Red. masses --      1.3662                 1.4853                 1.4536
 Frc consts  --      1.1651                 1.3140                 1.2973
 IR Inten    --      1.4378                 8.2558                 5.2422

                     55                     56                     57
                      A                      A                      A
 Frequencies --   1251.6453              1260.1164              1264.9673
 Red. masses --      1.3547                 1.3889                 1.4323
 Frc consts  --      1.2504                 1.2994                 1.3504
 IR Inten    --      4.7110                 0.8643                 0.3432

                     58                     59                     60
                      A                      A                      A
 Frequencies --   1312.3802              1316.0210              1322.6043
 Red. masses --      1.2720                 1.2178                 1.2380
 Frc consts  --      1.2908                 1.2427                 1.2760
 IR Inten    --      5.6151                 2.2182                 2.3879

                     61                     62                     63
                      A                      A                      A
 Frequencies --   1338.3610              1340.6615              1345.7619
 Red. masses --      1.1415                 1.1482                 1.2611
 Frc consts  --      1.2047                 1.2159                 1.3457
 IR Inten    --      0.4519                 6.8445                 7.6708

                     64                     65                     66
                      A                      A                      A
 Frequencies --   1356.2815              1393.7012              1397.4691
 Red. masses --      1.1336                 1.4383                 1.3432
 Frc consts  --      1.2286                 1.6461                 1.5455
 IR Inten    --      0.5848                 2.0011                 3.3206

                     67                     68                     69
                      A                      A                      A
 Frequencies --   1399.3861              1405.9321              1421.0147
 Red. masses --      1.3255                 1.4463                 1.5351
 Frc consts  --      1.5294                 1.6844                 1.8263
 IR Inten    --      9.1106                 5.6542                 1.6536

                     70                     71                     72
                      A                      A                      A
 Frequencies --   1440.5202              1442.6272              1442.9088
 Red. masses --      1.2376                 1.2606                 1.2609
 Frc consts  --      1.5131                 1.5458                 1.5467
 IR Inten    --      0.9014                 2.0736                 9.7530

                     73                     74                     75
                      A                      A                      A
 Frequencies --   1485.0545              1491.5975              1495.2668
 Red. masses --      1.0856                 1.0824                 1.0873
 Frc consts  --      1.4106                 1.4188                 1.4323
 IR Inten    --      4.3008                 1.1096                 0.8532

                     76                     77                     78
                      A                      A                      A
 Frequencies --   1514.0061              1514.7772              1516.7754
 Red. masses --      1.0766                 1.0865                 1.0725
 Frc consts  --      1.4540                 1.4689                 1.4537
 IR Inten    --      1.0461                 2.4624                 1.3181

                     79                     80                     81
                      A                      A                      A
 Frequencies --   1519.8815              1522.4257              1523.5144
 Red. masses --      1.0798                 1.0596                 1.0654
 Frc consts  --      1.4697                 1.4470                 1.4570
 IR Inten    --      0.8109                 1.6628                 1.3906

                     82                     83                     84
                      A                      A                      A
 Frequencies --   1529.8287              1532.4359              1532.7186
 Red. masses --      1.0410                 1.0538                 1.0479
 Frc consts  --      1.4355                 1.4581                 1.4504
 IR Inten    --      5.8680                 4.9079                 6.4518

                     85                     86                     87
                      A                      A                      A
 Frequencies --   1538.5775              1538.9894              1539.3765
 Red. masses --      1.0606                 1.0780                 1.0710
 Frc consts  --      1.4792                 1.5043                 1.4954
 IR Inten    --      4.9024                 3.1158                 4.6089

                     88                     89                     90
                      A                      A                      A
 Frequencies --   3014.3084              3016.2631              3016.7120
 Red. masses --      1.0613                 1.0662                 1.0661
 Frc consts  --      5.6817                 5.7150                 5.7165
 IR Inten    --     10.2529                10.3392                33.0691

                     91                     92                     93
                      A                      A                      A
 Frequencies --   3022.6036              3024.5709              3024.8304
 Red. masses --      1.0652                 1.0629                 1.0632
 Frc consts  --      5.7339                 5.7288                 5.7315
 IR Inten    --     50.2078                49.9777                 2.7824

                     94                     95                     96
                      A                      A                      A
 Frequencies --   3029.1904              3031.5356              3037.0579
 Red. masses --      1.0632                 1.0628                 1.0606
 Frc consts  --      5.7480                 5.7550                 5.7640
 IR Inten    --     28.4260                25.9073                 0.9658

                     97                     98                     99
                      A                      A                      A
 Frequencies --   3041.3775              3043.8034              3043.9938
 Red. masses --      1.0372                 1.0375                 1.0406
 Frc consts  --      5.6525                 5.6633                 5.6808
 IR Inten    --     41.9842                22.1135                23.5227

                    100                    101                    102
                      A                      A                      A
 Frequencies --   3047.9610              3057.0007              3062.1766
 Red. masses --      1.0927                 1.0978                 1.0967
 Frc consts  --      5.9811                 6.0446                 6.0588
 IR Inten    --     15.8345                20.7127                35.2878

                    103                    104                    105
                      A                      A                      A
 Frequencies --   3064.8602              3066.1969              3067.0493
 Red. masses --      1.1002                 1.0995                 1.1016
 Frc consts  --      6.0888                 6.0905                 6.1055
 IR Inten    --     31.7053                46.7068                41.7069

                    106                    107                    108
                      A                      A                      A
 Frequencies --   3078.9502              3091.3023              3096.5603
 Red. masses --      1.1004                 1.0990                 1.0966
 Frc consts  --      6.1460                 6.1878                 6.1952
 IR Inten    --     30.5737                22.6231                44.4230

                    109                    110                    111
                      A                      A                      A
 Frequencies --   3106.5934              3106.6562              3107.8122
 Red. masses --      1.1017                 1.1028                 1.1016
 Frc consts  --      6.2644                 6.2708                 6.2689
 IR Inten    --     58.2494                50.2717                45.7098

                    112                    113                    114
                      A                      A                      A
 Frequencies --   3111.3541              3112.5848              3115.1863
 Red. masses --      1.1020                 1.1017                 1.1013
 Frc consts  --      6.2852                 6.2884                 6.2970
 IR Inten    --     37.9245                60.8492                41.1327

 - Thermochemistry -
 -------------------
 Temperature   298.150 Kelvin.  Pressure   1.00000 Atm.
 Atom     1 has atomic number  6 and mass  12.00000

 Molecular mass:   202.18504 amu.
 Principal axes and moments of inertia in atomic units:
                           1         2         3
     Eigenvalues --  2641.133425109.140897357.21997
           X            1.00000  -0.00289  -0.00100
           Y            0.00289   0.99999   0.00162
           Z            0.00100  -0.00162   1.00000
 This molecule is an asymmetric top.
 Rotational symmetry number  1.
 Warning -- assumption of classical behavior for rotation
           may cause significant error
 Rotational temperatures (Kelvin)      0.03279     0.01695     0.01177
 Rotational constants (GHZ):           0.68332     0.35324     0.24530
 Zero-point vibrational energy     977514.9 (Joules/Mol)
                                  233.63167 (Kcal/Mol)
 Warning -- explicit consideration of  24 degrees of freedom as
           vibrations may cause significant error
 Vibrational temperatures:     44.12    48.45    59.58    72.29    93.03
          (Kelvin)            124.01   148.89   164.28   190.69   205.79
                              263.43   291.34   307.47   340.49   354.44
                              375.24   398.85   405.07   437.54   459.68
                              541.84   618.43   651.61   692.31   907.13
                              933.13  1004.50  1070.14  1076.26  1101.92
                             1135.85  1140.74  1158.31  1255.91  1273.61
                             1280.39  1306.42  1318.37  1331.13  1413.92
                             1420.95  1456.26  1524.37  1529.78  1538.07
                             1549.99  1561.89  1578.91  1606.19  1611.73
                             1619.47  1730.99  1763.01  1770.75  1800.84
                             1813.03  1820.01  1888.22  1893.46  1902.93
                             1925.60  1928.91  1936.25  1951.39  2005.23
                             2010.65  2013.40  2022.82  2044.52  2072.59
                             2075.62  2076.02  2136.66  2146.08  2151.36
                             2178.32  2179.43  2182.30  2186.77  2190.43
                             2192.00  2201.08  2204.83  2205.24  2213.67
                             2214.26  2214.82  4336.92  4339.73  4340.38
                             4348.85  4351.68  4352.06  4358.33  4361.70
                             4369.65  4375.86  4379.35  4379.63  4385.34
                             4398.34  4405.79  4409.65  4411.57  4412.80
                             4429.92  4447.69  4455.26  4469.70  4469.79
                             4471.45  4476.54  4478.32  4482.06

 Zero-point correction=                           0.372316 (Hartree/Particle)
 Thermal correction to Energy=                    0.390746
 Thermal correction to Enthalpy=                  0.391690
 Thermal correction to Gibbs Free Energy=         0.324138
 Sum of electronic and zero-point Energies=           -814.536404
 Sum of electronic and thermal Energies=              -814.517974
 Sum of electronic and thermal Enthalpies=            -814.517030
 Sum of electronic and thermal Free Energies=         -814.584582

                     E (Thermal)             CV                S
                      KCal/Mol        Cal/Mol-Kelvin    Cal/Mol-Kelvin
 Total                  245.197             66.173            142.175
 Electronic               0.000              0.000              0.000
 Translational            0.889              2.981             41.817
 Rotational               0.889              2.981             32.962
 Vibrational            243.419             60.211             67.396
 Vibration     1          0.594              1.984              5.786
 Vibration     2          0.594              1.983              5.600
 Vibration     3          0.594              1.981              5.191
 Vibration     4          0.595              1.977              4.808
 Vibration     5          0.597              1.971              4.310
 Vibration     6          0.601              1.959              3.745
 Vibration     7          0.605              1.946              3.388
 Vibration     8          0.607              1.938              3.197
 Vibration     9          0.613              1.921              2.909
 Vibration    10          0.616              1.910              2.763
 Vibration    11          0.631              1.863              2.297
 Vibration    12          0.639              1.836              2.110
 Vibration    13          0.644              1.820              2.012
 Vibration    14          0.656              1.785              1.828
 Vibration    15          0.661              1.769              1.757
 Vibration    16          0.669              1.744              1.656
 Vibration    17          0.678              1.716              1.551
 Vibration    18          0.681              1.708              1.524
 Vibration    19          0.695              1.666              1.394
 Vibration    20          0.705              1.636              1.313
 Vibration    21          0.747              1.520              1.053
 Vibration    22          0.791              1.405              0.859
 Vibration    23          0.811              1.355              0.787
 Vibration    24          0.837              1.292              0.707

 Optimization completed.
    -- Stationary point found.
 Normal termination of Gaussian 16 at Sun Aug 23 06:45:48 2020.
 Gaussian 16:  ES64L-G16RevA.03 25-Dec-2016

 ----------------------------------------------------------------------
 # TD(NStates=10, Root=1) B3LYP/6-31G* scf=qc volume pop=NPA density=cu
 rrent Geom=AllCheck Guess=Read
 ----------------------------------------------------------------------

 Structure from the checkpoint file:  "phosphine_2_conf13.chk"
 -------------------
 Title Card Required
 -------------------
 Charge =  0 Multiplicity = 1

                         Standard orientation:
 ---------------------------------------------------------------------
 Center     Atomic      Atomic             Coordinates (Angstroms)
 Number     Number       Type             X           Y           Z
 ---------------------------------------------------------------------
      1          6           0        5.158771   -0.513942   -0.389407
      2          6           0        3.737154   -0.215688    0.098353
      3          6           0        2.848144   -1.465414    0.139251
      4          6           0        1.427837   -1.241888    0.687350
      5          1           0        0.917593   -2.212162    0.737396
      6          1           0        1.468923   -0.860076    1.717722
      7         15           0        0.334743   -0.123524   -0.368921
      8          6           0       -1.346023   -0.700218    0.251099
      9          1           0       -1.319789   -0.821038    1.344612
     10          1           0       -2.053835    0.109688    0.041337
     11          6           0       -1.826407   -1.998562   -0.415882
     12          6           0       -3.176284   -2.517296    0.111911
     13          6           0       -4.368513   -1.599803   -0.183212
     14          6           0        0.505523    1.499731    0.581673
     15          1           0       -0.085047    1.457019    1.507020
     16          1           0        1.554918    1.558674    0.893249
     17          6           0        0.174515    2.763641   -0.234282
     18          6           0       -1.294475    2.939127   -0.654100
     19          6           0       -2.264134    3.165012    0.512097
     20          1           0        5.773510    0.393108   -0.411848
     21          1           0        5.148455   -0.934509   -1.402403
     22          1           0        5.658208   -1.239480    0.264656
     23          1           0        3.281327    0.537917   -0.558291
     24          1           0        3.781225    0.233385    1.101514
     25          1           0        3.343782   -2.229604    0.756503
     26          1           0        2.779365   -1.887301   -0.873112
     27          1           0       -1.073681   -2.785924   -0.271333
     28          1           0       -1.895336   -1.842589   -1.501512
     29          1           0       -3.100836   -2.682614    1.196317
     30          1           0       -3.367354   -3.503273   -0.333204
     31          1           0       -4.267094   -0.625619    0.308259
     32          1           0       -5.305371   -2.047499    0.167707
     33          1           0       -4.469388   -1.419045   -1.260834
     34          1           0        0.800014    2.767370   -1.136686
     35          1           0        0.476733    3.644530    0.351831
     36          1           0       -1.615791    2.069994   -1.244576
     37          1           0       -1.355929    3.798783   -1.334886
     38          1           0       -2.292061    2.310073    1.197422
     39          1           0       -3.285712    3.328360    0.149847
     40          1           0       -1.974624    4.046488    1.098001
 ---------------------------------------------------------------------

 SCF Done:  E(RB3LYP) =  -814.908720011     a.u. after    1 cycles

 Excitation energies and oscillator strengths:

 Excited State   1:      Singlet-A      6.4534 eV  192.12 nm  f=0.1277  <S**2>=0.000
      57 -> 58         0.69597
 This state for optimization and/or second-order correction.
 Total Energy, E(TD-HF/TD-DFT) =  -814.671560863
 Copying the excited state density for this state as the 1-particle RhoCI density.

 Excited State   2:      Singlet-A      6.5970 eV  187.94 nm  f=0.1262  <S**2>=0.000
      57 -> 59         0.69452

 Excited State   3:      Singlet-A      7.1457 eV  173.51 nm  f=0.0083  <S**2>=0.000
      57 -> 60         0.70005

 Excited State   4:      Singlet-A      7.5724 eV  163.73 nm  f=0.0082  <S**2>=0.000
      57 -> 61         0.69297

 Excited State   5:      Singlet-A      7.6519 eV  162.03 nm  f=0.0109  <S**2>=0.000
      57 -> 62         0.68997

 Excited State   6:      Singlet-A      7.9590 eV  155.78 nm  f=0.0483  <S**2>=0.000
      57 -> 63         0.68090
      57 -> 64        -0.11578

 Excited State   7:      Singlet-A      8.1337 eV  152.43 nm  f=0.0076  <S**2>=0.000
      55 -> 58         0.40746
      55 -> 59         0.23714
      56 -> 58        -0.39651
      56 -> 59         0.32010

 Excited State   8:      Singlet-A      8.2903 eV  149.55 nm  f=0.0083  <S**2>=0.000
      55 -> 58        -0.10059
      55 -> 59        -0.17219
      56 -> 58        -0.20535
      56 -> 59        -0.11955
      57 -> 64        -0.34531
      57 -> 65         0.51125

 Excited State   9:      Singlet-A      8.3417 eV  148.63 nm  f=0.0229  <S**2>=0.000
      55 -> 58        -0.17222
      56 -> 59         0.19256
      57 -> 63         0.11059
      57 -> 64         0.53624
      57 -> 65         0.33518

 Excited State  10:      Singlet-A      8.4163 eV  147.31 nm  f=0.0781  <S**2>=0.000
      55 -> 58         0.24326
      55 -> 59         0.19514
      56 -> 58         0.50561
      56 -> 59         0.12285
      57 -> 65         0.28614
      57 -> 66         0.10773

 The electronic state is 1-A.
 Alpha  occ. eigenvalues --  -77.06357 -10.18011 -10.17971 -10.17932 -10.17919
 Alpha  occ. eigenvalues --  -10.17906 -10.17846 -10.17841 -10.17750 -10.17746
 Alpha  occ. eigenvalues --  -10.17183 -10.17144 -10.17077  -6.53113  -4.69361
 Alpha  occ. eigenvalues --   -4.69358  -4.68880  -0.79888  -0.78828  -0.78711
 Alpha  occ. eigenvalues --   -0.73992  -0.71511  -0.71361  -0.65821  -0.63253
 Alpha  occ. eigenvalues --   -0.62584  -0.58207  -0.56715  -0.55817  -0.51648
 Alpha  occ. eigenvalues --   -0.46417  -0.45798  -0.45523  -0.45018  -0.43655
 Alpha  occ. eigenvalues --   -0.42525  -0.41807  -0.41445  -0.40406  -0.39030
 Alpha  occ. eigenvalues --   -0.38614  -0.38300  -0.38132  -0.36635  -0.35912
 Alpha  occ. eigenvalues --   -0.34997  -0.33986  -0.33237  -0.32871  -0.32558
 Alpha  occ. eigenvalues --   -0.32353  -0.32281  -0.31909  -0.31702  -0.28781
 Alpha  occ. eigenvalues --   -0.28521  -0.21407
 Alpha virt. eigenvalues --    0.05227   0.05675   0.07821   0.09518   0.09726
 Alpha virt. eigenvalues --    0.10825   0.11859   0.12216   0.13411   0.14030
 Alpha virt. eigenvalues --    0.14348   0.14890   0.15017   0.15885   0.16460

 Mulliken charges:
               1
     1  C   -0.443461
     2  C   -0.227132
     3  C   -0.236913
     4  C   -0.443975
     5  H    0.165952
     6  H    0.176951
     7  P    0.338164
     8  C   -0.413215
     9  H    0.133987
    10  H    0.145794
    11  C   -0.240443
    12  C   -0.238301
    13  C   -0.431116
    14  C   -0.427580
    15  H    0.158685
    16  H    0.185175
    17  C   -0.258872
    18  C   -0.242004
    19  C   -0.446605
    20  H    0.140636
    21  H    0.139583
    22  H    0.137319
    23  H    0.115197
    24  H    0.115533
    25  H    0.124614
    26  H    0.140428
    27  H    0.122122
    28  H    0.118177
    29  H    0.122455
    30  H    0.120691
    31  H    0.129904
    32  H    0.133055
    33  H    0.135595
    34  H    0.137512
    35  H    0.131775
    36  H    0.122007
    37  H    0.130719
    38  H    0.143464
    39  H    0.145669
    40  H    0.138454
 Sum of Mulliken charges =  -0.00000

 Dipole moment (field-independent basis, Debye):
    X=              0.7211    Y=              0.0853    Z=              1.2556  Tot=              1.4505
 Quadrupole moment (field-independent basis, Debye-Ang):
   XX=           -101.0642   YY=            -94.3502   ZZ=            -94.6828
   XY=             -1.3938   XZ=              1.5638   YZ=              0.1021

 Summary of Natural Population Analysis:

                                       Natural Population
                Natural  -----------------------------------------------
    Atom  No    Charge         Core      Valence    Rydberg      Total
 -----------------------------------------------------------------------
      C    1   -0.67332      1.99946     4.66600    0.00786     6.67332
      C    2   -0.46165      1.99934     4.45128    0.01103     6.46165
      C    3   -0.45866      1.99932     4.44582    0.01352     6.45866
      C    4   -0.76346      1.99930     4.74532    0.01885     6.76346
      H    5    0.24529      0.00000     0.75117    0.00354     0.75471
      H    6    0.25917      0.00000     0.73746    0.00337     0.74083
      P    7    0.99331      9.99766     3.89968    0.10935    14.00669
      C    8   -0.86310      1.99931     4.83774    0.02605     6.86310
      H    9    0.23772      0.00000     0.75711    0.00517     0.76228
      H   10    0.23047      0.00000     0.76050    0.00902     0.76953
      C   11   -0.46115      1.99933     4.44978    0.01204     6.46115
      C   12   -0.45071      1.99935     4.44023    0.01113     6.45071
      C   13   -0.67825      1.99946     4.67094    0.00785     6.67825
      C   14   -0.76222      1.99929     4.74575    0.01717     6.76222
      H   15    0.24267      0.00000     0.75188    0.00545     0.75733
      H   16    0.26097      0.00000     0.73722    0.00180     0.73903
      C   17   -0.46255      1.99932     4.44903    0.01420     6.46255
      C   18   -0.45916      1.99934     4.44871    0.01111     6.45916
      C   19   -0.68119      1.99946     4.67268    0.00905     6.68119
      H   20    0.23102      0.00000     0.76793    0.00105     0.76898
      H   21    0.22251      0.00000     0.77558    0.00192     0.77749
      H   22    0.22151      0.00000     0.77735    0.00114     0.77849
      H   23    0.21084      0.00000     0.77602    0.01314     0.78916
      H   24    0.21636      0.00000     0.78169    0.00195     0.78364
      H   25    0.22973      0.00000     0.76652    0.00375     0.77027
      H   26    0.23260      0.00000     0.76530    0.00210     0.76740
      H   27    0.22178      0.00000     0.77607    0.00215     0.77822
      H   28    0.21817      0.00000     0.77393    0.00790     0.78183
      H   29    0.22260      0.00000     0.77416    0.00324     0.77740
      H   30    0.22500      0.00000     0.77129    0.00371     0.77500
      H   31    0.21525      0.00000     0.77934    0.00541     0.78475
      H   32    0.22630      0.00000     0.77167    0.00203     0.77370
      H   33    0.22077      0.00000     0.77659    0.00265     0.77923
      H   34    0.23300      0.00000     0.76117    0.00583     0.76700
      H   35    0.23284      0.00000     0.76455    0.00261     0.76716
      H   36    0.21298      0.00000     0.77836    0.00867     0.78702
      H   37    0.23434      0.00000     0.76387    0.00179     0.76566
      H   38    0.22029      0.00000     0.77848    0.00122     0.77971
      H   39    0.23475      0.00000     0.76446    0.00079     0.76525
      H   40    0.22319      0.00000     0.77545    0.00135     0.77681
 =======================================================================
   * Total *    0.00000     33.98994    79.63810    0.37196   114.00000

 Normal termination of Gaussian 16 at Sun Aug 23 06:56:05 2020.
