 Gaussian 16, Revision A.03,

 ---------------------------------
 # opt=CalcAll B3LYP/6-31G* scf=qc
 ---------------------------------

 -------------------
 Title Card Required
 -------------------
 Symbolic Z-matrix:
 Charge =  0 Multiplicity = 1

 SCF Done:  E(RB3LYP) =  -1036.25612535     a.u. after    8 cycles
 SCF Done:  E(RB3LYP) =  -1036.27093879     a.u. after   15 cycles
 SCF Done:  E(RB3LYP) =  -1036.28796229     a.u. after   17 cycles
 SCF Done:  E(RB3LYP) =  -1036.29639397     a.u. after   17 cycles
 SCF Done:  E(RB3LYP) =  -1036.29787105     a.u. after   15 cycles
 SCF Done:  E(RB3LYP) =  -1036.29817407     a.u. after   15 cycles
 SCF Done:  E(RB3LYP) =  -1036.29823779     a.u. after    9 cycles
 SCF Done:  E(RB3LYP) =  -1036.29823751     a.u. after    4 cycles
 SCF Done:  E(RB3LYP) =  -1036.29823142     a.u. after    2 cycles
 SCF Done:  E(RB3LYP) =  -1036.29823034     a.u. after    2 cycles
 SCF Done:  E(RB3LYP) =  -1036.29823856     a.u. after    2 cycles
 Optimization completed.
    -- Stationary point found.
 Normal termination of Gaussian 16 at Sun Aug 23 06:48:34 2020.

 ----------------------------------------------------------------------
 # freq B3LYP/6-31G* scf=qc volume NMR pop=NPA density=current Geom=All
 Check Guess=Read
 ----------------------------------------------------------------------

 Structure from the checkpoint file:  "phosphine_1_conf42.chk"
 -------------------
 Title Card Required
 -------------------
 Charge =  0 Multiplicity = 1

 SCF Done:  E(RB3LYP) =  -1036.29823856     a.u. after    1 cycles

      1  C    Isotropic =    68.1615   Anisotropy =   167.2947

      2  C    Isotropic =    68.7322   Anisotropy =   164.1183

      3  C    Isotropic =    61.0340   Anisotropy =   164.1726

      4  C    Isotropic =    56.1311   Anisotropy =   179.4206

      5  C    Isotropic =    62.6113   Anisotropy =   174.0548

      6  C    Isotropic =    68.6754   Anisotropy =   163.8978

      7  P    Isotropic =   361.6426   Anisotropy =    39.9119

      8  C    Isotropic =    56.0924   Anisotropy =   179.4298

      9  C    Isotropic =    62.5851   Anisotropy =   174.0164

     10  C    Isotropic =    68.6781   Anisotropy =   163.8806

     11  C    Isotropic =    68.1663   Anisotropy =   167.3240

     12  C    Isotropic =    68.7272   Anisotropy =   164.1395

     13  C    Isotropic =    61.0208   Anisotropy =   164.1301

     14  C    Isotropic =    56.1471   Anisotropy =   179.4461

     15  C    Isotropic =    60.9889   Anisotropy =   164.1158

     16  C    Isotropic =    68.7273   Anisotropy =   164.1221

     17  C    Isotropic =    68.1555   Anisotropy =   167.3223

     18  C    Isotropic =    68.6745   Anisotropy =   163.8962

     19  C    Isotropic =    62.5579   Anisotropy =   174.1017

     20  H    Isotropic =    25.0222   Anisotropy =     3.6390

     21  H    Isotropic =    24.9279   Anisotropy =     4.5871

     22  H    Isotropic =    24.6128   Anisotropy =     9.2594

     23  H    Isotropic =    25.4028   Anisotropy =    12.2406

     24  H    Isotropic =    25.0480   Anisotropy =     6.0884

     25  H    Isotropic =    25.4032   Anisotropy =    12.2307

     26  H    Isotropic =    25.0487   Anisotropy =     6.0867

     27  H    Isotropic =    25.0211   Anisotropy =     3.6403

     28  H    Isotropic =    24.9262   Anisotropy =     4.5911

     29  H    Isotropic =    24.6136   Anisotropy =     9.2546

     30  H    Isotropic =    24.6092   Anisotropy =     9.2471

     31  H    Isotropic =    24.9275   Anisotropy =     4.5843

     32  H    Isotropic =    25.0212   Anisotropy =     3.6380

     33  H    Isotropic =    25.0469   Anisotropy =     6.0861

     34  H    Isotropic =    25.3949   Anisotropy =    12.2257

  Exact polarizability: 224.250  -0.066 224.064   0.080   0.046 165.006
 Approx polarizability: 331.128  -0.154 330.762   0.189   0.107 307.952

                      1                      2                      3
                      A                      A                      A
 Frequencies --     24.4919                25.4324                39.1421
 Red. masses --      3.7991                 3.8046                 3.6906
 Frc consts  --      0.0013                 0.0014                 0.0033
 IR Inten    --      0.2811                 0.2815                 0.0023

                      4                      5                      6
                      A                      A                      A
 Frequencies --     53.4783                53.6309                70.8063
 Red. masses --      5.2512                 5.2420                 5.1680
 Frc consts  --      0.0088                 0.0089                 0.0153
 IR Inten    --      0.0876                 0.0878                 0.3106

                      7                      8                      9
                      A                      A                      A
 Frequencies --    181.8341               202.6023               202.8147
 Red. masses --      4.5613                 4.6411                 4.6410
 Frc consts  --      0.0889                 0.1122                 0.1125
 IR Inten    --      0.3530                 1.1283                 1.1273

                     10                     11                     12
                      A                      A                      A
 Frequencies --    245.5429               259.7517               260.2560
 Red. masses --      5.7385                 4.7208                 4.7277
 Frc consts  --      0.2038                 0.1877                 0.1887
 IR Inten    --      0.4833                 0.2293                 0.2280

                     13                     14                     15
                      A                      A                      A
 Frequencies --    408.9701               409.0065               412.4112
 Red. masses --      3.0813                 3.0814                 3.6487
 Frc consts  --      0.3036                 0.3037                 0.3656
 IR Inten    --      1.9739                 1.9750                 0.1725

                     16                     17                     18
                      A                      A                      A
 Frequencies --    417.0915               429.4691               429.6674
 Red. masses --      4.5323                 7.3133                 7.3134
 Frc consts  --      0.4645                 0.7947                 0.7955
 IR Inten    --      0.5525                 7.6907                 7.7254

                     19                     20                     21
                      A                      A                      A
 Frequencies --    509.5452               509.6686               516.5007
 Red. masses --      4.2466                 4.2473                 4.5890
 Frc consts  --      0.6496                 0.6500                 0.7213
 IR Inten    --     26.0407                26.0627                11.9550

                     22                     23                     24
                      A                      A                      A
 Frequencies --    632.7488               632.7701               633.3940
 Red. masses --      6.4273                 6.4272                 6.4370
 Frc consts  --      1.5161                 1.5162                 1.5215
 IR Inten    --      0.1808                 0.1825                 0.0168

                     25                     26                     27
                      A                      A                      A
 Frequencies --    691.8239               705.1742               705.2326
 Red. masses --      6.5803                 5.7809                 5.7579
 Frc consts  --      1.8556                 1.6937                 1.6872
 IR Inten    --      0.7909                 1.1367                 1.0913

                     28                     29                     30
                      A                      A                      A
 Frequencies --    712.3949               712.5058               713.4064
 Red. masses --      2.1977                 2.1918                 2.1358
 Frc consts  --      0.6572                 0.6556                 0.6404
 IR Inten    --     26.3864                26.4104                16.6400

                     31                     32                     33
                      A                      A                      A
 Frequencies --    761.4166               762.8940               762.9140
 Red. masses --      1.6149                 1.6488                 1.6480
 Frc consts  --      0.5516                 0.5654                 0.5651
 IR Inten    --     19.2465                24.9841                24.8490

                     34                     35                     36
                      A                      A                      A
 Frequencies --    866.3370               866.4283               868.8901
 Red. masses --      1.2476                 1.2475                 1.2462
 Frc consts  --      0.5517                 0.5518                 0.5543
 IR Inten    --      0.2218                 0.2131                 0.1305

                     37                     38                     39
                      A                      A                      A
 Frequencies --    933.0224               933.1241               934.3482
 Red. masses --      1.3439                 1.3436                 1.3382
 Frc consts  --      0.6893                 0.6893                 0.6883
 IR Inten    --      1.2537                 1.2718                 0.0343

                     40                     41                     42
                      A                      A                      A
 Frequencies --    975.9691               976.0556               977.7838
 Red. masses --      1.3610                 1.3608                 1.3552
 Frc consts  --      0.7638                 0.7638                 0.7634
 IR Inten    --      0.0157                 0.0147                 0.1379

                     43                     44                     45
                      A                      A                      A
 Frequencies --   1000.4174              1000.4528              1001.1699
 Red. masses --      1.2541                 1.2538                 1.2523
 Frc consts  --      0.7395                 0.7394                 0.7396
 IR Inten    --      0.0772                 0.0829                 0.0004

                     46                     47                     48
                      A                      A                      A
 Frequencies --   1015.3579              1015.4133              1015.7671
 Red. masses --      6.3142                 6.3114                 6.3102
 Frc consts  --      3.8354                 3.8341                 3.8360
 IR Inten    --      4.3234                 4.3712                 0.0886

                     49                     50                     51
                      A                      A                      A
 Frequencies --   1052.7287              1052.7892              1052.9313
 Red. masses --      3.3112                 3.3213                 3.2536
 Frc consts  --      2.1620                 2.1689                 2.1252
 IR Inten    --      2.0732                 2.0776                 0.0519

                     52                     53                     54
                      A                      A                      A
 Frequencies --   1107.7872              1108.1539              1109.4741
 Red. masses --      1.9099                 1.8817                 1.6547
 Frc consts  --      1.3809                 1.3614                 1.2001
 IR Inten    --      4.7257                 4.2113                 2.9547

                     55                     56                     57
                      A                      A                      A
 Frequencies --   1110.8019              1110.9175              1115.8977
 Red. masses --      2.1595                 2.1881                 2.6113
 Frc consts  --      1.5699                 1.5910                 1.9158
 IR Inten    --      9.0356                 9.3064                 1.1338

                     58                     59                     60
                      A                      A                      A
 Frequencies --   1193.5235              1193.9523              1193.9918
 Red. masses --      1.1034                 1.1000                 1.1001
 Frc consts  --      0.9261                 0.9239                 0.9240
 IR Inten    --      0.0013                 0.1299                 0.1260

                     61                     62                     63
                      A                      A                      A
 Frequencies --   1219.1887              1219.6423              1220.7675
 Red. masses --      1.1475                 1.1479                 1.1473
 Frc consts  --      1.0050                 1.0061                 1.0074
 IR Inten    --      5.8734                 6.0887                 0.4873

                     64                     65                     66
                      A                      A                      A
 Frequencies --   1325.0403              1328.7333              1328.9834
 Red. masses --      3.4822                 3.4832                 3.5372
 Frc consts  --      3.6021                 3.6233                 3.6809
 IR Inten    --      2.6398                 2.4263                 2.4540

                     67                     68                     69
                      A                      A                      A
 Frequencies --   1365.0394              1365.5035              1365.6184
 Red. masses --      1.6633                 1.6450                 1.6403
 Frc consts  --      1.8260                 1.8072                 1.8024
 IR Inten    --      0.7516                 0.7534                 1.8922

                     70                     71                     72
                      A                      A                      A
 Frequencies --   1480.5535              1481.0150              1481.0829
 Red. masses --      2.1105                 2.1152                 2.1165
 Frc consts  --      2.7258                 2.7335                 2.7354
 IR Inten    --     16.6645                 6.5828                 6.6408

                     73                     74                     75
                      A                      A                      A
 Frequencies --   1531.0688              1531.6023              1531.7344
 Red. masses --      2.0158                 1.9986                 1.9969
 Frc consts  --      2.7841                 2.7623                 2.7604
 IR Inten    --      2.0367                10.0964                10.1798

                     76                     77                     78
                      A                      A                      A
 Frequencies --   1630.1930              1630.4818              1630.4934
 Red. masses --      5.1022                 5.1115                 5.1131
 Frc consts  --      7.9889                 8.0063                 8.0088
 IR Inten    --      0.3965                 0.0441                 0.0452

                     79                     80                     81
                      A                      A                      A
 Frequencies --   1646.1820              1646.2056              1647.9781
 Red. masses --      5.2713                 5.2678                 5.2822
 Frc consts  --      8.4163                 8.4110                 8.4522
 IR Inten    --      3.4989                 3.5405                 0.3193

                     82                     83                     84
                      A                      A                      A
 Frequencies --   3176.0921              3176.1402              3176.2023
 Red. masses --      1.0854                 1.0853                 1.0853
 Frc consts  --      6.4507                 6.4509                 6.4510
 IR Inten    --      2.1011                 1.9623                 1.9024

                     85                     86                     87
                      A                      A                      A
 Frequencies --   3182.6664              3182.7204              3182.8152
 Red. masses --      1.0875                 1.0875                 1.0876
 Frc consts  --      6.4903                 6.4905                 6.4914
 IR Inten    --      0.7278                 0.6594                 0.3178

                     88                     89                     90
                      A                      A                      A
 Frequencies --   3192.8619              3192.8981              3193.0261
 Red. masses --      1.0916                 1.0917                 1.0918
 Frc consts  --      6.5568                 6.5570                 6.5581
 IR Inten    --     10.2209                13.5729                44.6785

                     91                     92                     93
                      A                      A                      A
 Frequencies --   3203.9124              3204.0348              3204.3999
 Red. masses --      1.0941                 1.0942                 1.0943
 Frc consts  --      6.6171                 6.6185                 6.6205
 IR Inten    --     40.4860                41.6213                 6.2395

                     94                     95                     96
                      A                      A                      A
 Frequencies --   3210.0887              3210.3312              3211.1720
 Red. masses --      1.0957                 1.0955                 1.0955
 Frc consts  --      6.6523                 6.6519                 6.6554
 IR Inten    --     20.0313                18.6824                16.3415

 - Thermochemistry -
 -------------------
 Temperature   298.150 Kelvin.  Pressure   1.00000 Atm.
 Atom     1 has atomic number  6 and mass  12.00000

 Molecular mass:   262.09114 amu.
 Principal axes and moments of inertia in atomic units:
                           1         2         3
     Eigenvalues --  5161.362955164.212098681.00289
           X            0.99969  -0.02477   0.00002
           Y            0.02477   0.99969   0.00002
           Z           -0.00002  -0.00001   1.00000
 This molecule is an asymmetric top.
 Rotational symmetry number  1.
 Warning -- assumption of classical behavior for rotation
           may cause significant error
 Rotational temperatures (Kelvin)      0.01678     0.01677     0.00998
 Rotational constants (GHZ):           0.34966     0.34947     0.20790
 Zero-point vibrational energy     720024.8 (Joules/Mol)
                                  172.09005 (Kcal/Mol)
 Warning -- explicit consideration of  21 degrees of freedom as
           vibrations may cause significant error
 Vibrational temperatures:     35.24    36.59    56.32    76.94    77.16
          (Kelvin)            101.87   261.62   291.50   291.81   353.28
                              373.72   374.45   588.42   588.47   593.37
                              600.10   617.91   618.20   733.12   733.30
                              743.13   910.38   910.42   911.31   995.38
                             1014.59  1014.67  1024.98  1025.14  1026.43
                             1095.51  1097.63  1097.66  1246.47  1246.60
                             1250.14  1342.41  1342.56  1344.32  1404.20
                             1404.33  1406.81  1439.38  1439.43  1440.46
                             1460.87  1460.95  1461.46  1514.64  1514.73
                             1514.93  1593.86  1594.39  1596.29  1598.20
                             1598.36  1605.53  1717.21  1717.83  1717.89
                             1754.14  1754.79  1756.41  1906.44  1911.75
                             1912.11  1963.99  1964.65  1964.82  2130.19
                             2130.85  2130.95  2202.87  2203.63  2203.82
                             2345.48  2345.90  2345.92  2368.49  2368.52
                             2371.07  4569.69  4569.76  4569.85  4579.15
                             4579.22  4579.36  4593.82  4593.87  4594.05
                             4609.72  4609.89  4610.42  4618.60  4618.95
                             4620.16

 Zero-point correction=                           0.274243 (Hartree/Particle)
 Thermal correction to Energy=                    0.290151
 Thermal correction to Enthalpy=                  0.291096
 Thermal correction to Gibbs Free Energy=         0.227930
 Sum of electronic and zero-point Energies=          -1036.023996
 Sum of electronic and thermal Energies=             -1036.008087
 Sum of electronic and thermal Enthalpies=           -1036.007143
 Sum of electronic and thermal Free Energies=        -1036.070308

                     E (Thermal)             CV                S
                      KCal/Mol        Cal/Mol-Kelvin    Cal/Mol-Kelvin
 Total                  182.073             62.529            132.943
 Electronic               0.000              0.000              0.000
 Translational            0.889              2.981             42.590
 Rotational               0.889              2.981             33.803
 Vibrational            180.295             56.568             56.550
 Vibration     1          0.593              1.985              6.232
 Vibration     2          0.593              1.985              6.157
 Vibration     3          0.594              1.981              5.302
 Vibration     4          0.596              1.976              4.684
 Vibration     5          0.596              1.976              4.679
 Vibration     6          0.598              1.968              4.131
 Vibration     7          0.630              1.864              2.309
 Vibration     8          0.639              1.836              2.109
 Vibration     9          0.639              1.836              2.107
 Vibration    10          0.660              1.770              1.762
 Vibration    11          0.668              1.746              1.663
 Vibration    12          0.668              1.745              1.660
 Vibration    13          0.773              1.451              0.930
 Vibration    14          0.773              1.451              0.930
 Vibration    15          0.776              1.443              0.918
 Vibration    16          0.780              1.433              0.902
 Vibration    17          0.791              1.406              0.860
 Vibration    18          0.791              1.406              0.860
 Vibration    19          0.865              1.229              0.635
 Vibration    20          0.865              1.229              0.634
 Vibration    21          0.872              1.213              0.618

                           ! Non-Optimized Parameters !
 Normal termination of Gaussian 16 at Sun Aug 23 06:59:35 2020.
 Gaussian 16:  ES64L-G16RevA.03 25-Dec-2016

 ----------------------------------------------------------------------
 # TD(NStates=10, Root=1) B3LYP/6-31G* scf=qc volume pop=NPA density=cu
 rrent Geom=AllCheck Guess=Read
 ----------------------------------------------------------------------

 Structure from the checkpoint file:  "phosphine_1_conf43.chk"
 -------------------
 Title Card Required
 -------------------
 Charge =  0 Multiplicity = 1

                         Standard orientation:
 ---------------------------------------------------------------------
 Center     Atomic      Atomic             Coordinates (Angstroms)
 Number     Number       Type             X           Y           Z
 ---------------------------------------------------------------------
      1          6           0        3.167893    2.879198    0.650798
      2          6           0        3.434991    2.142402   -0.505071
      3          6           0        2.462475    1.292403   -1.031179
      4          6           0        1.213780    1.148317   -0.402893
      5          6           0        0.957049    1.896378    0.756236
      6          6           0        1.926499    2.756498    1.276831
      7         15           0       -0.000197    0.000226   -1.206552
      8          6           0        0.387378   -1.624932   -0.402576
      9          6           0        1.161986   -1.775934    0.757718
     10          6           0        1.422387   -3.045297    1.278821
     11          6           0        0.909779   -4.182181    0.652106
     12          6           0        0.139744   -4.045793   -0.504906
     13          6           0       -0.110385   -2.778805   -1.031479
     14          6           0       -1.601402    0.476985   -0.402430
     15          6           0       -2.354492    1.481194   -1.034140
     16          6           0       -3.576923    1.897736   -0.507523
     17          6           0       -4.077343    1.302494    0.652409
     18          6           0       -3.346316    0.293891    1.282041
     19          6           0       -2.116763   -0.114914    0.760834
     20          1           0        3.920543    3.549863    1.057022
     21          1           0        4.396405    2.237643   -1.003205
     22          1           0        2.670868    0.736759   -1.942751
     23          1           0       -0.004981    1.810414    1.252402
     24          1           0        1.710074    3.330705    2.174274
     25          1           0        1.567135   -0.899402    1.254327
     26          1           0        2.026634   -3.144418    2.177163
     27          1           0        1.114453   -5.169135    1.058703
     28          1           0       -0.257045   -4.926380   -1.003555
     29          1           0       -0.694568   -2.682034   -1.943889
     30          1           0       -1.980614    1.935894   -1.948784
     31          1           0       -4.143325    2.678667   -1.008382
     32          1           0       -5.034476    1.618420    1.059079
     33          1           0       -3.732203   -0.177141    2.182693
     34          1           0       -1.557984   -0.901085    1.259601
 ---------------------------------------------------------------------

 SCF Done:  E(RB3LYP) =  -1036.29823856     a.u. after    1 cycles

 Excitation energies and oscillator strengths:

 Excited State   1:      Singlet-A      4.5091 eV  274.96 nm  f=0.1275  <S**2>=0.000
      69 -> 70         0.69706
 This state for optimization and/or second-order correction.
 Total Energy, E(TD-HF/TD-DFT) =  -1036.13253117
 Copying the excited state density for this state as the 1-particle RhoCI density.

 Excited State   2:      Singlet-A      4.5115 eV  274.82 nm  f=0.1285  <S**2>=0.000
      69 -> 71         0.69702

 Excited State   3:      Singlet-A      4.7564 eV  260.67 nm  f=0.0022  <S**2>=0.000
      67 -> 70        -0.12266
      68 -> 71         0.12319
      69 -> 72         0.67471

 Excited State   4:      Singlet-A      5.0573 eV  245.16 nm  f=0.0002  <S**2>=0.000
      66 -> 70         0.16615
      67 -> 70         0.13496
      68 -> 71         0.13470
      69 -> 74         0.62974

 Excited State   5:      Singlet-A      5.0583 eV  245.11 nm  f=0.0002  <S**2>=0.000
      66 -> 71        -0.16686
      67 -> 71         0.13576
      68 -> 70        -0.13559
      69 -> 75         0.62915

 Excited State   6:      Singlet-A      5.1505 eV  240.72 nm  f=0.0085  <S**2>=0.000
      69 -> 73         0.67908

 Excited State   7:      Singlet-A      5.4277 eV  228.43 nm  f=0.0147  <S**2>=0.000
      63 -> 72         0.16605
      64 -> 74        -0.14332
      65 -> 75         0.14081
      67 -> 70         0.42353
      68 -> 71        -0.41627
      69 -> 72         0.16496

 Excited State   8:      Singlet-A      5.5138 eV  224.86 nm  f=0.0005  <S**2>=0.000
      63 -> 74         0.14342
      64 -> 71        -0.11219
      64 -> 72        -0.22200
      65 -> 70        -0.11497
      65 -> 72        -0.17516
      66 -> 70        -0.22626
      67 -> 70        -0.26455
      68 -> 71        -0.27598
      68 -> 72         0.16341
      69 -> 74         0.28633

 Excited State   9:      Singlet-A      5.5150 eV  224.81 nm  f=0.0004  <S**2>=0.000
      63 -> 75         0.14394
      64 -> 70         0.11156
      64 -> 72        -0.17554
      65 -> 71        -0.11125
      65 -> 72         0.22213
      66 -> 71         0.22485
      67 -> 71        -0.26871
      67 -> 72        -0.16408
      68 -> 70         0.27434
      69 -> 75         0.28741

 Excited State  10:      Singlet-A      5.6182 eV  220.68 nm  f=0.0009  <S**2>=0.000
      67 -> 71         0.47439
      68 -> 70         0.48315

 The electronic state is 1-A.
 Alpha  occ. eigenvalues --  -77.08113 -10.19448 -10.19447 -10.19446 -10.19149
 Alpha  occ. eigenvalues --  -10.19145 -10.19144 -10.19119 -10.19116 -10.19116
 Alpha  occ. eigenvalues --  -10.19033 -10.19029 -10.19029 -10.19009 -10.19006
 Alpha  occ. eigenvalues --  -10.19006 -10.18964 -10.18960 -10.18960  -6.54844
 Alpha  occ. eigenvalues --   -4.71103  -4.71103  -4.70602  -0.85560  -0.84847
 Alpha  occ. eigenvalues --   -0.84844  -0.76669  -0.74367  -0.74366  -0.74329
 Alpha  occ. eigenvalues --   -0.73821  -0.73820  -0.64436  -0.60335  -0.60308
 Alpha  occ. eigenvalues --   -0.60306  -0.59207  -0.59207  -0.55448  -0.51436
 Alpha  occ. eigenvalues --   -0.51434  -0.49295  -0.45441  -0.45439  -0.44773
 Alpha  occ. eigenvalues --   -0.44345  -0.44345  -0.44067  -0.41946  -0.41869
 Alpha  occ. eigenvalues --   -0.41868  -0.40379  -0.40376  -0.36845  -0.36352
 Alpha  occ. eigenvalues --   -0.36349  -0.35899  -0.34252  -0.34251  -0.34224
 Alpha  occ. eigenvalues --   -0.31885  -0.31883  -0.26779  -0.25450  -0.25444
 Alpha  occ. eigenvalues --   -0.25243  -0.24704  -0.24703  -0.21143
 Alpha virt. eigenvalues --   -0.01882  -0.01876  -0.00831   0.00172   0.00426
 Alpha virt. eigenvalues --    0.00432   0.06877   0.06889   0.09493   0.11038
 Alpha virt. eigenvalues --    0.11039   0.13905   0.14528   0.14529   0.15164

 Mulliken charges:
               1
     1  C   -0.132037
     2  C   -0.116594
     3  C   -0.167535
     4  C   -0.099188
     5  C   -0.150002
     6  C   -0.122948
     7  P    0.450539
     8  C   -0.088365
     9  C   -0.160435
    10  C   -0.116048
    11  C   -0.133839
    12  C   -0.123545
    13  C   -0.152453
    14  C   -0.133701
    15  C   -0.172211
    16  C   -0.122920
    17  C   -0.170304
    18  C   -0.119069
    19  C   -0.175131
    20  H    0.138058
    21  H    0.136077
    22  H    0.138508
    23  H    0.174360
    24  H    0.141186
    25  H    0.152365
    26  H    0.139089
    27  H    0.136792
    28  H    0.136589
    29  H    0.143604
    30  H    0.112016
    31  H    0.111878
    32  H    0.105700
    33  H    0.115404
    34  H    0.124159
 Sum of Mulliken charges =  -0.00000

 Dipole moment (field-independent basis, Debye):
    X=              3.6554    Y=             -0.9607    Z=             -0.1964  Tot=              3.7846
 Quadrupole moment (field-independent basis, Debye-Ang):
   XX=           -119.1229   YY=           -107.9296   ZZ=           -110.6766
   XY=              4.2836   XZ=              1.2734   YZ=              0.4961

 Summary of Natural Population Analysis:

                                       Natural Population
                Natural  -----------------------------------------------
    Atom  No    Charge         Core      Valence    Rydberg      Total
 -----------------------------------------------------------------------
      C    1   -0.21978      1.99909     4.20619    0.01449     6.21978
      C    2   -0.23159      1.99910     4.21827    0.01422     6.23159
      C    3   -0.22053      1.99902     4.20589    0.01562     6.22053
      C    4   -0.41144      1.99890     4.38658    0.02596     6.41144
      C    5   -0.20654      1.99900     4.19107    0.01647     6.20654
      C    6   -0.23576      1.99909     4.22234    0.01433     6.23576
      P    7    1.24210      9.99750     3.71016    0.05024    13.75790
      C    8   -0.39613      1.99889     4.37318    0.02406     6.39613
      C    9   -0.23335      1.99899     4.21755    0.01681     6.23335
      C   10   -0.22360      1.99909     4.21046    0.01405     6.22360
      C   11   -0.22382      1.99909     4.21018    0.01455     6.22382
      C   12   -0.24394      1.99910     4.23016    0.01469     6.24394
      C   13   -0.19881      1.99901     4.18456    0.01523     6.19881
      C   14   -0.48909      1.99886     4.46474    0.02549     6.48909
      C   15   -0.23496      1.99901     4.21957    0.01637     6.23496
      C   16   -0.24507      1.99910     4.23091    0.01505     6.24507
      C   17   -0.30098      1.99910     4.28510    0.01679     6.30098
      C   18   -0.23070      1.99909     4.21698    0.01463     6.23070
      C   19   -0.26290      1.99899     4.24581    0.01810     6.26290
      H   20    0.23855      0.00000     0.76059    0.00087     0.76145
      H   21    0.23967      0.00000     0.75938    0.00094     0.76033
      H   22    0.23602      0.00000     0.76288    0.00109     0.76398
      H   23    0.26031      0.00000     0.73833    0.00136     0.73969
      H   24    0.24310      0.00000     0.75602    0.00088     0.75690
      H   25    0.24848      0.00000     0.75026    0.00125     0.75152
      H   26    0.24198      0.00000     0.75715    0.00087     0.75802
      H   27    0.23811      0.00000     0.76104    0.00085     0.76189
      H   28    0.24062      0.00000     0.75851    0.00087     0.75938
      H   29    0.24016      0.00000     0.75860    0.00125     0.75984
      H   30    0.22301      0.00000     0.77601    0.00098     0.77699
      H   31    0.22878      0.00000     0.77031    0.00091     0.77122
      H   32    0.22461      0.00000     0.77450    0.00089     0.77539
      H   33    0.23109      0.00000     0.76804    0.00088     0.76891
      H   34    0.23242      0.00000     0.76607    0.00151     0.76758
 =======================================================================
   * Total *    0.00000     45.98001    91.64741    0.37258   138.00000

 Normal termination of Gaussian 16 at Sun Aug 23 07:11:44 2020.
