 Gaussian 16, Revision A.03,

 ---------------------------------
 # opt=CalcAll B3LYP/6-31G* scf=qc
 ---------------------------------

 -------------------
 Title Card Required
 -------------------
 Symbolic Z-matrix:
 Charge =  0 Multiplicity = 1

 SCF Done:  E(RB3LYP) =  -2415.07178664     a.u. after    8 cycles
 SCF Done:  E(RB3LYP) =  -2415.08103414     a.u. after   19 cycles
 SCF Done:  E(RB3LYP) =  -2415.08298350     a.u. after   21 cycles
 SCF Done:  E(RB3LYP) =  -2415.08508551     a.u. after   17 cycles
 SCF Done:  E(RB3LYP) =  -2415.08592597     a.u. after   15 cycles
 SCF Done:  E(RB3LYP) =  -2415.08606550     a.u. after   17 cycles
 SCF Done:  E(RB3LYP) =  -2415.08623762     a.u. after   11 cycles
 SCF Done:  E(RB3LYP) =  -2415.08624822     a.u. after    7 cycles
 SCF Done:  E(RB3LYP) =  -2415.08624917     a.u. after    2 cycles
 SCF Done:  E(RB3LYP) =  -2415.08624277     a.u. after    2 cycles
 SCF Done:  E(RB3LYP) =  -2415.08624414     a.u. after    2 cycles
 SCF Done:  E(RB3LYP) =  -2415.08624625     a.u. after    4 cycles
 SCF Done:  E(RB3LYP) =  -2415.08624641     a.u. after    2 cycles
 SCF Done:  E(RB3LYP) =  -2415.08624211     a.u. after    7 cycles
 SCF Done:  E(RB3LYP) =  -2415.08624760     a.u. after    5 cycles
 Optimization completed.
    -- Stationary point found.
 Normal termination of Gaussian 16 at Sun Aug 23 01:29:20 2020.

 ----------------------------------------------------------------------
 # freq B3LYP/6-31G* scf=qc volume NMR pop=NPA density=current Geom=All
 Check Guess=Read
 ----------------------------------------------------------------------

 Structure from the checkpoint file:  "phosphine_11_conf102.chk"
 -------------------
 Title Card Required
 -------------------
 Charge =  0 Multiplicity = 1

 SCF Done:  E(RB3LYP) =  -2415.08624760     a.u. after    1 cycles

      1  C    Isotropic =    67.5498   Anisotropy =   140.5533

      2  C    Isotropic =    60.2476   Anisotropy =   160.3103

      3  C    Isotropic =    58.6994   Anisotropy =   177.4754

      4  C    Isotropic =    61.9143   Anisotropy =   168.5733

      5  C    Isotropic =    67.5421   Anisotropy =   140.1163

      6  C    Isotropic =    51.6163   Anisotropy =   109.1022

      7  Cl   Isotropic =   720.9635   Anisotropy =   452.9746

      8  P    Isotropic =   364.8642   Anisotropy =    37.9305

      9  C    Isotropic =    58.7681   Anisotropy =   177.3917

     10  C    Isotropic =    61.9041   Anisotropy =   168.6209

     11  C    Isotropic =    67.5370   Anisotropy =   140.1138

     12  C    Isotropic =    51.6019   Anisotropy =   109.1374

     13  C    Isotropic =    67.5525   Anisotropy =   140.5859

     14  C    Isotropic =    60.2269   Anisotropy =   160.3115

     15  Cl   Isotropic =   720.9759   Anisotropy =   452.9370

     16  C    Isotropic =    58.7741   Anisotropy =   177.4477

     17  C    Isotropic =    61.8635   Anisotropy =   168.6665

     18  C    Isotropic =    67.5347   Anisotropy =   140.1184

     19  C    Isotropic =    51.5773   Anisotropy =   109.1821

     20  C    Isotropic =    67.5453   Anisotropy =   140.5734

     21  C    Isotropic =    60.1962   Anisotropy =   160.2599

     22  Cl   Isotropic =   720.8514   Anisotropy =   453.0112

     23  H    Isotropic =    25.0957   Anisotropy =     6.6291

     24  H    Isotropic =    24.7796   Anisotropy =     8.9787

     25  H    Isotropic =    25.5823   Anisotropy =    12.1231

     26  H    Isotropic =    25.2082   Anisotropy =     8.1425

     27  H    Isotropic =    25.5820   Anisotropy =    12.1222

     28  H    Isotropic =    25.2094   Anisotropy =     8.1416

     29  H    Isotropic =    25.0905   Anisotropy =     6.6362

     30  H    Isotropic =    24.7791   Anisotropy =     8.9729

     31  H    Isotropic =    25.5770   Anisotropy =    12.1028

     32  H    Isotropic =    25.2073   Anisotropy =     8.1417

     33  H    Isotropic =    25.0926   Anisotropy =     6.6311

     34  H    Isotropic =    24.7741   Anisotropy =     8.9595

  Exact polarizability: 280.678  -0.121 280.514  -0.108   0.053 185.129
 Approx polarizability: 393.530  -0.289 393.294  -0.245   0.125 343.193

                      1                      2                      3
                      A                      A                      A
 Frequencies --     22.7228                23.4920                29.7085
 Red. masses --      4.8587                 5.1382                 8.2940
 Frc consts  --      0.0015                 0.0017                 0.0043
 IR Inten    --      0.2704                 0.2523                 0.1956

                      4                      5                      6
                      A                      A                      A
 Frequencies --     30.0752                38.3822                40.3124
 Red. masses --      7.5990                 7.3543                 4.8426
 Frc consts  --      0.0040                 0.0064                 0.0046
 IR Inten    --      0.2101                 0.1824                 0.0449

                      7                      8                      9
                      A                      A                      A
 Frequencies --    109.3453               117.5855               117.8028
 Red. masses --      8.8647                 8.8366                 8.8282
 Frc consts  --      0.0624                 0.0720                 0.0722
 IR Inten    --      0.0247                 0.3519                 0.3502

                     10                     11                     12
                      A                      A                      A
 Frequencies --    181.0469               187.4757               187.5421
 Red. masses --     10.0361                 8.7851                 8.7959
 Frc consts  --      0.1938                 0.1819                 0.1823
 IR Inten    --      0.3325                 0.5654                 0.5761

                     13                     14                     15
                      A                      A                      A
 Frequencies --    264.0584               293.6987               293.8228
 Red. masses --      8.9807                 8.4126                 8.4139
 Frc consts  --      0.3689                 0.4275                 0.4280
 IR Inten    --      0.2159                 0.9060                 0.9120

                     16                     17                     18
                      A                      A                      A
 Frequencies --    310.9021               328.6848               328.9040
 Red. masses --      6.0412                 5.9880                 5.9733
 Frc consts  --      0.3440                 0.3811                 0.3807
 IR Inten    --      0.0031                 1.8918                 1.8678

                     19                     20                     21
                      A                      A                      A
 Frequencies --    384.0140               384.1503               414.7502
 Red. masses --      8.0290                 8.0271                 3.0458
 Frc consts  --      0.6976                 0.6979                 0.3087
 IR Inten    --     21.0045                20.9916                 0.0471

                     22                     23                     24
                      A                      A                      A
 Frequencies --    414.8355               416.7981               426.8661
 Red. masses --      3.0468                 3.2123                 6.6071
 Frc consts  --      0.3089                 0.3288                 0.7093
 IR Inten    --      0.0542                 0.1638                 2.9405

                     25                     26                     27
                      A                      A                      A
 Frequencies --    499.5090               509.4563               509.5592
 Red. masses --      5.5242                 3.6470                 3.6519
 Frc consts  --      0.8121                 0.5577                 0.5587
 IR Inten    --      6.8266                19.8144                19.9053

                     28                     29                     30
                      A                      A                      A
 Frequencies --    531.6429               548.8630               548.8928
 Red. masses --      4.5700                 7.4190                 7.4375
 Frc consts  --      0.7610                 1.3168                 1.3202
 IR Inten    --      9.8638                 5.4714                 5.4575

                     31                     32                     33
                      A                      A                      A
 Frequencies --    644.3591               644.4072               645.3282
 Red. masses --      7.1597                 7.1606                 7.1686
 Frc consts  --      1.7515                 1.7519                 1.7589
 IR Inten    --      0.0369                 0.0366                 0.0955

                     34                     35                     36
                      A                      A                      A
 Frequencies --    718.2698               718.3751               718.7235
 Red. masses --      4.5913                 4.5942                 4.6078
 Frc consts  --      1.3956                 1.3969                 1.4024
 IR Inten    --      1.6944                 1.6740                 0.2826

                     37                     38                     39
                      A                      A                      A
 Frequencies --    746.0954               751.6425               751.6734
 Red. masses --      7.2606                 7.2732                 7.2735
 Frc consts  --      2.3813                 2.4210                 2.4213
 IR Inten    --     14.6308                54.3603                54.3923

                     40                     41                     42
                      A                      A                      A
 Frequencies --    833.7499               834.2326               834.3094
 Red. masses --      1.4163                 1.4320                 1.4313
 Frc consts  --      0.5801                 0.5872                 0.5870
 IR Inten    --     23.2966                32.7832                32.9938

                     43                     44                     45
                      A                      A                      A
 Frequencies --    845.9426               846.0450               849.0295
 Red. masses --      1.2466                 1.2465                 1.2500
 Frc consts  --      0.5256                 0.5257                 0.5309
 IR Inten    --      0.6591                 0.6159                 0.3030

                     46                     47                     48
                      A                      A                      A
 Frequencies --    969.6322               969.7439               970.0641
 Red. masses --      1.2762                 1.2767                 1.2877
 Frc consts  --      0.7070                 0.7074                 0.7139
 IR Inten    --      0.1526                 0.1392                 0.2170

                     49                     50                     51
                      A                      A                      A
 Frequencies --    973.4510               973.6173               976.7528
 Red. masses --      1.3453                 1.3439                 1.3218
 Frc consts  --      0.7511                 0.7506                 0.7430
 IR Inten    --      0.0115                 0.0111                 0.4184

                     52                     53                     54
                      A                      A                      A
 Frequencies --   1027.9621              1028.0233              1029.6303
 Red. masses --      4.7542                 4.7666                 4.6996
 Frc consts  --      2.9599                 2.9680                 2.9354
 IR Inten    --     62.6895                62.7553                 5.1167

                     55                     56                     57
                      A                      A                      A
 Frequencies --   1097.6937              1097.8082              1101.4828
 Red. masses --      7.8845                 7.9270                 8.0770
 Frc consts  --      5.5974                 5.6288                 5.7737
 IR Inten    --     80.4665                81.6828                13.7059

                     58                     59                     60
                      A                      A                      A
 Frequencies --   1118.1473              1118.3858              1121.1482
 Red. masses --      2.1243                 2.1206                 2.1013
 Frc consts  --      1.5648                 1.5627                 1.5562
 IR Inten    --     33.4263                32.6321                 6.4666

                     61                     62                     63
                      A                      A                      A
 Frequencies --   1139.3093              1139.4546              1139.5724
 Red. masses --      1.4011                 1.4020                 1.4020
 Frc consts  --      1.0716                 1.0725                 1.0727
 IR Inten    --      1.0033                 0.3909                 2.7594

                     64                     65                     66
                      A                      A                      A
 Frequencies --   1219.0344              1219.4670              1220.8189
 Red. masses --      1.1568                 1.1574                 1.1518
 Frc consts  --      1.0128                 1.0141                 1.0114
 IR Inten    --      4.7214                 4.8343                 0.9635

                     67                     68                     69
                      A                      A                      A
 Frequencies --   1318.3202              1322.2674              1322.3521
 Red. masses --      6.8808                 7.5414                 7.7479
 Frc consts  --      7.0458                 7.7686                 7.9823
 IR Inten    --      1.3261                 2.6752                 2.6478

                     70                     71                     72
                      A                      A                      A
 Frequencies --   1337.1411              1337.5871              1337.7339
 Red. masses --      1.3437                 1.3284                 1.3471
 Frc consts  --      1.4155                 1.4003                 1.4203
 IR Inten    --      0.5532                 0.3397                 1.3965

                     73                     74                     75
                      A                      A                      A
 Frequencies --   1429.5176              1429.9851              1430.0957
 Red. masses --      2.6377                 2.6427                 2.6400
 Frc consts  --      3.1758                 3.1840                 3.1811
 IR Inten    --     18.7225                 7.1099                 6.1057

                     76                     77                     78
                      A                      A                      A
 Frequencies --   1527.0807              1527.1620              1527.2088
 Red. masses --      2.0848                 2.0880                 2.0761
 Frc consts  --      2.8644                 2.8691                 2.8530
 IR Inten    --     46.2506                31.8306                63.9258

                     79                     80                     81
                      A                      A                      A
 Frequencies --   1611.0354              1611.2753              1611.3025
 Red. masses --      6.6452                 6.6613                 6.6647
 Frc consts  --     10.1618                10.1894                10.1949
 IR Inten    --      3.8683                 3.7868                 3.8377

                     82                     83                     84
                      A                      A                      A
 Frequencies --   1633.4415              1633.4510              1634.4949
 Red. masses --      5.4303                 5.4256                 5.4931
 Frc consts  --      8.5366                 8.5292                 8.6464
 IR Inten    --     29.6669                29.7987                13.1191

                     85                     86                     87
                      A                      A                      A
 Frequencies --   3188.0250              3188.1081              3188.2502
 Red. masses --      1.0892                 1.0892                 1.0892
 Frc consts  --      6.5226                 6.5227                 6.5232
 IR Inten    --      5.4647                 3.6863                 3.5384

                     88                     89                     90
                      A                      A                      A
 Frequencies --   3205.5537              3206.0861              3206.5865
 Red. masses --      1.0879                 1.0878                 1.0878
 Frc consts  --      6.5862                 6.5878                 6.5902
 IR Inten    --      0.8556                 0.8615                 0.6523

                     91                     92                     93
                      A                      A                      A
 Frequencies --   3222.6159              3222.6689              3222.7843
 Red. masses --      1.0937                 1.0937                 1.0937
 Frc consts  --      6.6923                 6.6925                 6.6926
 IR Inten    --      2.5279                 2.3819                 9.7623

                     94                     95                     96
                      A                      A                      A
 Frequencies --   3223.6605              3223.7051              3223.9460
 Red. masses --      1.0939                 1.0940                 1.0942
 Frc consts  --      6.6979                 6.6982                 6.7004
 IR Inten    --      5.5878                 5.6638                 0.0730

 - Thermochemistry -
 -------------------
 Temperature   298.150 Kelvin.  Pressure   1.00000 Atm.
 Atom     1 has atomic number  6 and mass  12.00000

 Molecular mass:   363.97422 amu.
 Principal axes and moments of inertia in atomic units:
                           1         2         3
     Eigenvalues --  ******************************
           X            0.99966  -0.02609  -0.00002
           Y            0.02609   0.99966   0.00001
           Z            0.00002  -0.00001   1.00000
 This molecule is an asymmetric top.
 Rotational symmetry number  1.
 Warning -- assumption of classical behavior for rotation
           may cause significant error
 Rotational temperatures (Kelvin)      0.00723     0.00723     0.00405
 Rotational constants (GHZ):           0.15068     0.15055     0.08440
 Zero-point vibrational energy     643780.7 (Joules/Mol)
                                  153.86728 (Kcal/Mol)
 Warning -- explicit consideration of  30 degrees of freedom as
           vibrations may cause significant error
 Vibrational temperatures:     32.69    33.80    42.74    43.27    55.22
          (Kelvin)             58.00   157.32   169.18   169.49   260.49
                              269.74   269.83   379.92   422.57   422.75
                              447.32   472.90   473.22   552.51   552.71
                              596.73   596.86   599.68   614.17   718.68
                              732.99   733.14   764.92   789.69   789.73
                              927.09   927.16   928.48  1033.43  1033.58
                             1034.08  1073.46  1081.45  1081.49  1199.58
                             1200.27  1200.39  1217.12  1217.27  1221.56
                             1395.08  1395.25  1395.71  1400.58  1400.82
                             1405.33  1479.01  1479.10  1481.41  1579.34
                             1579.50  1584.79  1608.76  1609.11  1613.08
                             1639.21  1639.42  1639.59  1753.92  1754.54
                             1756.49  1896.77  1902.45  1902.57  1923.85
                             1924.49  1924.70  2056.76  2057.43  2057.59
                             2197.13  2197.25  2197.31  2317.92  2318.27
                             2318.30  2350.16  2350.17  2351.67  4586.86
                             4586.98  4587.18  4612.08  4612.84  4613.56
                             4636.63  4636.70  4636.87  4638.13  4638.19
                             4638.54

 Zero-point correction=                           0.245203 (Hartree/Particle)
 Thermal correction to Energy=                    0.264848
 Thermal correction to Enthalpy=                  0.265792
 Thermal correction to Gibbs Free Energy=         0.192369
 Sum of electronic and zero-point Energies=          -2414.841044
 Sum of electronic and thermal Energies=             -2414.821400
 Sum of electronic and thermal Enthalpies=           -2414.820456
 Sum of electronic and thermal Free Energies=        -2414.893879

                     E (Thermal)             CV                S
                      KCal/Mol        Cal/Mol-Kelvin    Cal/Mol-Kelvin
 Total                  166.194             74.119            154.531
 Electronic               0.000              0.000              0.000
 Translational            0.889              2.981             43.569
 Rotational               0.889              2.981             36.372
 Vibrational            164.417             68.157             74.591
 Vibration     1          0.593              1.985              6.381
 Vibration     2          0.593              1.985              6.315
 Vibration     3          0.593              1.984              5.849
 Vibration     4          0.594              1.984              5.824
 Vibration     5          0.594              1.982              5.341
 Vibration     6          0.594              1.981              5.244
 Vibration     7          0.606              1.942              3.281
 Vibration     8          0.608              1.935              3.140
 Vibration     9          0.608              1.935              3.136
 Vibration    10          0.630              1.865              2.318
 Vibration    11          0.632              1.857              2.253
 Vibration    12          0.632              1.857              2.252
 Vibration    13          0.671              1.739              1.635
 Vibration    14          0.688              1.685              1.453
 Vibration    15          0.689              1.685              1.452
 Vibration    16          0.700              1.653              1.358
 Vibration    17          0.712              1.618              1.267
 Vibration    18          0.712              1.618              1.265
 Vibration    19          0.753              1.504              1.023
 Vibration    20          0.753              1.504              1.023
 Vibration    21          0.778              1.438              0.910
 Vibration    22          0.778              1.438              0.910
 Vibration    23          0.780              1.434              0.903
 Vibration    24          0.789              1.412              0.869
 Vibration    25          0.855              1.251              0.659
 Vibration    26          0.865              1.229              0.635
 Vibration    27          0.865              1.229              0.635
 Vibration    28          0.887              1.180              0.584
 Vibration    29          0.904              1.142              0.547
 Vibration    30          0.904              1.142              0.546

                           ! Non-Optimized Parameters !
 Normal termination of Gaussian 16 at Sun Aug 23 01:45:48 2020.
 Gaussian 16:  ES64L-G16RevA.03 25-Dec-2016

 ----------------------------------------------------------------------
 # TD(NStates=10, Root=1) B3LYP/6-31G* scf=qc volume pop=NPA density=cu
 rrent Geom=AllCheck Guess=Read
 ----------------------------------------------------------------------

 Structure from the checkpoint file:  "phosphine_11_conf103.chk"
 -------------------
 Title Card Required
 -------------------
 Charge =  0 Multiplicity = 1

                         Standard orientation:
 ---------------------------------------------------------------------
 Center     Atomic      Atomic             Coordinates (Angstroms)
 Number     Number       Type             X           Y           Z
 ---------------------------------------------------------------------
      1          6           0       -1.914080   -3.569461    0.851237
      2          6           0       -1.489276   -2.348022    1.370764
      3          6           0       -0.481222   -1.597545    0.742731
      4          6           0        0.110630   -2.119370   -0.417203
      5          6           0       -0.294923   -3.346624   -0.943781
      6          6           0       -1.308538   -4.059475   -0.305654
      7         17           0       -1.825568   -5.604897   -0.963737
      8         15           0        0.000674    0.000406    1.547501
      9          6           0        1.625298    0.382018    0.742322
     10          6           0        1.781125    1.154587   -0.418222
     11          6           0        3.046724    1.417494   -0.944561
     12          6           0        4.171050    0.897527   -0.305563
     13          6           0        4.049630    0.129013    0.851942
     14          6           0        2.779418   -0.114325    1.371206
     15         17           0        5.767943    1.223193   -0.963289
     16          6           0       -1.142827    1.216011    0.742553
     17          6           0       -1.883810    0.966715   -0.422323
     18          6           0       -2.744610    1.930700   -0.949145
     19          6           0       -2.862927    3.161755   -0.306174
     20          6           0       -2.142772    3.438764    0.855614
     21          6           0       -1.296408    2.460958    1.375196
     22         17           0       -3.943932    4.381075   -0.964452
     23          1           0       -2.695758   -4.140269    1.341224
     24          1           0       -1.948398   -1.976479    2.283739
     25          1           0        0.901169   -1.569574   -0.918649
     26          1           0        0.169370   -3.745029   -1.839897
     27          1           0        0.909600    1.563261   -0.920292
     28          1           0        3.159480    2.018128   -1.841131
     29          1           0        4.934924   -0.261408    1.342605
     30          1           0        2.687319   -0.696958    2.284667
     31          1           0       -1.797031    0.009546   -0.927289
     32          1           0       -3.316500    1.729648   -1.849055
     33          1           0       -2.252297    4.398597    1.349232
     34          1           0       -0.750414    2.670798    2.291818
 ---------------------------------------------------------------------

 SCF Done:  E(RB3LYP) =  -2415.08624760     a.u. after    1 cycles

 Excitation energies and oscillator strengths:

 Excited State   1:      Singlet-A      4.4043 eV  281.51 nm  f=0.1825  <S**2>=0.000
      93 -> 94         0.69580
 This state for optimization and/or second-order correction.
 Total Energy, E(TD-HF/TD-DFT) =  -2414.92439232
 Copying the excited state density for this state as the 1-particle RhoCI density.

 Excited State   2:      Singlet-A      4.4078 eV  281.29 nm  f=0.1845  <S**2>=0.000
      93 -> 95         0.69576

 Excited State   3:      Singlet-A      4.6116 eV  268.85 nm  f=0.0036  <S**2>=0.000
      89 -> 94        -0.10969
      90 -> 95        -0.11034
      93 -> 96         0.67973

 Excited State   4:      Singlet-A      4.9169 eV  252.16 nm  f=0.0001  <S**2>=0.000
      88 -> 94         0.11703
      89 -> 94         0.10850
      89 -> 97        -0.10032
      90 -> 95        -0.10908
      93 -> 98         0.64527

 Excited State   5:      Singlet-A      4.9183 eV  252.09 nm  f=0.0001  <S**2>=0.000
      88 -> 95        -0.11667
      89 -> 95         0.10979
      90 -> 94         0.10950
      90 -> 97         0.10149
      93 -> 99         0.64456

 Excited State   6:      Singlet-A      5.0220 eV  246.88 nm  f=0.0090  <S**2>=0.000
      91 -> 94         0.11545
      92 -> 95         0.11601
      93 -> 97         0.66867

 Excited State   7:      Singlet-A      5.2596 eV  235.73 nm  f=0.0018  <S**2>=0.000
      89 -> 94        -0.13369
      90 -> 95        -0.12908
      91 -> 94        -0.24898
      91 -> 95        -0.36495
      91 -> 98        -0.12533
      92 -> 94         0.37239
      92 -> 95        -0.24728
      92 -> 99         0.12187
      93 -> 96        -0.10386

 Excited State   8:      Singlet-A      5.3609 eV  231.28 nm  f=0.0051  <S**2>=0.000
      87 -> 94         0.10016
      88 -> 94        -0.19213
      89 -> 94        -0.14785
      89 -> 95         0.12459
      89 -> 97         0.11218
      90 -> 94         0.12434
      90 -> 95         0.14710
      91 -> 94        -0.14384
      91 -> 96         0.38050
      91 -> 98        -0.15281
      92 -> 95         0.14829
      92 -> 96         0.22428
      92 -> 99        -0.15275
      93 -> 98         0.22767

 Excited State   9:      Singlet-A      5.3622 eV  231.22 nm  f=0.0048  <S**2>=0.000
      88 -> 95        -0.18907
      89 -> 94         0.12475
      89 -> 95         0.14687
      90 -> 94         0.14784
      90 -> 95        -0.12315
      90 -> 97         0.11224
      91 -> 95         0.14408
      91 -> 96        -0.22173
      91 -> 99        -0.15005
      92 -> 94         0.14842
      92 -> 96         0.38434
      92 -> 98         0.15383
      93 -> 99        -0.22904

 Excited State  10:      Singlet-A      5.4209 eV  228.72 nm  f=0.1607  <S**2>=0.000
      91 -> 94        -0.12158
      91 -> 95         0.44433
      92 -> 94         0.45036
      92 -> 95         0.12770
      92 -> 96        -0.13486

 The electronic state is 1-A.
 Alpha  occ. eigenvalues -- -101.55495-101.55492-101.55490 -77.10094 -10.26332
 Alpha  occ. eigenvalues --  -10.26327 -10.26325 -10.21419 -10.21418 -10.21416
 Alpha  occ. eigenvalues --  -10.21369 -10.21367 -10.21365 -10.21349 -10.21345
 Alpha  occ. eigenvalues --  -10.21343 -10.21315 -10.21312 -10.21310 -10.21251
 Alpha  occ. eigenvalues --  -10.21247 -10.21245  -9.47127  -9.47124  -9.47122
 Alpha  occ. eigenvalues --   -7.23522  -7.23518  -7.23517  -7.22557  -7.22554
 Alpha  occ. eigenvalues --   -7.22552  -7.22520  -7.22516  -7.22515  -6.56809
 Alpha  occ. eigenvalues --   -4.73070  -4.73069  -4.72564  -0.89964  -0.89792
 Alpha  occ. eigenvalues --   -0.89789  -0.85153  -0.84238  -0.84235  -0.76898
 Alpha  occ. eigenvalues --   -0.76781  -0.76779  -0.76742  -0.73907  -0.73904
 Alpha  occ. eigenvalues --   -0.65058  -0.63150  -0.62987  -0.62986  -0.60497
 Alpha  occ. eigenvalues --   -0.60495  -0.57615  -0.52432  -0.52430  -0.49746
 Alpha  occ. eigenvalues --   -0.48088  -0.47999  -0.47998  -0.47167  -0.47167
 Alpha  occ. eigenvalues --   -0.46321  -0.44340  -0.44246  -0.44244  -0.42726
 Alpha  occ. eigenvalues --   -0.42723  -0.40320  -0.40239  -0.40236  -0.39581
 Alpha  occ. eigenvalues --   -0.37220  -0.37218  -0.37129  -0.35191  -0.35185
 Alpha  occ. eigenvalues --   -0.34135  -0.33462  -0.33457  -0.31868  -0.31863
 Alpha  occ. eigenvalues --   -0.31860  -0.27684  -0.27414  -0.27144  -0.27139
 Alpha  occ. eigenvalues --   -0.25832  -0.25824  -0.22677
 Alpha virt. eigenvalues --   -0.03961  -0.03952  -0.03033  -0.01964  -0.01790
 Alpha virt. eigenvalues --   -0.01782   0.02241   0.02245   0.02402   0.05586
 Alpha virt. eigenvalues --    0.05599   0.10344   0.12155   0.12344   0.12346

 Mulliken charges:
               1
     1  C   -0.119097
     2  C   -0.152163
     3  C   -0.079536
     4  C   -0.154428
     5  C   -0.113947
     6  C   -0.067012
     7  Cl   0.010398
     8  P    0.446453
     9  C   -0.109662
    10  C   -0.153899
    11  C   -0.121871
    12  C   -0.081612
    13  C   -0.114872
    14  C   -0.171362
    15  Cl  -0.012381
    16  C   -0.126512
    17  C   -0.175927
    18  C   -0.116466
    19  C   -0.102346
    20  C   -0.125709
    21  C   -0.165646
    22  Cl  -0.047273
    23  H    0.168643
    24  H    0.161196
    25  H    0.171871
    26  H    0.171306
    27  H    0.172384
    28  H    0.161996
    29  H    0.157192
    30  H    0.142615
    31  H    0.129617
    32  H    0.145755
    33  H    0.143309
    34  H    0.128986
 Sum of Mulliken charges =  -0.00000

 Dipole moment (field-independent basis, Debye):
    X=              1.4050    Y=             -3.9908    Z=              1.9740  Tot=              4.6687
 Quadrupole moment (field-independent basis, Debye-Ang):
   XX=           -170.2900   YY=           -164.8131   ZZ=           -145.0424
   XY=              8.5981   XZ=             -0.9500   YZ=              0.4720

 Summary of Natural Population Analysis:

                                       Natural Population
                Natural  -----------------------------------------------
    Atom  No    Charge         Core      Valence    Rydberg      Total
 -----------------------------------------------------------------------
      C    1   -0.25184      1.99893     4.23719    0.01572     6.25184
      C    2   -0.18568      1.99901     4.17161    0.01506     6.18568
      C    3   -0.37984      1.99890     4.35674    0.02420     6.37984
      C    4   -0.20916      1.99899     4.19388    0.01628     6.20916
      C    5   -0.23616      1.99892     4.22210    0.01514     6.23616
      C    6   -0.02246      1.99855     4.00165    0.02225     6.02246
     Cl    7    0.02403      9.99967     6.95690    0.01940    16.97597
      P    8    1.21203      9.99758     3.74054    0.04984    13.78797
      C    9   -0.43623      1.99889     4.41117    0.02617     6.43623
      C   10   -0.20449      1.99899     4.18884    0.01666     6.20449
      C   11   -0.25022      1.99893     4.23544    0.01585     6.25022
      C   12   -0.05220      1.99854     4.03136    0.02229     6.05220
      C   13   -0.24425      1.99893     4.22980    0.01551     6.24425
      C   14   -0.21783      1.99902     4.20298    0.01583     6.21783
     Cl   15    0.00716      9.99967     6.97324    0.01993    16.99284
      C   16   -0.47897      1.99886     4.45527    0.02484     6.47897
      C   17   -0.25553      1.99899     4.23876    0.01779     6.25553
      C   18   -0.24065      1.99893     4.22594    0.01577     6.24065
      C   19   -0.09500      1.99854     4.07426    0.02219     6.09500
      C   20   -0.26431      1.99894     4.24872    0.01665     6.26431
      C   21   -0.21302      1.99901     4.19799    0.01602     6.21302
     Cl   22   -0.01928      9.99968     6.99909    0.02052    17.01928
      H   23    0.26076      0.00000     0.73820    0.00104     0.73924
      H   24    0.25042      0.00000     0.74837    0.00121     0.74958
      H   25    0.25993      0.00000     0.73887    0.00120     0.74007
      H   26    0.26213      0.00000     0.73682    0.00105     0.73787
      H   27    0.25978      0.00000     0.73880    0.00142     0.74022
      H   28    0.25802      0.00000     0.74092    0.00106     0.74198
      H   29    0.25477      0.00000     0.74413    0.00110     0.74523
      H   30    0.23944      0.00000     0.75956    0.00100     0.76056
      H   31    0.23607      0.00000     0.76251    0.00142     0.76393
      H   32    0.25020      0.00000     0.74875    0.00104     0.74980
      H   33    0.24896      0.00000     0.75000    0.00104     0.75104
      H   34    0.23337      0.00000     0.76564    0.00098     0.76663
 =======================================================================
   * Total *    0.00000     75.97648   109.56604    0.45748   186.00000

 Normal termination of Gaussian 16 at Sun Aug 23 02:04:28 2020.
