 Gaussian 16, Revision A.03,

 ---------------------------------
 # opt=CalcAll B3LYP/6-31G* scf=qc
 ---------------------------------

 -------------------
 Title Card Required
 -------------------
 Symbolic Z-matrix:
 Charge =  0 Multiplicity = 1

 SCF Done:  E(RB3LYP) =  -814.890673707     a.u. after    7 cycles
 SCF Done:  E(RB3LYP) =  -814.893691547     a.u. after   13 cycles
 SCF Done:  E(RB3LYP) =  -814.906831016     a.u. after   11 cycles
 SCF Done:  E(RB3LYP) =  -814.909034801     a.u. after   13 cycles
 SCF Done:  E(RB3LYP) =  -814.909372778     a.u. after   11 cycles
 SCF Done:  E(RB3LYP) =  -814.909434307     a.u. after    9 cycles
 SCF Done:  E(RB3LYP) =  -814.909495702     a.u. after   13 cycles
 SCF Done:  E(RB3LYP) =  -814.909348593     a.u. after   13 cycles
 SCF Done:  E(RB3LYP) =  -814.909469428     a.u. after   13 cycles
 SCF Done:  E(RB3LYP) =  -814.908724059     a.u. after   15 cycles
 SCF Done:  E(RB3LYP) =  -814.909255450     a.u. after   13 cycles
 SCF Done:  E(RB3LYP) =  -814.909461279     a.u. after   11 cycles
 SCF Done:  E(RB3LYP) =  -814.909397425     a.u. after   15 cycles
 SCF Done:  E(RB3LYP) =  -814.909611775     a.u. after    7 cycles
 SCF Done:  E(RB3LYP) =  -814.909630728     a.u. after    7 cycles
 SCF Done:  E(RB3LYP) =  -814.909637724     a.u. after    4 cycles
 SCF Done:  E(RB3LYP) =  -814.909638174     a.u. after    2 cycles
 SCF Done:  E(RB3LYP) =  -814.909638194     a.u. after    2 cycles
 Optimization completed.
    -- Stationary point found.
 Normal termination of Gaussian 16 at Sun Aug 23 10:17:21 2020.

 ----------------------------------------------------------------------
 # freq B3LYP/6-31G* scf=qc volume NMR pop=NPA density=current Geom=All
 Check Guess=Read
 ----------------------------------------------------------------------

 Structure from the checkpoint file:  "phosphine_2_conf242.chk"
 -------------------
 Title Card Required
 -------------------
 Charge =  0 Multiplicity = 1

 SCF Done:  E(RB3LYP) =  -814.909638194     a.u. after    1 cycles

      1  C    Isotropic =   175.9358   Anisotropy =    19.1001

      2  C    Isotropic =   163.8706   Anisotropy =    17.1523

      3  C    Isotropic =   160.6083   Anisotropy =    21.6365

      4  C    Isotropic =   159.2044   Anisotropy =    25.3149

      5  H    Isotropic =    31.0829   Anisotropy =     4.3631

      6  H    Isotropic =    30.6413   Anisotropy =     7.2353

      7  P    Isotropic =   403.0140   Anisotropy =    46.5128

      8  C    Isotropic =   159.0400   Anisotropy =    30.5806

      9  H    Isotropic =    30.4285   Anisotropy =     4.7470

     10  H    Isotropic =    30.8811   Anisotropy =     5.6071

     11  C    Isotropic =   159.6462   Anisotropy =    12.8318

     12  C    Isotropic =   167.9818   Anisotropy =    12.2971

     13  C    Isotropic =   176.4518   Anisotropy =    18.6872

     14  C    Isotropic =   154.2228   Anisotropy =    29.1518

     15  H    Isotropic =    30.4852   Anisotropy =     5.9556

     16  H    Isotropic =    31.0205   Anisotropy =     6.3861

     17  C    Isotropic =   159.7993   Anisotropy =    22.9953

     18  C    Isotropic =   163.0859   Anisotropy =    18.4362

     19  C    Isotropic =   175.7307   Anisotropy =    18.4911

     20  H    Isotropic =    31.1583   Anisotropy =    10.3617

     21  H    Isotropic =    30.9798   Anisotropy =     6.1356

     22  H    Isotropic =    31.4311   Anisotropy =     8.2740

     23  H    Isotropic =    30.8216   Anisotropy =     6.7368

     24  H    Isotropic =    30.4647   Anisotropy =     8.9150

     25  H    Isotropic =    30.6215   Anisotropy =     7.0414

     26  H    Isotropic =    30.6478   Anisotropy =     5.8399

     27  H    Isotropic =    30.4416   Anisotropy =     7.3465

     28  H    Isotropic =    30.5517   Anisotropy =     8.5675

     29  H    Isotropic =    30.1444   Anisotropy =     5.2636

     30  H    Isotropic =    30.8079   Anisotropy =     9.4692

     31  H    Isotropic =    31.0122   Anisotropy =     6.5370

     32  H    Isotropic =    31.1945   Anisotropy =    10.1684

     33  H    Isotropic =    31.5707   Anisotropy =     9.0583

     34  H    Isotropic =    30.6836   Anisotropy =     5.7718

     35  H    Isotropic =    30.3990   Anisotropy =     5.7485

     36  H    Isotropic =    30.4661   Anisotropy =     9.0890

     37  H    Isotropic =    30.8001   Anisotropy =     7.2432

     38  H    Isotropic =    31.4645   Anisotropy =     7.6906

     39  H    Isotropic =    31.1490   Anisotropy =    10.4434

     40  H    Isotropic =    30.9608   Anisotropy =     5.9357

  Exact polarizability: 175.242   0.003 160.604  -0.461   2.139 126.274
 Approx polarizability: 214.950   1.172 211.023  -0.864   5.145 196.899

                      1                      2                      3
                      A                      A                      A
 Frequencies --     22.8857                34.3566                36.8876
 Red. masses --      2.9706                 2.4315                 2.7226
 Frc consts  --      0.0009                 0.0017                 0.0022
 IR Inten    --      0.0018                 0.0036                 0.0040

                      4                      5                      6
                      A                      A                      A
 Frequencies --     40.8560                51.9577                64.3262
 Red. masses --      2.7294                 2.6639                 3.0166
 Frc consts  --      0.0027                 0.0042                 0.0074
 IR Inten    --      0.0378                 0.0667                 0.0201

                      7                      8                      9
                      A                      A                      A
 Frequencies --     85.0311               125.8727               128.3889
 Red. masses --      2.6722                 2.0040                 1.9635
 Frc consts  --      0.0114                 0.0187                 0.0191
 IR Inten    --      0.1316                 0.1009                 0.3292

                     10                     11                     12
                      A                      A                      A
 Frequencies --    142.8606               172.4349               187.2569
 Red. masses --      1.7483                 2.5356                 1.6216
 Frc consts  --      0.0210                 0.0444                 0.0335
 IR Inten    --      0.3820                 0.3954                 0.2669

                     13                     14                     15
                      A                      A                      A
 Frequencies --    209.2183               231.9894               240.5830
 Red. masses --      1.9255                 1.4892                 2.9379
 Frc consts  --      0.0497                 0.0472                 0.1002
 IR Inten    --      0.0300                 0.1635                 0.1542

                     16                     17                     18
                      A                      A                      A
 Frequencies --    255.3733               274.6207               296.6055
 Red. masses --      1.6208                 1.5272                 1.7868
 Frc consts  --      0.0623                 0.0679                 0.0926
 IR Inten    --      0.1332                 0.2916                 0.0972

                     19                     20                     21
                      A                      A                      A
 Frequencies --    324.8650               326.4179               372.7015
 Red. masses --      2.2221                 2.4150                 2.1494
 Frc consts  --      0.1382                 0.1516                 0.1759
 IR Inten    --      1.0891                 0.0658                 0.3026

                     22                     23                     24
                      A                      A                      A
 Frequencies --    428.4306               443.2041               463.4677
 Red. masses --      2.3561                 2.2773                 2.5384
 Frc consts  --      0.2548                 0.2636                 0.3213
 IR Inten    --      1.2322                 1.5314                 2.6319

                     25                     26                     27
                      A                      A                      A
 Frequencies --    617.2780               696.3939               722.7154
 Red. masses --      2.9480                 2.2736                 1.5925
 Frc consts  --      0.6618                 0.6496                 0.4901
 IR Inten    --      5.7513                 6.3422                 6.8954

                     28                     29                     30
                      A                      A                      A
 Frequencies --    735.1812               758.3194               765.5619
 Red. masses --      1.4778                 1.7476                 1.3822
 Frc consts  --      0.4706                 0.5921                 0.4773
 IR Inten    --      8.5138                 2.7256                 6.6591

                     31                     32                     33
                      A                      A                      A
 Frequencies --    786.4754               791.4993               800.9730
 Red. masses --      1.4298                 1.4148                 1.5967
 Frc consts  --      0.5211                 0.5222                 0.6035
 IR Inten    --      5.3407                 2.9190                 1.7824

                     34                     35                     36
                      A                      A                      A
 Frequencies --    871.6358               875.2835               884.1873
 Red. masses --      2.5520                 2.2061                 1.8443
 Frc consts  --      1.1424                 0.9958                 0.8495
 IR Inten    --      0.4348                 2.1318                 3.5440

                     37                     38                     39
                      A                      A                      A
 Frequencies --    898.6152               923.6303               939.4457
 Red. masses --      1.3725                 1.4224                 1.4605
 Frc consts  --      0.6530                 0.7149                 0.7594
 IR Inten    --      0.3180                 4.4697                 4.0339

                     40                     41                     42
                      A                      A                      A
 Frequencies --    980.4939               985.9350               992.6091
 Red. masses --      2.0883                 1.8257                 1.9063
 Frc consts  --      1.1829                 1.0456                 1.1066
 IR Inten    --      8.1754                 4.6514                 0.0872

                     43                     44                     45
                      A                      A                      A
 Frequencies --   1054.9252              1066.4794              1075.0664
 Red. masses --      1.4576                 1.4466                 1.9929
 Frc consts  --      0.9557                 0.9694                 1.3571
 IR Inten    --      1.4588                 0.6989                 3.8631

                     46                     47                     48
                      A                      A                      A
 Frequencies --   1084.4965              1087.3284              1100.0928
 Red. masses --      1.9410                 1.7258                 1.3710
 Frc consts  --      1.3450                 1.2021                 0.9776
 IR Inten    --      0.2083                 0.8320                 3.1947

                     49                     50                     51
                      A                      A                      A
 Frequencies --   1110.7719              1120.3816              1128.4800
 Red. masses --      1.5912                 1.8507                 1.8194
 Frc consts  --      1.1567                 1.3687                 1.3651
 IR Inten    --      1.8452                 2.4481                 3.1044

                     52                     53                     54
                      A                      A                      A
 Frequencies --   1204.6145              1225.0276              1228.5146
 Red. masses --      1.3884                 1.4941                 1.4114
 Frc consts  --      1.1870                 1.3211                 1.2550
 IR Inten    --      3.0273                 4.8903                 1.5535

                     55                     56                     57
                      A                      A                      A
 Frequencies --   1246.8348              1254.2443              1265.2791
 Red. masses --      1.4015                 1.4057                 1.3468
 Frc consts  --      1.2837                 1.3029                 1.2704
 IR Inten    --      0.3962                 3.4680                 3.6379

                     58                     59                     60
                      A                      A                      A
 Frequencies --   1314.7345              1317.9383              1321.0632
 Red. masses --      1.2366                 1.2002                 1.2140
 Frc consts  --      1.2594                 1.2283                 1.2483
 IR Inten    --      2.2284                 1.8261                 1.7334

                     61                     62                     63
                      A                      A                      A
 Frequencies --   1336.1727              1339.9080              1342.8937
 Red. masses --      1.1467                 1.1495                 1.1546
 Frc consts  --      1.2062                 1.2159                 1.2268
 IR Inten    --      0.1513                 3.6310                 3.7261

                     64                     65                     66
                      A                      A                      A
 Frequencies --   1392.2220              1394.4706              1396.9565
 Red. masses --      1.3990                 1.4167                 1.3389
 Frc consts  --      1.5977                 1.6231                 1.5394
 IR Inten    --      2.3185                 0.1766                16.5800

                     67                     68                     69
                      A                      A                      A
 Frequencies --   1398.9361              1400.3813              1403.1111
 Red. masses --      1.3316                 1.3484                 1.4438
 Frc consts  --      1.5354                 1.5580                 1.6747
 IR Inten    --      7.9786                 0.9038                 6.8819

                     70                     71                     72
                      A                      A                      A
 Frequencies --   1441.7737              1442.2647              1442.9229
 Red. masses --      1.2608                 1.2603                 1.2614
 Frc consts  --      1.5442                 1.5445                 1.5473
 IR Inten    --      5.1434                 6.0253                 5.9076

                     73                     74                     75
                      A                      A                      A
 Frequencies --   1484.7489              1495.2046              1498.1928
 Red. masses --      1.0861                 1.0837                 1.0884
 Frc consts  --      1.4107                 1.4275                 1.4393
 IR Inten    --      1.0701                 4.2665                 2.2382

                     76                     77                     78
                      A                      A                      A
 Frequencies --   1516.1292              1516.7116              1517.5486
 Red. masses --      1.0769                 1.0744                 1.0705
 Frc consts  --      1.4585                 1.4562                 1.4525
 IR Inten    --      3.0727                 0.6770                 0.6547

                     79                     80                     81
                      A                      A                      A
 Frequencies --   1519.1482              1520.1340              1521.9270
 Red. masses --      1.0727                 1.0777                 1.0777
 Frc consts  --      1.4586                 1.4672                 1.4708
 IR Inten    --      1.4882                 1.8670                 1.6697

                     82                     83                     84
                      A                      A                      A
 Frequencies --   1532.1237              1532.4017              1533.4804
 Red. masses --      1.0540                 1.0521                 1.0599
 Frc consts  --      1.4577                 1.4557                 1.4685
 IR Inten    --      7.0764                 8.1364                 0.5425

                     85                     86                     87
                      A                      A                      A
 Frequencies --   1538.1337              1538.3914              1538.4997
 Red. masses --      1.0606                 1.0601                 1.0581
 Frc consts  --      1.4784                 1.4782                 1.4756
 IR Inten    --      6.5861                 2.9360                 5.7007

                     88                     89                     90
                      A                      A                      A
 Frequencies --   3014.6237              3015.6182              3018.6187
 Red. masses --      1.0626                 1.0657                 1.0586
 Frc consts  --      5.6898                 5.7102                 5.6834
 IR Inten    --      5.4974                21.6889                10.7649

                     91                     92                     93
                      A                      A                      A
 Frequencies --   3024.4318              3026.2135              3028.8705
 Red. masses --      1.0626                 1.0620                 1.0624
 Frc consts  --      5.7267                 5.7303                 5.7427
 IR Inten    --     41.7879                30.8449                44.3894

                     94                     95                     96
                      A                      A                      A
 Frequencies --   3029.4696              3031.7894              3037.6045
 Red. masses --      1.0624                 1.0631                 1.0647
 Frc consts  --      5.7446                 5.7572                 5.7880
 IR Inten    --     27.1703                20.7454                17.9710

                     97                     98                     99
                      A                      A                      A
 Frequencies --   3041.6031              3042.9664              3043.9059
 Red. masses --      1.0392                 1.0382                 1.0377
 Frc consts  --      5.6645                 5.6639                 5.6647
 IR Inten    --     26.7043                24.4694                23.0722

                    100                    101                    102
                      A                      A                      A
 Frequencies --   3055.5829              3056.3369              3059.6339
 Red. masses --      1.0990                 1.0988                 1.0988
 Frc consts  --      6.0458                 6.0472                 6.0606
 IR Inten    --      1.4306                21.9215                23.3267

                    103                    104                    105
                      A                      A                      A
 Frequencies --   3062.2772              3063.4818              3074.0301
 Red. masses --      1.0992                 1.0955                 1.0996
 Frc consts  --      6.0730                 6.0575                 6.1219
 IR Inten    --     28.3587                25.8558                12.7384

                    106                    107                    108
                      A                      A                      A
 Frequencies --   3078.2333              3082.3130              3085.2272
 Red. masses --      1.1035                 1.1010                 1.0986
 Frc consts  --      6.1607                 6.1627                 6.1611
 IR Inten    --     25.9984                79.5857                51.8877

                    109                    110                    111
                      A                      A                      A
 Frequencies --   3106.3967              3106.6490              3108.0392
 Red. masses --      1.1012                 1.1014                 1.1017
 Frc consts  --      6.2608                 6.2629                 6.2702
 IR Inten    --     34.2560                60.7625                48.4440

                    112                    113                    114
                      A                      A                      A
 Frequencies --   3112.2344              3114.6379              3114.9503
 Red. masses --      1.1016                 1.1018                 1.1019
 Frc consts  --      6.2865                 6.2974                 6.2991
 IR Inten    --     55.9661                79.4970                29.9313

 - Thermochemistry -
 -------------------
 Temperature   298.150 Kelvin.  Pressure   1.00000 Atm.
 Atom     1 has atomic number  6 and mass  12.00000

 Molecular mass:   202.18504 amu.
 Principal axes and moments of inertia in atomic units:
                           1         2         3
     Eigenvalues --  3247.751424894.907417600.11430
           X            0.99999  -0.00373   0.00234
           Y            0.00373   0.99999  -0.00123
           Z           -0.00233   0.00124   1.00000
 This molecule is an asymmetric top.
 Rotational symmetry number  1.
 Warning -- assumption of classical behavior for rotation
           may cause significant error
 Rotational temperatures (Kelvin)      0.02667     0.01769     0.01140
 Rotational constants (GHZ):           0.55569     0.36870     0.23746
 Zero-point vibrational energy     977131.5 (Joules/Mol)
                                  233.54003 (Kcal/Mol)
 Warning -- explicit consideration of  25 degrees of freedom as
           vibrations may cause significant error
 Vibrational temperatures:     32.93    49.43    53.07    58.78    74.76
          (Kelvin)             92.55   122.34   181.10   184.72   205.54
                              248.10   269.42   301.02   333.78   346.15
                              367.43   395.12   426.75   467.41   469.64
                              536.23   616.42   637.67   666.83   888.13
                             1001.96  1039.83  1057.76  1091.05  1101.47
                             1131.56  1138.79  1152.42  1254.09  1259.34
                             1272.15  1292.91  1328.90  1351.65  1410.71
                             1418.54  1428.14  1517.80  1534.43  1546.78
                             1560.35  1564.42  1582.79  1598.15  1611.98
                             1623.63  1733.17  1762.54  1767.56  1793.92
                             1804.58  1820.45  1891.61  1896.22  1900.72
                             1922.45  1927.83  1932.12  2003.10  2006.33
                             2009.91  2012.76  2014.84  2018.76  2074.39
                             2075.10  2076.04  2136.22  2151.27  2155.57
                             2181.37  2182.21  2183.41  2185.72  2187.13
                             2189.71  2204.38  2204.78  2206.34  2213.03
                             2213.40  2213.56  4337.37  4338.80  4343.12
                             4351.48  4354.05  4357.87  4358.73  4362.07
                             4370.44  4376.19  4378.15  4379.50  4396.30
                             4397.39  4402.13  4405.93  4407.67  4422.84
                             4428.89  4434.76  4438.95  4469.41  4469.78
                             4471.78  4477.81  4481.27  4481.72

 Zero-point correction=                           0.372170 (Hartree/Particle)
 Thermal correction to Energy=                    0.390768
 Thermal correction to Enthalpy=                  0.391713
 Thermal correction to Gibbs Free Energy=         0.322793
 Sum of electronic and zero-point Energies=           -814.537468
 Sum of electronic and thermal Energies=              -814.518870
 Sum of electronic and thermal Enthalpies=            -814.517926
 Sum of electronic and thermal Free Energies=         -814.586845

                     E (Thermal)             CV                S
                      KCal/Mol        Cal/Mol-Kelvin    Cal/Mol-Kelvin
 Total                  245.211             66.186            145.053
 Electronic               0.000              0.000              0.000
 Translational            0.889              2.981             41.817
 Rotational               0.889              2.981             33.157
 Vibrational            243.433             60.225             70.080
 Vibration     1          0.593              1.985              6.367
 Vibration     2          0.594              1.983              5.561
 Vibration     3          0.594              1.982              5.420
 Vibration     4          0.594              1.981              5.217
 Vibration     5          0.596              1.977              4.741
 Vibration     6          0.597              1.971              4.320
 Vibration     7          0.601              1.960              3.771
 Vibration     8          0.611              1.927              3.008
 Vibration     9          0.611              1.925              2.970
 Vibration    10          0.616              1.910              2.765
 Vibration    11          0.626              1.876              2.409
 Vibration    12          0.632              1.857              2.255
 Vibration    13          0.642              1.827              2.050
 Vibration    14          0.653              1.792              1.863
 Vibration    15          0.658              1.778              1.799
 Vibration    16          0.666              1.754              1.693
 Vibration    17          0.677              1.720              1.567
 Vibration    18          0.690              1.680              1.436
 Vibration    19          0.709              1.626              1.286
 Vibration    20          0.710              1.623              1.278
 Vibration    21          0.744              1.528              1.069
 Vibration    22          0.790              1.408              0.864
 Vibration    23          0.803              1.376              0.817
 Vibration    24          0.821              1.331              0.756
 Vibration    25          0.977              0.995              0.421

 Optimization completed.
    -- Stationary point found.
 Normal termination of Gaussian 16 at Sun Aug 23 10:24:17 2020.
 Gaussian 16:  ES64L-G16RevA.03 25-Dec-2016

 ----------------------------------------------------------------------
 # TD(NStates=10, Root=1) B3LYP/6-31G* scf=qc volume pop=NPA density=cu
 rrent Geom=AllCheck Guess=Read
 ----------------------------------------------------------------------

 Structure from the checkpoint file:  "phosphine_2_conf243.chk"
 -------------------
 Title Card Required
 -------------------
 Charge =  0 Multiplicity = 1

                         Standard orientation:
 ---------------------------------------------------------------------
 Center     Atomic      Atomic             Coordinates (Angstroms)
 Number     Number       Type             X           Y           Z
 ---------------------------------------------------------------------
      1          6           0       -4.057020   -2.812456   -0.204039
      2          6           0       -3.914449   -1.445954    0.476154
      3          6           0       -2.796510   -0.559663   -0.102072
      4          6           0       -1.379368   -1.117253    0.104098
      5          1           0       -1.203162   -1.321649    1.170907
      6          1           0       -1.274686   -2.075034   -0.421153
      7         15           0       -0.030541    0.003116   -0.573945
      8          6           0        0.096877    1.222282    0.861363
      9          1           0       -0.928619    1.440681    1.184101
     10          1           0        0.583867    0.723492    1.711162
     11          6           0        0.826239    2.542000    0.541671
     12          6           0        0.120233    3.459465   -0.471956
     13          6           0       -1.220561    4.024601    0.011815
     14          6           0        1.437040   -1.119570   -0.225458
     15          1           0        1.421478   -1.432883    0.827544
     16          1           0        1.273271   -2.025187   -0.827383
     17          6           0        2.800323   -0.513558   -0.595099
     18          6           0        3.974891   -1.504489   -0.504317
     19          6           0        4.277032   -2.006430    0.912494
     20          1           0       -4.901221   -3.373098    0.213411
     21          1           0       -3.159904   -3.428775   -0.076631
     22          1           0       -4.232384   -2.700096   -1.281390
     23          1           0       -3.742259   -1.588648    1.552680
     24          1           0       -4.866331   -0.904445    0.389821
     25          1           0       -2.869892    0.434031    0.361448
     26          1           0       -2.971953   -0.406344   -1.175956
     27          1           0        1.835968    2.321433    0.171804
     28          1           0        0.965148    3.096494    1.481939
     29          1           0       -0.029133    2.914919   -1.412984
     30          1           0        0.793848    4.295584   -0.703627
     31          1           0       -1.965835    3.236775    0.171213
     32          1           0       -1.639222    4.722223   -0.722572
     33          1           0       -1.104391    4.568179    0.958310
     34          1           0        3.012567    0.346701    0.054989
     35          1           0        2.749508   -0.119014   -1.618766
     36          1           0        4.872558   -1.016727   -0.908149
     37          1           0        3.772760   -2.362176   -1.161890
     38          1           0        4.485722   -1.169535    1.591093
     39          1           0        5.153451   -2.664584    0.918194
     40          1           0        3.438603   -2.572907    1.333145
 ---------------------------------------------------------------------

 SCF Done:  E(RB3LYP) =  -814.909638194     a.u. after    1 cycles

 Excitation energies and oscillator strengths:

 Excited State   1:      Singlet-A      6.4281 eV  192.88 nm  f=0.1295  <S**2>=0.000
      57 -> 58         0.69554
 This state for optimization and/or second-order correction.
 Total Energy, E(TD-HF/TD-DFT) =  -814.673410034
 Copying the excited state density for this state as the 1-particle RhoCI density.

 Excited State   2:      Singlet-A      6.7310 eV  184.20 nm  f=0.1390  <S**2>=0.000
      57 -> 59         0.69180

 Excited State   3:      Singlet-A      7.0919 eV  174.82 nm  f=0.0119  <S**2>=0.000
      57 -> 60         0.69736

 Excited State   4:      Singlet-A      7.6239 eV  162.63 nm  f=0.0178  <S**2>=0.000
      57 -> 61         0.69050

 Excited State   5:      Singlet-A      7.7668 eV  159.63 nm  f=0.0014  <S**2>=0.000
      57 -> 62         0.65599
      57 -> 63        -0.18310
      57 -> 65        -0.10806

 Excited State   6:      Singlet-A      7.9700 eV  155.56 nm  f=0.0042  <S**2>=0.000
      57 -> 62         0.20082
      57 -> 63         0.64472
      57 -> 64         0.11909

 Excited State   7:      Singlet-A      8.1635 eV  151.88 nm  f=0.0221  <S**2>=0.000
      55 -> 58        -0.21508
      56 -> 58         0.16223
      57 -> 64         0.62456

 Excited State   8:      Singlet-A      8.2074 eV  151.06 nm  f=0.0133  <S**2>=0.000
      55 -> 58         0.50863
      56 -> 58        -0.13688
      56 -> 59        -0.31475
      57 -> 64         0.22452
      57 -> 65        -0.22431

 Excited State   9:      Singlet-A      8.2718 eV  149.89 nm  f=0.0503  <S**2>=0.000
      56 -> 58        -0.17794
      56 -> 59        -0.23136
      57 -> 63        -0.12603
      57 -> 64         0.16055
      57 -> 65         0.59401

 Excited State  10:      Singlet-A      8.3610 eV  148.29 nm  f=0.0347  <S**2>=0.000
      55 -> 58         0.17279
      55 -> 59        -0.13690
      56 -> 58         0.61105
      56 -> 59        -0.12470
      57 -> 65         0.15758

 The electronic state is 1-A.
 Alpha  occ. eigenvalues --  -77.06347 -10.18040 -10.18019 -10.18018 -10.17997
 Alpha  occ. eigenvalues --  -10.17952 -10.17932 -10.17916 -10.17859 -10.17277
 Alpha  occ. eigenvalues --  -10.17205 -10.17168 -10.16857  -6.53124  -4.69372
 Alpha  occ. eigenvalues --   -4.69370  -4.68883  -0.79906  -0.78954  -0.78570
 Alpha  occ. eigenvalues --   -0.74021  -0.71341  -0.71072  -0.66036  -0.63315
 Alpha  occ. eigenvalues --   -0.63044  -0.57675  -0.56349  -0.56106  -0.51741
 Alpha  occ. eigenvalues --   -0.46283  -0.45828  -0.45132  -0.44951  -0.44119
 Alpha  occ. eigenvalues --   -0.43283  -0.42002  -0.41064  -0.39623  -0.38863
 Alpha  occ. eigenvalues --   -0.38743  -0.38348  -0.37812  -0.36300  -0.35992
 Alpha  occ. eigenvalues --   -0.35592  -0.33999  -0.33271  -0.32947  -0.32687
 Alpha  occ. eigenvalues --   -0.32293  -0.32117  -0.31816  -0.31605  -0.28999
 Alpha  occ. eigenvalues --   -0.28423  -0.21410
 Alpha virt. eigenvalues --    0.05133   0.06044   0.07685   0.09716   0.10278
 Alpha virt. eigenvalues --    0.10836   0.11338   0.11953   0.13166   0.13926
 Alpha virt. eigenvalues --    0.14229   0.14663   0.14988   0.15367   0.16290

 Mulliken charges:
               1
     1  C   -0.433238
     2  C   -0.244931
     3  C   -0.232248
     4  C   -0.411311
     5  H    0.143031
     6  H    0.141119
     7  P    0.292904
     8  C   -0.423340
     9  H    0.178295
    10  H    0.179997
    11  C   -0.238172
    12  C   -0.252224
    13  C   -0.446621
    14  C   -0.421952
    15  H    0.170202
    16  H    0.145311
    17  C   -0.219396
    18  C   -0.251775
    19  C   -0.436500
    20  H    0.135314
    21  H    0.133301
    22  H    0.137309
    23  H    0.123818
    24  H    0.123910
    25  H    0.117646
    26  H    0.125295
    27  H    0.128933
    28  H    0.118799
    29  H    0.149419
    30  H    0.135698
    31  H    0.143484
    32  H    0.143520
    33  H    0.140109
    34  H    0.124946
    35  H    0.120560
    36  H    0.125976
    37  H    0.125468
    38  H    0.136521
    39  H    0.138121
    40  H    0.132702
 Sum of Mulliken charges =  -0.00000

 Dipole moment (field-independent basis, Debye):
    X=              0.1021    Y=              0.1068    Z=              0.9725  Tot=              0.9837
 Quadrupole moment (field-independent basis, Debye-Ang):
   XX=           -100.0022   YY=            -95.8657   ZZ=            -94.6137
   XY=             -0.5275   XZ=              0.4692   YZ=              1.0206

 Summary of Natural Population Analysis:

                                       Natural Population
                Natural  -----------------------------------------------
    Atom  No    Charge         Core      Valence    Rydberg      Total
 -----------------------------------------------------------------------
      C    1   -0.67751      1.99946     4.67033    0.00773     6.67751
      C    2   -0.45238      1.99935     4.44188    0.01115     6.45238
      C    3   -0.45993      1.99932     4.44773    0.01288     6.45993
      C    4   -0.85281      1.99932     4.82871    0.02478     6.85281
      H    5    0.24335      0.00000     0.75171    0.00494     0.75665
      H    6    0.23758      0.00000     0.75824    0.00418     0.76242
      P    7    0.98116      9.99765     3.91260    0.10859    14.01884
      C    8   -0.73983      1.99929     4.72219    0.01835     6.73983
      H    9    0.24639      0.00000     0.75070    0.00291     0.75361
      H   10    0.26483      0.00000     0.73135    0.00381     0.73517
      C   11   -0.45891      1.99931     4.44471    0.01488     6.45891
      C   12   -0.45736      1.99935     4.44544    0.01258     6.45736
      C   13   -0.67993      1.99946     4.67191    0.00857     6.67993
      C   14   -0.81526      1.99931     4.79287    0.02308     6.81526
      H   15    0.25627      0.00000     0.74171    0.00202     0.74373
      H   16    0.23868      0.00000     0.75769    0.00363     0.76132
      C   17   -0.46338      1.99932     4.44830    0.01576     6.46338
      C   18   -0.45578      1.99934     4.44481    0.01163     6.45578
      C   19   -0.67709      1.99946     4.67011    0.00753     6.67709
      H   20    0.22721      0.00000     0.77084    0.00195     0.77279
      H   21    0.21740      0.00000     0.77869    0.00391     0.78260
      H   22    0.22180      0.00000     0.77624    0.00196     0.77820
      H   23    0.22294      0.00000     0.77428    0.00277     0.77706
      H   24    0.22674      0.00000     0.76987    0.00338     0.77326
      H   25    0.21937      0.00000     0.77603    0.00460     0.78063
      H   26    0.22445      0.00000     0.76997    0.00557     0.77555
      H   27    0.22702      0.00000     0.76379    0.00919     0.77298
      H   28    0.22612      0.00000     0.76903    0.00485     0.77388
      H   29    0.23244      0.00000     0.76588    0.00168     0.76756
      H   30    0.23627      0.00000     0.76242    0.00130     0.76373
      H   31    0.21990      0.00000     0.77728    0.00282     0.78010
      H   32    0.23283      0.00000     0.76619    0.00099     0.76717
      H   33    0.22350      0.00000     0.77537    0.00113     0.77650
      H   34    0.21847      0.00000     0.77675    0.00478     0.78153
      H   35    0.22702      0.00000     0.76567    0.00731     0.77298
      H   36    0.22831      0.00000     0.76860    0.00309     0.77169
      H   37    0.22347      0.00000     0.77358    0.00295     0.77653
      H   38    0.22110      0.00000     0.77736    0.00154     0.77890
      H   39    0.22861      0.00000     0.76950    0.00188     0.77139
      H   40    0.21695      0.00000     0.78014    0.00291     0.78305
 =======================================================================
   * Total *   -0.00000     33.98995    79.64048    0.36958   114.00000

 Normal termination of Gaussian 16 at Sun Aug 23 10:32:12 2020.
