 Gaussian 16, Revision A.03,

 ---------------------------------
 # opt=CalcAll B3LYP/6-31G* scf=qc
 ---------------------------------

 -------------------
 Title Card Required
 -------------------
 Symbolic Z-matrix:
 Charge =  0 Multiplicity = 1

 SCF Done:  E(RB3LYP) =  -1333.97088473     a.u. after    7 cycles
 SCF Done:  E(RB3LYP) =  -1333.97781192     a.u. after   17 cycles
 SCF Done:  E(RB3LYP) =  -1333.98439378     a.u. after   13 cycles
 SCF Done:  E(RB3LYP) =  -1333.99366350     a.u. after   19 cycles
 SCF Done:  E(RB3LYP) =  -1333.99703845     a.u. after   17 cycles
 SCF Done:  E(RB3LYP) =  -1333.99820027     a.u. after   19 cycles
 SCF Done:  E(RB3LYP) =  -1333.99750822     a.u. after   17 cycles
 SCF Done:  E(RB3LYP) =  -1333.99841546     a.u. after    7 cycles
 SCF Done:  E(RB3LYP) =  -1333.99886714     a.u. after   15 cycles
 SCF Done:  E(RB3LYP) =  -1333.99894891     a.u. after   13 cycles
 SCF Done:  E(RB3LYP) =  -1333.99897583     a.u. after    3 cycles
 SCF Done:  E(RB3LYP) =  -1333.99897655     a.u. after    2 cycles
 SCF Done:  E(RB3LYP) =  -1333.99897567     a.u. after    2 cycles
 SCF Done:  E(RB3LYP) =  -1333.99897847     a.u. after    3 cycles
 SCF Done:  E(RB3LYP) =  -1333.99897971     a.u. after    4 cycles
 SCF Done:  E(RB3LYP) =  -1333.99897859     a.u. after    2 cycles
 SCF Done:  E(RB3LYP) =  -1333.99897663     a.u. after    3 cycles
 SCF Done:  E(RB3LYP) =  -1333.99897663     a.u. after    2 cycles
 Optimization completed.
    -- Stationary point found.
 Normal termination of Gaussian 16 at Sun Aug 23 21:43:52 2020.

 ----------------------------------------------------------------------
 # freq B3LYP/6-31G* scf=qc volume NMR pop=NPA density=current Geom=All
 Check Guess=Read
 ----------------------------------------------------------------------

 Structure from the checkpoint file:  "phosphine_5_conf272.chk"
 -------------------
 Title Card Required
 -------------------
 Charge =  0 Multiplicity = 1

 SCF Done:  E(RB3LYP) =  -1333.99897663     a.u. after    1 cycles

      1  C    Isotropic =    79.9399   Anisotropy =   137.4359

      2  C    Isotropic =    59.0303   Anisotropy =   162.7763

      3  C    Isotropic =    61.6695   Anisotropy =   173.4615

      4  C    Isotropic =    60.6935   Anisotropy =   171.9319

      5  C    Isotropic =    80.0552   Anisotropy =   136.7348

      6  C    Isotropic =    32.6619   Anisotropy =    98.8171

      7  F    Isotropic =   295.7876   Anisotropy =   113.0551

      8  P    Isotropic =   366.1123   Anisotropy =    39.8130

      9  C    Isotropic =    61.5791   Anisotropy =   173.4789

     10  C    Isotropic =    60.6577   Anisotropy =   171.8371

     11  C    Isotropic =    80.0500   Anisotropy =   136.6863

     12  C    Isotropic =    32.6649   Anisotropy =    98.8472

     13  C    Isotropic =    79.9263   Anisotropy =   137.4121

     14  C    Isotropic =    58.9998   Anisotropy =   162.7251

     15  F    Isotropic =   295.7875   Anisotropy =   113.1340

     16  C    Isotropic =    61.5581   Anisotropy =   173.4681

     17  C    Isotropic =    60.7635   Anisotropy =   171.7613

     18  C    Isotropic =    80.0707   Anisotropy =   136.7030

     19  C    Isotropic =    32.6775   Anisotropy =    98.7979

     20  C    Isotropic =    79.9312   Anisotropy =   137.4420

     21  C    Isotropic =    59.0896   Anisotropy =   162.8326

     22  F    Isotropic =   295.8401   Anisotropy =   112.9550

     23  H    Isotropic =    25.3582   Anisotropy =     4.2559

     24  H    Isotropic =    24.6190   Anisotropy =     8.9129

     25  H    Isotropic =    25.3619   Anisotropy =    12.0190

     26  H    Isotropic =    25.4635   Anisotropy =     5.7392

     27  H    Isotropic =    25.3640   Anisotropy =    11.9952

     28  H    Isotropic =    25.4641   Anisotropy =     5.7356

     29  H    Isotropic =    25.3563   Anisotropy =     4.2603

     30  H    Isotropic =    24.6187   Anisotropy =     8.9066

     31  H    Isotropic =    25.3784   Anisotropy =    12.0344

     32  H    Isotropic =    25.4677   Anisotropy =     5.7409

     33  H    Isotropic =    25.3575   Anisotropy =     4.2644

     34  H    Isotropic =    24.6250   Anisotropy =     8.9349

  Exact polarizability: 226.396  -0.092 225.959  -0.149   0.128 167.707
 Approx polarizability: 338.261  -0.199 337.375  -0.338   0.291 314.832

                      1                      2                      3
                      A                      A                      A
 Frequencies --     23.2821                24.0026                37.1856
 Red. masses --      4.0381                 4.0546                 9.1615
 Frc consts  --      0.0013                 0.0014                 0.0075
 IR Inten    --      0.2589                 0.2443                 0.0936

                      4                      5                      6
                      A                      A                      A
 Frequencies --     37.4622                40.2775                50.6268
 Red. masses --      9.0390                 3.7526                 9.9562
 Frc consts  --      0.0075                 0.0036                 0.0150
 IR Inten    --      0.0969                 0.0056                 0.1149

                      7                      8                      9
                      A                      A                      A
 Frequencies --    133.0790               145.3646               145.7662
 Red. masses --      8.0531                 8.3681                 8.3716
 Frc consts  --      0.0840                 0.1042                 0.1048
 IR Inten    --      0.0233                 0.5222                 0.5174

                     10                     11                     12
                      A                      A                      A
 Frequencies --    208.9842               218.8863               219.4927
 Red. masses --      8.0487                 6.9849                 6.9926
 Frc consts  --      0.2071                 0.1972                 0.1985
 IR Inten    --      0.2893                 0.5268                 0.5266

                     13                     14                     15
                      A                      A                      A
 Frequencies --    307.9551               336.0332               336.0933
 Red. masses --      8.4357                 8.3104                 8.3068
 Frc consts  --      0.4714                 0.5529                 0.5528
 IR Inten    --      1.0302                 0.0462                 0.0425

                     16                     17                     18
                      A                      A                      A
 Frequencies --    397.1777               404.0918               404.2227
 Red. masses --      7.7400                 8.0496                 7.9937
 Frc consts  --      0.7194                 0.7744                 0.7696
 IR Inten    --      0.3030                10.0857                10.0584

                     19                     20                     21
                      A                      A                      A
 Frequencies --    420.5864               420.7339               424.7228
 Red. masses --      3.2813                 3.2791                 3.1345
 Frc consts  --      0.3420                 0.3420                 0.3331
 IR Inten    --      1.1241                 1.1267                 0.0254

                     22                     23                     24
                      A                      A                      A
 Frequencies --    435.0690               435.1763               463.5255
 Red. masses --      6.1538                 6.1436                 6.6434
 Frc consts  --      0.6863                 0.6855                 0.8410
 IR Inten    --     18.9795                19.0230                 7.3886

                     25                     26                     27
                      A                      A                      A
 Frequencies --    533.0283               533.1449               535.5099
 Red. masses --      2.8106                 2.8110                 2.9069
 Frc consts  --      0.4705                 0.4708                 0.4911
 IR Inten    --     21.7638                21.9201                13.5217

                     28                     29                     30
                      A                      A                      A
 Frequencies --    608.0658               630.0133               630.0619
 Red. masses --      7.9074                 7.8302                 7.8275
 Frc consts  --      1.7226                 1.8311                 1.8308
 IR Inten    --      0.0095                 0.0376                 0.0397

                     31                     32                     33
                      A                      A                      A
 Frequencies --    648.2319               648.3747               648.4688
 Red. masses --      7.2762                 7.3785                 7.3817
 Frc consts  --      1.8014                 1.8275                 1.8289
 IR Inten    --      0.0049                 0.1263                 0.1303

                     34                     35                     36
                      A                      A                      A
 Frequencies --    715.1240               715.6662               715.7517
 Red. masses --      4.8091                 4.8271                 4.8301
 Frc consts  --      1.4490                 1.4567                 1.4579
 IR Inten    --      1.0902                 3.9351                 3.9073

                     37                     38                     39
                      A                      A                      A
 Frequencies --    835.7242               835.8487               836.9336
 Red. masses --      1.2637                 1.2624                 1.3227
 Frc consts  --      0.5200                 0.5196                 0.5459
 IR Inten    --      0.6886                 0.6171                10.8498

                     40                     41                     42
                      A                      A                      A
 Frequencies --    839.5018               839.5697               839.7329
 Red. masses --      3.2576                 3.2948                 3.9623
 Frc consts  --      1.3527                 1.3683                 1.6462
 IR Inten    --     60.1413                61.3448                20.1994

                     43                     44                     45
                      A                      A                      A
 Frequencies --    843.5504               843.6435               844.0937
 Red. masses --      1.9567                 1.9987                 1.7026
 Frc consts  --      0.8203                 0.8381                 0.7147
 IR Inten    --     10.8207                 9.8024                12.1528

                     46                     47                     48
                      A                      A                      A
 Frequencies --    958.4884               958.6799               959.9619
 Red. masses --      1.2559                 1.2558                 1.2579
 Frc consts  --      0.6798                 0.6800                 0.6830
 IR Inten    --      0.1758                 0.1768                 0.3386

                     49                     50                     51
                      A                      A                      A
 Frequencies --    969.7372               969.9579               973.2436
 Red. masses --      1.3360                 1.3356                 1.3206
 Frc consts  --      0.7402                 0.7404                 0.7370
 IR Inten    --      0.0319                 0.0343                 0.3094

                     52                     53                     54
                      A                      A                      A
 Frequencies --   1034.6993              1034.7892              1035.1728
 Red. masses --      3.0263                 3.0300                 3.0232
 Frc consts  --      1.9089                 1.9116                 1.9087
 IR Inten    --      7.9559                 7.9500                 0.1121

                     55                     56                     57
                      A                      A                      A
 Frequencies --   1102.8867              1103.0743              1108.8081
 Red. masses --      3.6619                 3.6669                 3.5535
 Frc consts  --      2.6244                 2.6288                 2.5741
 IR Inten    --     19.2366                19.1820                 1.9038

                     58                     59                     60
                      A                      A                      A
 Frequencies --   1127.4034              1127.7022              1127.9019
 Red. masses --      1.3305                 1.3306                 1.3291
 Frc consts  --      0.9964                 0.9970                 0.9962
 IR Inten    --      1.2992                 1.0234                 6.7242

                     61                     62                     63
                      A                      A                      A
 Frequencies --   1195.1072              1195.5217              1199.4484
 Red. masses --      1.1831                 1.1850                 1.1802
 Frc consts  --      0.9956                 0.9979                 1.0004
 IR Inten    --     60.3221                61.0949                 2.6154

                     64                     65                     66
                      A                      A                      A
 Frequencies --   1285.2617              1285.4280              1286.1868
 Red. masses --      3.7573                 3.7459                 3.7841
 Frc consts  --      3.6569                 3.6468                 3.6882
 IR Inten    --    167.0442               166.7984                38.7555

                     67                     68                     69
                      A                      A                      A
 Frequencies --   1324.1924              1327.3067              1327.6287
 Red. masses --      2.7305                 2.1854                 2.2858
 Frc consts  --      2.8210                 2.2684                 2.3738
 IR Inten    --      8.8597                 3.8789                 3.9454

                     70                     71                     72
                      A                      A                      A
 Frequencies --   1336.5180              1336.8429              1337.1018
 Red. masses --      2.3653                 2.2578                 1.9517
 Frc consts  --      2.4893                 2.3774                 2.0558
 IR Inten    --      0.4025                 0.3341                 0.8762

                     73                     74                     75
                      A                      A                      A
 Frequencies --   1437.9375              1438.1025              1438.1862
 Red. masses --      2.9875                 2.9925                 2.9905
 Frc consts  --      3.6395                 3.6464                 3.6444
 IR Inten    --      6.8152                 3.0278                 2.2854

                     76                     77                     78
                      A                      A                      A
 Frequencies --   1545.4426              1545.6692              1546.4508
 Red. masses --      2.4107                 2.4057                 2.4452
 Frc consts  --      3.3923                 3.3862                 3.4453
 IR Inten    --    115.9275               116.5972                24.6043

                     79                     80                     81
                      A                      A                      A
 Frequencies --   1633.8824              1633.9683              1633.9720
 Red. masses --      6.9768                 6.9614                 6.9653
 Frc consts  --     10.9736                10.9505                10.9567
 IR Inten    --     10.2936                12.0278                12.4635

                     82                     83                     84
                      A                      A                      A
 Frequencies --   1653.4990              1653.5539              1654.3791
 Red. masses --      5.8111                 5.8071                 5.8800
 Frc consts  --      9.3609                 9.3550                 9.4820
 IR Inten    --     83.0191                82.5383                22.5416

                     85                     86                     87
                      A                      A                      A
 Frequencies --   3188.6442              3188.8863              3188.9767
 Red. masses --      1.0892                 1.0892                 1.0892
 Frc consts  --      6.5249                 6.5258                 6.5261
 IR Inten    --      4.8695                 4.6837                 3.8477

                     88                     89                     90
                      A                      A                      A
 Frequencies --   3205.4502              3205.8915              3206.4224
 Red. masses --      1.0878                 1.0878                 1.0879
 Frc consts  --      6.5855                 6.5870                 6.5897
 IR Inten    --      1.8801                 2.0060                 0.5075

                     91                     92                     93
                      A                      A                      A
 Frequencies --   3221.7639              3221.8937              3222.1359
 Red. masses --      1.0942                 1.0942                 1.0941
 Frc consts  --      6.6916                 6.6923                 6.6927
 IR Inten    --      3.7298                 4.3014                10.6935

                     94                     95                     96
                      A                      A                      A
 Frequencies --   3222.5604              3222.7089              3222.9126
 Red. masses --      1.0936                 1.0936                 1.0938
 Frc consts  --      6.6916                 6.6921                 6.6942
 IR Inten    --     11.2521                11.0275                 1.7756

 - Thermochemistry -
 -------------------
 Temperature   298.150 Kelvin.  Pressure   1.00000 Atm.
 Atom     1 has atomic number  6 and mass  12.00000

 Molecular mass:   316.06287 amu.
 Principal axes and moments of inertia in atomic units:
                           1         2         3
     Eigenvalues --  8314.751068322.01234**********
           X            0.99986  -0.01700  -0.00004
           Y            0.01700   0.99986   0.00003
           Z            0.00004  -0.00003   1.00000
 This molecule is an asymmetric top.
 Rotational symmetry number  1.
 Warning -- assumption of classical behavior for rotation
           may cause significant error
 Rotational temperatures (Kelvin)      0.01042     0.01041     0.00597
 Rotational constants (GHZ):           0.21705     0.21686     0.12430
 Zero-point vibrational energy     655267.5 (Joules/Mol)
                                  156.61270 (Kcal/Mol)
 Warning -- explicit consideration of  28 degrees of freedom as
           vibrations may cause significant error
 Vibrational temperatures:     33.50    34.53    53.50    53.90    57.95
          (Kelvin)             72.84   191.47   209.15   209.73   300.68
                              314.93   315.80   443.08   483.48   483.56
                              571.45   581.40   581.59   605.13   605.34
                              611.08   625.97   626.12   666.91   766.91
                              767.08   770.48   874.87   906.45   906.52
                              932.66   932.87   933.00  1028.90  1029.68
                             1029.81  1202.42  1202.60  1204.16  1207.86
                             1207.95  1208.19  1213.68  1213.81  1214.46
                             1379.05  1379.33  1381.17  1395.24  1395.55
                             1400.28  1488.70  1488.83  1489.38  1586.81
                             1587.08  1595.33  1622.08  1622.51  1622.80
                             1719.49  1720.09  1725.74  1849.20  1849.44
                             1850.54  1905.22  1909.70  1910.16  1922.95
                             1923.42  1923.79  2068.87  2069.11  2069.23
                             2223.55  2223.87  2225.00  2350.79  2350.92
                             2350.92  2379.02  2379.10  2380.28  4587.75
                             4588.10  4588.23  4611.93  4612.56  4613.33
                             4635.40  4635.59  4635.93  4636.55  4636.76
                             4637.05

 Zero-point correction=                           0.249578 (Hartree/Particle)
 Thermal correction to Energy=                    0.268011
 Thermal correction to Enthalpy=                  0.268955
 Thermal correction to Gibbs Free Energy=         0.199466
 Sum of electronic and zero-point Energies=          -1333.749398
 Sum of electronic and thermal Energies=             -1333.730966
 Sum of electronic and thermal Enthalpies=           -1333.730021
 Sum of electronic and thermal Free Energies=        -1333.799510

                     E (Thermal)             CV                S
                      KCal/Mol        Cal/Mol-Kelvin    Cal/Mol-Kelvin
 Total                  168.179             71.396            146.252
 Electronic               0.000              0.000              0.000
 Translational            0.889              2.981             43.148
 Rotational               0.889              2.981             35.262
 Vibrational            166.402             65.435             67.841
 Vibration     1          0.593              1.985              6.333
 Vibration     2          0.593              1.985              6.272
 Vibration     3          0.594              1.982              5.404
 Vibration     4          0.594              1.982              5.389
 Vibration     5          0.594              1.981              5.245
 Vibration     6          0.595              1.977              4.793
 Vibration     7          0.613              1.920              2.901
 Vibration     8          0.617              1.908              2.732
 Vibration     9          0.617              1.907              2.727
 Vibration    10          0.642              1.827              2.053
 Vibration    11          0.647              1.812              1.968
 Vibration    12          0.647              1.811              1.963
 Vibration    13          0.698              1.659              1.373
 Vibration    14          0.717              1.604              1.231
 Vibration    15          0.717              1.603              1.231
 Vibration    16          0.764              1.476              0.973
 Vibration    17          0.769              1.461              0.948
 Vibration    18          0.769              1.461              0.947
 Vibration    19          0.783              1.425              0.890
 Vibration    20          0.783              1.425              0.889
 Vibration    21          0.787              1.416              0.876
 Vibration    22          0.796              1.394              0.842
 Vibration    23          0.796              1.394              0.842
 Vibration    24          0.821              1.331              0.756
 Vibration    25          0.888              1.177              0.580
 Vibration    26          0.888              1.177              0.580
 Vibration    27          0.891              1.171              0.575
 Vibration    28          0.967              1.015              0.436

                           ! Non-Optimized Parameters !
 Normal termination of Gaussian 16 at Sun Aug 23 21:58:12 2020.
 Gaussian 16:  ES64L-G16RevA.03 25-Dec-2016

 ----------------------------------------------------------------------
 # TD(NStates=10, Root=1) B3LYP/6-31G* scf=qc volume pop=NPA density=cu
 rrent Geom=AllCheck Guess=Read
 ----------------------------------------------------------------------

 Structure from the checkpoint file:  "phosphine_5_conf273.chk"
 -------------------
 Title Card Required
 -------------------
 Charge =  0 Multiplicity = 1

                         Standard orientation:
 ---------------------------------------------------------------------
 Center     Atomic      Atomic             Coordinates (Angstroms)
 Number     Number       Type             X           Y           Z
 ---------------------------------------------------------------------
      1          6           0        3.951435    0.910785    0.700276
      2          6           0        2.748736    0.433069    1.217661
      3          6           0        1.524776    0.681369    0.572060
      4          6           0        1.535665    1.447892   -0.604139
      5          6           0        2.729316    1.944024   -1.130133
      6          6           0        3.918972    1.662484   -0.469074
      7          9           0        5.075950    2.138881   -0.972493
      8         15           0        0.000043    0.000640    1.374732
      9          6           0       -1.352035    0.980021    0.571440
     10          6           0       -2.017899    0.607397   -0.607098
     11          6           0       -3.044677    1.392208   -1.133760
     12          6           0       -3.399448    2.561128   -0.470907
     13          6           0       -2.768112    2.963825    0.700719
     14          6           0       -1.752602    2.162013    1.218643
     15          9           0       -4.390923    3.324010   -0.974842
     16          6           0       -0.172851   -1.660115    0.571750
     17          6           0        0.493562   -2.056158   -0.598721
     18          6           0        0.326904   -3.338214   -1.124377
     19          6           0       -0.519392   -4.224466   -0.468826
     20          6           0       -1.194934   -3.873232    0.694732
     21          6           0       -1.007706   -2.592737    1.211962
     22          9           0       -0.684811   -5.464892   -0.971829
     23          1           0        4.900367    0.721258    1.191340
     24          1           0        2.761776   -0.139053    2.142138
     25          1           0        0.603768    1.667851   -1.115773
     26          1           0        2.747724    2.540606   -2.036611
     27          1           0       -1.739402   -0.308093   -1.119873
     28          1           0       -3.567985    1.110817   -2.042015
     29          1           0       -3.081370    3.878709    1.193067
     30          1           0       -1.266254    2.458273    2.144838
     31          1           0        1.155718   -1.361470   -1.106182
     32          1           0        0.840554   -3.655020   -2.026460
     33          1           0       -1.839522   -4.597775    1.181661
     34          1           0       -1.516225   -2.315447    2.132119
 ---------------------------------------------------------------------

 SCF Done:  E(RB3LYP) =  -1333.99897663     a.u. after    1 cycles

 Excitation energies and oscillator strengths:

 Excited State   1:      Singlet-A      4.5717 eV  271.20 nm  f=0.1337  <S**2>=0.000
      81 -> 82         0.69229
 This state for optimization and/or second-order correction.
 Total Energy, E(TD-HF/TD-DFT) =  -1333.83096953
 Copying the excited state density for this state as the 1-particle RhoCI density.

 Excited State   2:      Singlet-A      4.5765 eV  270.91 nm  f=0.1354  <S**2>=0.000
      81 -> 83         0.69151

 Excited State   3:      Singlet-A      4.5860 eV  270.35 nm  f=0.0113  <S**2>=0.000
      81 -> 84         0.68735

 Excited State   4:      Singlet-A      4.9043 eV  252.81 nm  f=0.0018  <S**2>=0.000
      81 -> 85         0.67661

 Excited State   5:      Singlet-A      4.9068 eV  252.68 nm  f=0.0016  <S**2>=0.000
      81 -> 86         0.67607

 Excited State   6:      Singlet-A      5.2391 eV  236.65 nm  f=0.0075  <S**2>=0.000
      79 -> 82         0.10125
      80 -> 83        -0.10275
      81 -> 87         0.67232

 Excited State   7:      Singlet-A      5.4170 eV  228.88 nm  f=0.0001  <S**2>=0.000
      75 -> 84         0.14117
      77 -> 82        -0.18228
      78 -> 83        -0.15580
      79 -> 82         0.29492
      79 -> 83        -0.28292
      79 -> 85         0.15593
      80 -> 82        -0.28374
      80 -> 83        -0.28734
      80 -> 86        -0.13868

 Excited State   8:      Singlet-A      5.4446 eV  227.72 nm  f=0.0019  <S**2>=0.000
      76 -> 82         0.21400
      77 -> 83         0.16709
      77 -> 87        -0.12030
      78 -> 82         0.16708
      79 -> 84         0.31214
      79 -> 86        -0.14469
      80 -> 84         0.39005
      80 -> 85         0.14537
      81 -> 85         0.12465

 Excited State   9:      Singlet-A      5.4464 eV  227.64 nm  f=0.0022  <S**2>=0.000
      76 -> 83         0.20889
      77 -> 82         0.15012
      78 -> 83        -0.17742
      78 -> 87        -0.11991
      79 -> 84         0.38343
      79 -> 85        -0.13533
      80 -> 84        -0.32364
      80 -> 86        -0.15539
      81 -> 86         0.12567

 Excited State  10:      Singlet-A      5.6620 eV  218.98 nm  f=0.0045  <S**2>=0.000
      75 -> 84         0.16111
      76 -> 84        -0.10080
      77 -> 82        -0.24260
      78 -> 83        -0.22417
      79 -> 82        -0.10366
      79 -> 83         0.18579
      79 -> 85         0.21643
      79 -> 86         0.10518
      80 -> 82         0.37184
      80 -> 85         0.10873
      80 -> 86        -0.23811

 The electronic state is 1-A.
 Alpha  occ. eigenvalues --  -77.09285 -24.70936 -24.70935 -24.70927 -10.27933
 Alpha  occ. eigenvalues --  -10.27932 -10.27922 -10.20804 -10.20803 -10.20797
 Alpha  occ. eigenvalues --  -10.20704 -10.20703 -10.20694 -10.20480 -10.20479
 Alpha  occ. eigenvalues --  -10.20476 -10.20320 -10.20318 -10.20311 -10.20311
 Alpha  occ. eigenvalues --  -10.20310 -10.20305  -6.55987  -4.72248  -4.72248
 Alpha  occ. eigenvalues --   -4.71744  -1.22114  -1.22114  -1.22105  -0.87208
 Alpha  occ. eigenvalues --   -0.86558  -0.86552  -0.77802  -0.76322  -0.76287
 Alpha  occ. eigenvalues --   -0.76283  -0.74869  -0.74865  -0.65458  -0.63138
 Alpha  occ. eigenvalues --   -0.62959  -0.62958  -0.60999  -0.60996  -0.57074
 Alpha  occ. eigenvalues --   -0.54667  -0.54663  -0.54254  -0.49448  -0.49444
 Alpha  occ. eigenvalues --   -0.49381  -0.48019  -0.48018  -0.46312  -0.46308
 Alpha  occ. eigenvalues --   -0.46294  -0.45864  -0.44922  -0.44920  -0.43857
 Alpha  occ. eigenvalues --   -0.43707  -0.43704  -0.42082  -0.40157  -0.40109
 Alpha  occ. eigenvalues --   -0.40106  -0.37163  -0.37156  -0.36439  -0.34999
 Alpha  occ. eigenvalues --   -0.34996  -0.34950  -0.33925  -0.33921  -0.27233
 Alpha  occ. eigenvalues --   -0.26849  -0.26602  -0.26594  -0.25430  -0.25417
 Alpha  occ. eigenvalues --   -0.21917
 Alpha virt. eigenvalues --   -0.02516  -0.02504  -0.02414  -0.01177  -0.01167
 Alpha virt. eigenvalues --   -0.00311   0.05873   0.05897   0.08467   0.10086
 Alpha virt. eigenvalues --    0.10090   0.12848   0.13528   0.13531   0.14052

 Mulliken charges:
               1
     1  C   -0.182444
     2  C   -0.182370
     3  C   -0.124923
     4  C   -0.164788
     5  C   -0.189756
     6  C    0.347398
     7  F   -0.301266
     8  P    0.435724
     9  C   -0.105002
    10  C   -0.188990
    11  C   -0.178337
    12  C    0.355680
    13  C   -0.200887
    14  C   -0.154755
    15  F   -0.298856
    16  C   -0.079136
    17  C   -0.150672
    18  C   -0.184645
    19  C    0.391145
    20  C   -0.182806
    21  C   -0.161193
    22  F   -0.281673
    23  H    0.138883
    24  H    0.127998
    25  H    0.151678
    26  H    0.142585
    27  H    0.131522
    28  H    0.142870
    29  H    0.140426
    30  H    0.138764
    31  H    0.181036
    32  H    0.165633
    33  H    0.162294
    34  H    0.158862
 Sum of Mulliken charges =  -0.00000

 Dipole moment (field-independent basis, Debye):
    X=             -0.5605    Y=             -3.4506    Z=              1.4582  Tot=              3.7878
 Quadrupole moment (field-independent basis, Debye-Ang):
   XX=           -146.1692   YY=           -132.8551   ZZ=           -121.8418
   XY=              1.1250   XZ=             -0.7543   YZ=              0.6380

 Summary of Natural Population Analysis:

                                       Natural Population
                Natural  -----------------------------------------------
    Atom  No    Charge         Core      Valence    Rydberg      Total
 -----------------------------------------------------------------------
      C    1   -0.29772      1.99900     4.28365    0.01508     6.29772
      C    2   -0.23429      1.99903     4.21869    0.01657     6.23429
      C    3   -0.48101      1.99888     4.45553    0.02660     6.48101
      C    4   -0.22134      1.99900     4.20520    0.01714     6.22134
      C    5   -0.30495      1.99899     4.29066    0.01531     6.30495
      C    6    0.38338      1.99844     3.59023    0.02796     5.61662
      F    7   -0.33641      1.99994     7.33096    0.00552     9.33641
      P    8    1.21010      9.99756     3.74084    0.05149    13.78990
      C    9   -0.44678      1.99887     4.42346    0.02444     6.44678
      C   10   -0.27636      1.99900     4.25858    0.01878     6.27636
      C   11   -0.28450      1.99899     4.27070    0.01481     6.28450
      C   12    0.39908      1.99844     3.57470    0.02778     5.60092
      C   13   -0.33342      1.99899     4.31809    0.01634     6.33342
      C   14   -0.18522      1.99902     4.17085    0.01534     6.18522
      F   15   -0.33410      1.99994     7.32865    0.00550     9.33410
      C   16   -0.38914      1.99891     4.36492    0.02531     6.38914
      C   17   -0.19278      1.99901     4.17774    0.01603     6.19278
      C   18   -0.29782      1.99898     4.28412    0.01472     6.29782
      C   19    0.45511      1.99844     3.51937    0.02708     5.54489
      C   20   -0.30068      1.99899     4.28682    0.01487     6.30068
      C   21   -0.19369      1.99903     4.17940    0.01525     6.19369
      F   22   -0.31903      1.99994     7.31349    0.00560     9.31903
      H   23    0.24727      0.00000     0.75149    0.00124     0.75273
      H   24    0.23135      0.00000     0.76777    0.00089     0.76865
      H   25    0.24754      0.00000     0.75075    0.00171     0.75246
      H   26    0.24989      0.00000     0.74891    0.00120     0.75011
      H   27    0.23721      0.00000     0.76147    0.00132     0.76279
      H   28    0.24961      0.00000     0.74919    0.00121     0.75039
      H   29    0.24896      0.00000     0.74987    0.00117     0.75104
      H   30    0.23802      0.00000     0.76086    0.00112     0.76198
      H   31    0.26444      0.00000     0.73437    0.00119     0.73556
      H   32    0.26072      0.00000     0.73811    0.00117     0.73928
      H   33    0.25866      0.00000     0.74016    0.00118     0.74134
      H   34    0.24791      0.00000     0.75090    0.00119     0.75209
 =======================================================================
   * Total *   -0.00000     51.97740   109.59049    0.43211   162.00000

 Normal termination of Gaussian 16 at Sun Aug 23 22:13:58 2020.
