 Gaussian 16, Revision A.03,

 ---------------------------------
 # opt=CalcAll B3LYP/6-31G* scf=qc
 ---------------------------------

 -------------------
 Title Card Required
 -------------------
 Symbolic Z-matrix:
 Charge =  0 Multiplicity = 1

 SCF Done:  E(RB3LYP) =  -814.888318395     a.u. after    7 cycles
 SCF Done:  E(RB3LYP) =  -814.893849555     a.u. after   13 cycles
 SCF Done:  E(RB3LYP) =  -814.907277547     a.u. after   13 cycles
 SCF Done:  E(RB3LYP) =  -814.909373011     a.u. after   15 cycles
 SCF Done:  E(RB3LYP) =  -814.910994027     a.u. after   13 cycles
 SCF Done:  E(RB3LYP) =  -814.911315833     a.u. after   11 cycles
 SCF Done:  E(RB3LYP) =  -814.911355332     a.u. after    7 cycles
 SCF Done:  E(RB3LYP) =  -814.911355716     a.u. after    2 cycles
 SCF Done:  E(RB3LYP) =  -814.911355700     a.u. after    2 cycles
 Optimization completed.
    -- Stationary point found.
 Normal termination of Gaussian 16 at Sun Aug 23 10:21:03 2020.

 ----------------------------------------------------------------------
 # freq B3LYP/6-31G* scf=qc volume NMR pop=NPA density=current Geom=All
 Check Guess=Read
 ----------------------------------------------------------------------

 Structure from the checkpoint file:  "phosphine_2_conf82.chk"
 -------------------
 Title Card Required
 -------------------
 Charge =  0 Multiplicity = 1

 SCF Done:  E(RB3LYP) =  -814.911355700     a.u. after    1 cycles

      1  C    Isotropic =   173.6805   Anisotropy =    24.6873

      2  C    Isotropic =   164.5486   Anisotropy =    17.3067

      3  C    Isotropic =   160.3846   Anisotropy =    25.2008

      4  C    Isotropic =   157.6849   Anisotropy =    18.3466

      5  H    Isotropic =    30.8226   Anisotropy =     5.9371

      6  H    Isotropic =    30.8032   Anisotropy =     5.6249

      7  P    Isotropic =   394.3668   Anisotropy =    25.5254

      8  C    Isotropic =   158.0519   Anisotropy =    21.3391

      9  H    Isotropic =    30.7019   Anisotropy =     6.6404

     10  H    Isotropic =    30.8834   Anisotropy =     5.0474

     11  C    Isotropic =   156.7163   Anisotropy =    22.3660

     12  C    Isotropic =   163.8404   Anisotropy =    16.7345

     13  C    Isotropic =   173.3185   Anisotropy =    25.5661

     14  C    Isotropic =   156.5953   Anisotropy =    28.6942

     15  H    Isotropic =    30.3539   Anisotropy =     5.4580

     16  H    Isotropic =    31.2064   Anisotropy =     4.1658

     17  C    Isotropic =   160.6331   Anisotropy =    20.7847

     18  C    Isotropic =   163.9486   Anisotropy =    17.0127

     19  C    Isotropic =   176.0125   Anisotropy =    18.6739

     20  H    Isotropic =    31.0755   Anisotropy =    10.1220

     21  H    Isotropic =    31.3343   Anisotropy =     7.7820

     22  H    Isotropic =    31.3024   Anisotropy =     8.5890

     23  H    Isotropic =    30.1270   Anisotropy =     6.1106

     24  H    Isotropic =    30.9364   Anisotropy =     6.2945

     25  H    Isotropic =    30.5817   Anisotropy =     8.0569

     26  H    Isotropic =    30.7956   Anisotropy =     4.0936

     27  H    Isotropic =    30.4903   Anisotropy =     7.8967

     28  H    Isotropic =    30.4712   Anisotropy =     5.3635

     29  H    Isotropic =    30.5065   Anisotropy =     7.0958

     30  H    Isotropic =    30.9382   Anisotropy =     5.0601

     31  H    Isotropic =    31.2592   Anisotropy =     8.0852

     32  H    Isotropic =    31.0604   Anisotropy =     9.8204

     33  H    Isotropic =    31.3218   Anisotropy =     8.7167

     34  H    Isotropic =    30.6777   Anisotropy =     5.7207

     35  H    Isotropic =    30.6417   Anisotropy =     6.2390

     36  H    Isotropic =    30.4924   Anisotropy =     9.2108

     37  H    Isotropic =    30.8478   Anisotropy =     6.9903

     38  H    Isotropic =    31.4455   Anisotropy =     7.9551

     39  H    Isotropic =    31.1671   Anisotropy =    10.3522

     40  H    Isotropic =    30.9843   Anisotropy =     5.9806

  Exact polarizability: 175.035   0.393 160.184  -2.012   1.053 126.950
 Approx polarizability: 212.728   0.043 213.365  -2.252   2.747 196.566

                      1                      2                      3
                      A                      A                      A
 Frequencies --     26.9937                34.6904                36.5366
 Red. masses --      3.2866                 2.5668                 3.3796
 Frc consts  --      0.0014                 0.0018                 0.0027
 IR Inten    --      0.0369                 0.0080                 0.0368

                      4                      5                      6
                      A                      A                      A
 Frequencies --     46.9090                70.2113                83.8735
 Red. masses --      2.8855                 1.7028                 1.7615
 Frc consts  --      0.0037                 0.0049                 0.0073
 IR Inten    --      0.0062                 0.0195                 0.0611

                      7                      8                      9
                      A                      A                      A
 Frequencies --     93.3527               105.1561               120.7396
 Red. masses --      2.7605                 2.3837                 2.4384
 Frc consts  --      0.0142                 0.0155                 0.0209
 IR Inten    --      0.2632                 0.1060                 0.2625

                     10                     11                     12
                      A                      A                      A
 Frequencies --    145.1942               161.9944               210.1917
 Red. masses --      2.1699                 3.0613                 1.9794
 Frc consts  --      0.0270                 0.0473                 0.0515
 IR Inten    --      0.1344                 0.1151                 0.0063

                     13                     14                     15
                      A                      A                      A
 Frequencies --    215.2443               237.4285               246.1844
 Red. masses --      1.9562                 2.5291                 1.1899
 Frc consts  --      0.0534                 0.0840                 0.0425
 IR Inten    --      0.0893                 0.4827                 0.0096

                     16                     17                     18
                      A                      A                      A
 Frequencies --    247.2933               264.8274               276.8841
 Red. masses --      1.1669                 1.5477                 1.9139
 Frc consts  --      0.0420                 0.0640                 0.0865
 IR Inten    --      0.0202                 0.1613                 0.0510

                     19                     20                     21
                      A                      A                      A
 Frequencies --    299.4977               318.3491               321.8476
 Red. masses --      2.6806                 3.1649                 2.2731
 Frc consts  --      0.1417                 0.1890                 0.1387
 IR Inten    --      0.0170                 0.1067                 0.8164

                     22                     23                     24
                      A                      A                      A
 Frequencies --    430.6195               478.0559               485.4984
 Red. masses --      2.4233                 2.6959                 2.6736
 Frc consts  --      0.2647                 0.3630                 0.3713
 IR Inten    --      1.5378                 0.4568                 0.6244

                     25                     26                     27
                      A                      A                      A
 Frequencies --    621.5102               653.0387               699.9994
 Red. masses --      3.1121                 3.4667                 2.0308
 Frc consts  --      0.7083                 0.8710                 0.5863
 IR Inten    --      2.1624                10.4456                 6.1073

                     28                     29                     30
                      A                      A                      A
 Frequencies --    741.9435               756.3210               761.5757
 Red. masses --      1.2487                 1.1806                 1.3616
 Frc consts  --      0.4050                 0.3979                 0.4653
 IR Inten    --      8.9618                 2.4448                 3.6286

                     31                     32                     33
                      A                      A                      A
 Frequencies --    788.1059               798.5027               806.6790
 Red. masses --      1.3294                 1.5820                 1.8795
 Frc consts  --      0.4865                 0.5943                 0.7206
 IR Inten    --      4.3517                 4.4110                 4.2294

                     34                     35                     36
                      A                      A                      A
 Frequencies --    874.0816               888.1098               890.0063
 Red. masses --      2.2960                 1.4430                 1.4114
 Frc consts  --      1.0335                 0.6706                 0.6587
 IR Inten    --      0.5686                 0.7957                 1.4187

                     37                     38                     39
                      A                      A                      A
 Frequencies --    913.2712               918.7145               926.5203
 Red. masses --      1.4971                 1.4556                 1.3762
 Frc consts  --      0.7357                 0.7238                 0.6960
 IR Inten    --      6.6307                 6.6845                10.5955

                     40                     41                     42
                      A                      A                      A
 Frequencies --    985.9855              1012.5759              1014.5035
 Red. masses --      1.9792                 2.7439                 2.7668
 Frc consts  --      1.1336                 1.6576                 1.6778
 IR Inten    --      3.0107                 1.0465                 2.0957

                     43                     44                     45
                      A                      A                      A
 Frequencies --   1063.6944              1067.1343              1068.2489
 Red. masses --      1.3043                 1.6426                 1.9003
 Frc consts  --      0.8695                 1.1021                 1.2777
 IR Inten    --      1.9052                 0.6671                 0.1910

                     46                     47                     48
                      A                      A                      A
 Frequencies --   1074.9883              1078.9016              1086.0647
 Red. masses --      1.6004                 1.4872                 1.8143
 Frc consts  --      1.0897                 1.0199                 1.2609
 IR Inten    --      3.0203                 2.1199                 0.3390

                     49                     50                     51
                      A                      A                      A
 Frequencies --   1117.8633              1118.5151              1123.1035
 Red. masses --      1.7023                 1.7781                 1.7243
 Frc consts  --      1.2533                 1.3107                 1.2814
 IR Inten    --      1.2848                 2.2507                 2.3351

                     52                     53                     54
                      A                      A                      A
 Frequencies --   1222.5357              1230.3657              1232.2755
 Red. masses --      1.4907                 1.4434                 1.4642
 Frc consts  --      1.3127                 1.2874                 1.3100
 IR Inten    --      5.6545                 2.5592                 4.0182

                     55                     56                     57
                      A                      A                      A
 Frequencies --   1252.6971              1258.8938              1267.3538
 Red. masses --      1.3590                 1.4331                 1.4226
 Frc consts  --      1.2565                 1.3382                 1.3462
 IR Inten    --      8.2209                 1.2251                 0.1970

                     58                     59                     60
                      A                      A                      A
 Frequencies --   1314.9990              1316.6341              1323.1694
 Red. masses --      1.2243                 1.2656                 1.2453
 Frc consts  --      1.2474                 1.2927                 1.2845
 IR Inten    --      1.5785                 7.6139                 0.4390

                     61                     62                     63
                      A                      A                      A
 Frequencies --   1337.5866              1344.2644              1345.3550
 Red. masses --      1.1595                 1.2572                 1.2297
 Frc consts  --      1.2223                 1.3385                 1.3114
 IR Inten    --      2.0260                11.2476                 3.6075

                     64                     65                     66
                      A                      A                      A
 Frequencies --   1351.2834              1356.2081              1393.7504
 Red. masses --      1.1310                 1.1372                 1.4385
 Frc consts  --      1.2167                 1.2324                 1.6463
 IR Inten    --      1.9674                 0.9588                 1.8635

                     67                     68                     69
                      A                      A                      A
 Frequencies --   1399.5796              1417.5571              1420.8312
 Red. masses --      1.3255                 1.5350                 1.5353
 Frc consts  --      1.5298                 1.8174                 1.8261
 IR Inten    --      9.2613                 3.9030                 0.6806

                     70                     71                     72
                      A                      A                      A
 Frequencies --   1440.6308              1440.7404              1442.7932
 Red. masses --      1.2386                 1.2414                 1.2617
 Frc consts  --      1.5146                 1.5182                 1.5475
 IR Inten    --      0.6451                 1.0731                 5.8884

                     73                     74                     75
                      A                      A                      A
 Frequencies --   1483.5884              1492.8493              1496.2266
 Red. masses --      1.0848                 1.0884                 1.0876
 Frc consts  --      1.4068                 1.4292                 1.4346
 IR Inten    --      3.0805                 3.3036                 1.1646

                     76                     77                     78
                      A                      A                      A
 Frequencies --   1513.9248              1516.7625              1518.5684
 Red. masses --      1.0752                 1.0716                 1.0682
 Frc consts  --      1.4520                 1.4525                 1.4514
 IR Inten    --      0.5549                 1.3978                 0.5001

                     79                     80                     81
                      A                      A                      A
 Frequencies --   1520.1862              1523.6092              1526.2650
 Red. masses --      1.0808                 1.0662                 1.0650
 Frc consts  --      1.4716                 1.4583                 1.4616
 IR Inten    --      1.8294                 1.3265                 1.4017

                     82                     83                     84
                      A                      A                      A
 Frequencies --   1529.6947              1529.8940              1532.5194
 Red. masses --      1.0411                 1.0411                 1.0531
 Frc consts  --      1.4353                 1.4357                 1.4573
 IR Inten    --      5.8924                 5.8247                 4.8368

                     85                     86                     87
                      A                      A                      A
 Frequencies --   1538.3957              1539.0986              1541.2486
 Red. masses --      1.0620                 1.0777                 1.0839
 Frc consts  --      1.4809                 1.5041                 1.5170
 IR Inten    --      7.0570                 1.8419                 3.7465

                     88                     89                     90
                      A                      A                      A
 Frequencies --   3012.7619              3014.0603              3014.9330
 Red. masses --      1.0598                 1.0615                 1.0665
 Frc consts  --      5.6675                 5.6818                 5.7116
 IR Inten    --     18.3495                 9.0594                 8.1012

                     91                     92                     93
                      A                      A                      A
 Frequencies --   3021.9058              3023.8327              3023.9528
 Red. masses --      1.0629                 1.0646                 1.0642
 Frc consts  --      5.7186                 5.7353                 5.7337
 IR Inten    --      7.6431                69.7119                34.8821

                     94                     95                     96
                      A                      A                      A
 Frequencies --   3025.1643              3028.7175              3030.0268
 Red. masses --      1.0624                 1.0684                 1.0634
 Frc consts  --      5.7283                 5.7744                 5.7520
 IR Inten    --     22.1009                31.8514                18.0714

                     97                     98                     99
                      A                      A                      A
 Frequencies --   3039.6643              3041.3521              3043.8231
 Red. masses --      1.0367                 1.0371                 1.0935
 Frc consts  --      5.6434                 5.6521                 5.9694
 IR Inten    --     44.6738                40.0004                26.1355

                    100                    101                    102
                      A                      A                      A
 Frequencies --   3043.9263              3048.0674              3057.6338
 Red. masses --      1.0377                 1.0934                 1.0975
 Frc consts  --      5.6651                 5.9850                 6.0453
 IR Inten    --     23.9400                12.0840                20.7770

                    103                    104                    105
                      A                      A                      A
 Frequencies --   3065.0005              3066.6087              3072.0308
 Red. masses --      1.1005                 1.1018                 1.0993
 Frc consts  --      6.0914                 6.1046                 6.1123
 IR Inten    --     45.9458                14.7475                19.6250

                    106                    107                    108
                      A                      A                      A
 Frequencies --   3074.8915              3076.8983              3094.7834
 Red. masses --      1.1009                 1.1013                 1.0968
 Frc consts  --      6.1327                 6.1429                 6.1894
 IR Inten    --     43.4232                21.5932                34.3088

                    109                    110                    111
                      A                      A                      A
 Frequencies --   3104.9472              3106.6733              3107.8514
 Red. masses --      1.1028                 1.1028                 1.1016
 Frc consts  --      6.2641                 6.2711                 6.2692
 IR Inten    --     68.1719                50.5796                52.6087

                    112                    113                    114
                      A                      A                      A
 Frequencies --   3110.3965              3111.2913              3115.1093
 Red. masses --      1.1015                 1.1019                 1.1014
 Frc consts  --      6.2785                 6.2848                 6.2974
 IR Inten    --     40.5345                40.4904                51.7733

 - Thermochemistry -
 -------------------
 Temperature   298.150 Kelvin.  Pressure   1.00000 Atm.
 Atom     1 has atomic number  6 and mass  12.00000

 Molecular mass:   202.18504 amu.
 Principal axes and moments of inertia in atomic units:
                           1         2         3
     Eigenvalues --  3299.312294930.612397581.17771
           X            1.00000   0.00069  -0.00003
           Y           -0.00069   1.00000  -0.00191
           Z            0.00002   0.00191   1.00000
 This molecule is an asymmetric top.
 Rotational symmetry number  1.
 Warning -- assumption of classical behavior for rotation
           may cause significant error
 Rotational temperatures (Kelvin)      0.02625     0.01757     0.01142
 Rotational constants (GHZ):           0.54701     0.36603     0.23806
 Zero-point vibrational energy     976728.0 (Joules/Mol)
                                  233.44360 (Kcal/Mol)
 Warning -- explicit consideration of  24 degrees of freedom as
           vibrations may cause significant error
 Vibrational temperatures:     38.84    49.91    52.57    67.49   101.02
          (Kelvin)            120.68   134.31   151.30   173.72   208.90
                              233.07   302.42   309.69   341.61   354.20
                              355.80   381.03   398.37   430.91   458.03
                              463.07   619.57   687.82   698.52   894.21
                              939.58  1007.14  1067.49  1088.18  1095.74
                             1133.91  1148.87  1160.63  1257.61  1277.79
                             1280.52  1313.99  1321.83  1333.06  1418.61
                             1456.87  1459.64  1530.42  1535.37  1536.97
                             1546.67  1552.30  1562.60  1608.36  1609.29
                             1615.90  1758.96  1770.22  1772.97  1802.35
                             1811.27  1823.44  1891.99  1894.34  1903.75
                             1924.49  1934.10  1935.67  1944.20  1951.28
                             2005.30  2013.68  2039.55  2044.26  2072.75
                             2072.90  2075.86  2134.55  2147.88  2152.74
                             2178.20  2182.28  2184.88  2187.21  2192.13
                             2195.95  2200.89  2201.18  2204.95  2213.41
                             2214.42  2217.51  4334.69  4336.56  4337.82
                             4347.85  4350.62  4350.79  4352.54  4357.65
                             4359.53  4373.40  4375.83  4379.38  4379.53
                             4385.49  4399.25  4409.85  4412.17  4419.97
                             4424.08  4426.97  4452.70  4467.33  4469.81
                             4471.50  4475.17  4476.45  4481.95

 Zero-point correction=                           0.372016 (Hartree/Particle)
 Thermal correction to Energy=                    0.390614
 Thermal correction to Enthalpy=                  0.391559
 Thermal correction to Gibbs Free Energy=         0.323192
 Sum of electronic and zero-point Energies=           -814.539340
 Sum of electronic and thermal Energies=              -814.520741
 Sum of electronic and thermal Enthalpies=            -814.519797
 Sum of electronic and thermal Free Energies=         -814.588164

                     E (Thermal)             CV                S
                      KCal/Mol        Cal/Mol-Kelvin    Cal/Mol-Kelvin
 Total                  245.114             66.266            143.890
 Electronic               0.000              0.000              0.000
 Translational            0.889              2.981             41.817
 Rotational               0.889              2.981             33.178
 Vibrational            243.337             60.304             68.896
 Vibration     1          0.593              1.984              6.039
 Vibration     2          0.594              1.983              5.541
 Vibration     3          0.594              1.982              5.439
 Vibration     4          0.595              1.979              4.944
 Vibration     5          0.598              1.968              4.147
 Vibration     6          0.601              1.960              3.798
 Vibration     7          0.602              1.954              3.589
 Vibration     8          0.605              1.945              3.356
 Vibration     9          0.609              1.932              3.088
 Vibration    10          0.617              1.908              2.734
 Vibration    11          0.622              1.889              2.526
 Vibration    12          0.642              1.825              2.042
 Vibration    13          0.645              1.818              1.999
 Vibration    14          0.656              1.783              1.822
 Vibration    15          0.661              1.769              1.758
 Vibration    16          0.661              1.767              1.750
 Vibration    17          0.671              1.737              1.630
 Vibration    18          0.678              1.716              1.553
 Vibration    19          0.692              1.675              1.420
 Vibration    20          0.705              1.639              1.319
 Vibration    21          0.707              1.632              1.301
 Vibration    22          0.792              1.404              0.857
 Vibration    23          0.835              1.299              0.715
 Vibration    24          0.842              1.282              0.695

 Optimization completed.
    -- Stationary point found.
 Normal termination of Gaussian 16 at Sun Aug 23 10:28:14 2020.
 Gaussian 16:  ES64L-G16RevA.03 25-Dec-2016

 ----------------------------------------------------------------------
 # TD(NStates=10, Root=1) B3LYP/6-31G* scf=qc volume pop=NPA density=cu
 rrent Geom=AllCheck Guess=Read
 ----------------------------------------------------------------------

 Structure from the checkpoint file:  "phosphine_2_conf83.chk"
 -------------------
 Title Card Required
 -------------------
 Charge =  0 Multiplicity = 1

                         Standard orientation:
 ---------------------------------------------------------------------
 Center     Atomic      Atomic             Coordinates (Angstroms)
 Number     Number       Type             X           Y           Z
 ---------------------------------------------------------------------
      1          6           0       -5.088041   -0.058875   -0.869902
      2          6           0       -3.665486   -0.595283   -0.681690
      3          6           0       -3.078648   -0.262023    0.696831
      4          6           0       -1.652128   -0.793665    0.924033
      5          1           0       -1.387545   -0.723416    1.988591
      6          1           0       -1.619427   -1.860071    0.663930
      7         15           0       -0.322367    0.069021   -0.095162
      8          6           0       -0.036352    1.561768    1.021551
      9          1           0       -1.027203    1.863607    1.385207
     10          1           0        0.540267    1.260038    1.908187
     11          6           0        0.622859    2.771778    0.337336
     12          6           0        2.061217    2.543132   -0.144739
     13          6           0        2.695422    3.803288   -0.742664
     14          6           0        1.145234   -1.004861    0.385054
     15          1           0        2.044996   -0.404202    0.209111
     16          1           0        1.114141   -1.217518    1.464455
     17          6           0        1.225818   -2.316038   -0.412762
     18          6           0        2.396566   -3.229970   -0.007753
     19          6           0        3.785539   -2.648323   -0.295363
     20          1           0       -5.485757   -0.319163   -1.857445
     21          1           0       -5.114926    1.034147   -0.778814
     22          1           0       -5.772138   -0.469508   -0.116571
     23          1           0       -3.011106   -0.191774   -1.464632
     24          1           0       -3.664413   -1.686752   -0.815552
     25          1           0       -3.736094   -0.680181    1.473173
     26          1           0       -3.101457    0.827806    0.846259
     27          1           0        0.617667    3.616428    1.042392
     28          1           0        0.005209    3.082622   -0.516761
     29          1           0        2.072260    1.742389   -0.896713
     30          1           0        2.674648    2.187324    0.695980
     31          1           0        2.120293    4.164218   -1.604145
     32          1           0        3.720074    3.613979   -1.082378
     33          1           0        2.732729    4.615758   -0.006369
     34          1           0        1.300287   -2.083374   -1.484214
     35          1           0        0.290156   -2.878365   -0.289416
     36          1           0        2.292815   -4.184142   -0.542154
     37          1           0        2.314279   -3.470152    1.062055
     38          1           0        3.896828   -2.400980   -1.358630
     39          1           0        4.573169   -3.365309   -0.036793
     40          1           0        3.973754   -1.734283    0.279074
 ---------------------------------------------------------------------

 SCF Done:  E(RB3LYP) =  -814.911355700     a.u. after    1 cycles

 Excitation energies and oscillator strengths:

 Excited State   1:      Singlet-A      6.4510 eV  192.19 nm  f=0.1202  <S**2>=0.000
      57 -> 58         0.69727
 This state for optimization and/or second-order correction.
 Total Energy, E(TD-HF/TD-DFT) =  -814.674285629
 Copying the excited state density for this state as the 1-particle RhoCI density.

 Excited State   2:      Singlet-A      6.6912 eV  185.29 nm  f=0.1536  <S**2>=0.000
      57 -> 59         0.69298

 Excited State   3:      Singlet-A      7.3429 eV  168.85 nm  f=0.0068  <S**2>=0.000
      57 -> 60         0.69559

 Excited State   4:      Singlet-A      7.6455 eV  162.17 nm  f=0.0069  <S**2>=0.000
      57 -> 61         0.68226
      57 -> 64         0.14371

 Excited State   5:      Singlet-A      7.7632 eV  159.71 nm  f=0.0102  <S**2>=0.000
      57 -> 62         0.67360
      57 -> 65         0.13497

 Excited State   6:      Singlet-A      8.0241 eV  154.51 nm  f=0.0373  <S**2>=0.000
      57 -> 63         0.58052
      57 -> 64        -0.29444
      57 -> 65        -0.21256

 Excited State   7:      Singlet-A      8.0857 eV  153.34 nm  f=0.0220  <S**2>=0.000
      57 -> 61        -0.10481
      57 -> 63         0.35120
      57 -> 64         0.56327
      57 -> 65         0.12693

 Excited State   8:      Singlet-A      8.1867 eV  151.45 nm  f=0.0063  <S**2>=0.000
      55 -> 58         0.52583
      55 -> 59         0.14181
      56 -> 58         0.31523
      56 -> 59        -0.26286

 Excited State   9:      Singlet-A      8.2538 eV  150.22 nm  f=0.0043  <S**2>=0.000
      56 -> 59         0.10081
      57 -> 62        -0.10806
      57 -> 63         0.12132
      57 -> 64        -0.21587
      57 -> 65         0.62674

 Excited State  10:      Singlet-A      8.4307 eV  147.06 nm  f=0.0916  <S**2>=0.000
      55 -> 58        -0.29719
      55 -> 59        -0.13165
      56 -> 58         0.59213

 The electronic state is 1-A.
 Alpha  occ. eigenvalues --  -77.06328 -10.18028 -10.18028 -10.17989 -10.17963
 Alpha  occ. eigenvalues --  -10.17913 -10.17897 -10.17858 -10.17750 -10.17335
 Alpha  occ. eigenvalues --  -10.17142 -10.17085 -10.16893  -6.53096  -4.69344
 Alpha  occ. eigenvalues --   -4.69343  -4.68859  -0.79884  -0.78816  -0.78699
 Alpha  occ. eigenvalues --   -0.74106  -0.71575  -0.71330  -0.65570  -0.62916
 Alpha  occ. eigenvalues --   -0.62089  -0.58140  -0.57199  -0.56234  -0.51782
 Alpha  occ. eigenvalues --   -0.46239  -0.46038  -0.45607  -0.43761  -0.43149
 Alpha  occ. eigenvalues --   -0.42504  -0.41869  -0.41499  -0.41258  -0.39544
 Alpha  occ. eigenvalues --   -0.38848  -0.38437  -0.36975  -0.36319  -0.35673
 Alpha  occ. eigenvalues --   -0.34968  -0.33780  -0.33194  -0.32755  -0.32668
 Alpha  occ. eigenvalues --   -0.32479  -0.32225  -0.31929  -0.31848  -0.28914
 Alpha  occ. eigenvalues --   -0.28650  -0.21378
 Alpha virt. eigenvalues --    0.05184   0.06034   0.08682   0.09823   0.10210
 Alpha virt. eigenvalues --    0.10940   0.11207   0.11790   0.13139   0.13778
 Alpha virt. eigenvalues --    0.14130   0.14618   0.15202   0.16000   0.16146

 Mulliken charges:
               1
     1  C   -0.438834
     2  C   -0.236057
     3  C   -0.221684
     4  C   -0.435946
     5  H    0.180330
     6  H    0.170894
     7  P    0.311949
     8  C   -0.415649
     9  H    0.182027
    10  H    0.150305
    11  C   -0.257736
    12  C   -0.243751
    13  C   -0.443714
    14  C   -0.415386
    15  H    0.145171
    16  H    0.137924
    17  C   -0.233708
    18  C   -0.237426
    19  C   -0.431536
    20  H    0.140099
    21  H    0.139132
    22  H    0.138462
    23  H    0.134129
    24  H    0.118085
    25  H    0.109103
    26  H    0.113943
    27  H    0.134774
    28  H    0.140866
    29  H    0.132399
    30  H    0.130162
    31  H    0.143455
    32  H    0.144105
    33  H    0.140565
    34  H    0.114662
    35  H    0.117815
    36  H    0.120337
    37  H    0.121246
    38  H    0.135900
    39  H    0.133067
    40  H    0.130522
 Sum of Mulliken charges =  -0.00000

 Dipole moment (field-independent basis, Debye):
    X=             -0.1923    Y=              0.5065    Z=              1.3935  Tot=              1.4951
 Quadrupole moment (field-independent basis, Debye-Ang):
   XX=           -100.3729   YY=            -95.7858   ZZ=            -93.8091
   XY=              2.6339   XZ=             -0.5779   YZ=              0.5703

 Summary of Natural Population Analysis:

                                       Natural Population
                Natural  -----------------------------------------------
    Atom  No    Charge         Core      Valence    Rydberg      Total
 -----------------------------------------------------------------------
      C    1   -0.67356      1.99946     4.66637    0.00773     6.67356
      C    2   -0.45739      1.99935     4.44632    0.01172     6.45739
      C    3   -0.46366      1.99932     4.44937    0.01497     6.46366
      C    4   -0.76944      1.99930     4.74983    0.02031     6.76944
      H    5    0.27188      0.00000     0.72621    0.00191     0.72812
      H    6    0.25003      0.00000     0.74748    0.00249     0.74997
      P    7    0.98047      9.99765     3.90709    0.11479    14.01953
      C    8   -0.76306      1.99929     4.74697    0.01680     6.76306
      H    9    0.26458      0.00000     0.73385    0.00157     0.73542
      H   10    0.23933      0.00000     0.75325    0.00742     0.76067
      C   11   -0.46114      1.99932     4.44825    0.01357     6.46114
      C   12   -0.45780      1.99934     4.44765    0.01080     6.45780
      C   13   -0.67322      1.99946     4.66603    0.00773     6.67322
      C   14   -0.86266      1.99931     4.83614    0.02720     6.86266
      H   15    0.23618      0.00000     0.75729    0.00654     0.76382
      H   16    0.23955      0.00000     0.75620    0.00424     0.76045
      C   17   -0.46159      1.99933     4.45015    0.01211     6.46159
      C   18   -0.45091      1.99935     4.44046    0.01110     6.45091
      C   19   -0.67792      1.99946     4.67061    0.00785     6.67792
      H   20    0.23068      0.00000     0.76808    0.00124     0.76932
      H   21    0.22219      0.00000     0.77495    0.00286     0.77781
      H   22    0.22289      0.00000     0.77523    0.00188     0.77711
      H   23    0.22354      0.00000     0.77125    0.00522     0.77646
      H   24    0.21846      0.00000     0.77708    0.00445     0.78154
      H   25    0.22069      0.00000     0.77134    0.00797     0.77931
      H   26    0.21569      0.00000     0.77562    0.00869     0.78431
      H   27    0.23508      0.00000     0.76289    0.00202     0.76492
      H   28    0.23073      0.00000     0.76442    0.00485     0.76927
      H   29    0.21823      0.00000     0.77512    0.00664     0.78177
      H   30    0.22485      0.00000     0.77337    0.00177     0.77515
      H   31    0.22533      0.00000     0.77356    0.00111     0.77467
      H   32    0.23293      0.00000     0.76596    0.00111     0.76707
      H   33    0.22358      0.00000     0.77530    0.00112     0.77642
      H   34    0.21576      0.00000     0.77560    0.00864     0.78424
      H   35    0.22022      0.00000     0.77654    0.00325     0.77978
      H   36    0.22478      0.00000     0.77132    0.00390     0.77522
      H   37    0.22194      0.00000     0.77451    0.00354     0.77806
      H   38    0.22092      0.00000     0.77640    0.00268     0.77908
      H   39    0.22613      0.00000     0.77178    0.00210     0.77387
      H   40    0.21572      0.00000     0.77961    0.00467     0.78428
 =======================================================================
   * Total *    0.00000     33.98995    79.62944    0.38061   114.00000

 Normal termination of Gaussian 16 at Sun Aug 23 10:36:33 2020.
